Title
82255
    1SAPS     N    1   5.785   0.631  11.039 -0.4591 -0.2232  1.0430
    1SAPS   HN1    2   5.710   0.560  11.049  0.8263 -1.7274  0.2420
    1SAPS   HN2    3   5.863   0.596  11.098  1.4272  1.6641 -0.1843
    1SAPS   HN3    4   5.742   0.716  11.081  0.4106 -0.3593  2.2480
    1SAPS   C12    5   5.820   0.636  10.892 -0.1165  0.4998 -0.3073
    1SAPS  H12A    6   5.890   0.718  10.889  0.3985  0.0999  0.4398
    1SAPS   C13    7   5.901   0.513  10.851 -0.6070 -0.5710 -0.0523
    1SAPS  O13A    8   5.935   0.422  10.935 -0.2438  0.2672  0.0658
    1SAPS  O13B    9   5.944   0.513  10.734  0.1069 -0.4063 -0.1650
    1SAPS   C11   10   5.693   0.649  10.808  0.1791 -0.5110 -0.2543
    1SAPS  H11A   11   5.636   0.554  10.796  1.1158 -0.9782 -1.1937
    1SAPS  H11B   12   5.722   0.657  10.701 -0.2439 -3.0964 -0.6455
    1SAPS     P   13   5.606   0.902  10.848  0.2425  0.0282  0.4905
    1SAPS   O13   14   5.472   0.961  10.874 -0.5984 -0.1194 -0.2825
    1SAPS   O14   15   5.725   0.958  10.916 -0.6400  0.4107  0.3235
    1SAPS   O12   16   5.601   0.750  10.857 -0.1150 -0.2564  0.9456
    1SAPS   O11   17   5.627   0.922  10.690  0.0037 -0.3134 -0.6711
    1SAPS    C1   18   5.517   0.887  10.599 -0.8857  0.3963  0.7155
    1SAPS    HA   19   5.490   0.782  10.621  1.4766 -1.0850 -2.4886
    1SAPS    HB   20   5.432   0.958  10.601 -0.8340  0.4427  2.0349
    1SAPS    C2   21   5.567   0.888  10.451  0.3254 -0.3346 -0.2372
    1SAPS    HS   22   5.661   0.829  10.444  1.3618  1.1716  0.4898
    1SAPS   O21   23   5.592   1.022  10.404 -0.0320  0.6775  0.0878
    1SAPS   C21   24   5.673   1.032  10.294  0.0240  0.1092  0.3080
    1SAPS   O22   25   5.730   0.933  10.253 -0.3853 -0.2891  0.6969
    1SAPS   C22   26   5.671   1.176  10.242 -0.1709 -0.2258  0.0064
    1SAPS   H2R   27   5.564   1.199  10.223  0.1857  0.9443 -0.7346
    1SAPS   H2S   28   5.714   1.228  10.330  1.3035 -1.2192 -0.1030
    1SAPS    C3   29   5.451   0.829  10.364  0.1969  0.5180  0.0043
    1SAPS    HX   30   5.359   0.889  10.380  0.2019  0.3832  0.5601
    1SAPS    HY   31   5.444   0.726  10.404 -0.3566  0.9741  1.1161
    1SAPS   O31   32   5.487   0.833  10.222 -0.1148 -0.0632 -0.2652
    1SAPS   C31   33   5.510   0.713  10.167 -0.2576 -0.9796  0.3870
    1SAPS   O32   34   5.507   0.608  10.227 -0.3341 -0.1230  0.1457
    1SAPS   C32   35   5.561   0.722  10.023  0.2718  0.1165  0.3534
    1SAPS   H2X   36   5.634   0.806  10.016  0.0138  0.5229  2.2319
    1SAPS   H2Y   37   5.474   0.743   9.957  2.1025 -0.5534 -2.4526
    1SAPS   C23   38   5.763   1.201  10.117 -0.2491  0.1294 -0.0999
    1SAPS   H3R   39   5.729   1.131  10.038 -0.9404 -0.8559  1.0318
    1SAPS   H3S   40   5.864   1.160  10.138 -0.2651  0.3025  0.3301
    1SAPS   C24   41   5.769   1.342  10.063  0.0456 -0.4323  1.4393
    1SAPS   H4R   42   5.680   1.364  10.000  1.9126  0.4845 -1.0341
    1SAPS   H4S   43   5.851   1.362   9.991 -1.9309  3.0443 -0.0825
    1SAPS   C25   44   5.787   1.443  10.166  0.7695  0.1962 -0.0297
    1SAPS   H5R   45   5.876   1.453  10.229  0.3866  0.7702  0.4352
    1SAPS   C26   46   5.694   1.539  10.185 -0.5638 -0.6487  0.7545
    1SAPS   H6R   47   5.711   1.604  10.273  0.8267 -0.0116  0.0446
    1SAPS   C27   48   5.571   1.575  10.104  0.2079  0.5615  0.3984
    1SAPS   H7R   49   5.531   1.484  10.054 -2.0231  1.0066  1.2677
    1SAPS   H7S   50   5.593   1.646  10.021 -1.2285  0.1278 -0.3789
    1SAPS   C28   51   5.456   1.624  10.199 -0.7092  0.5877  0.7878
    1SAPS   H8R   52   5.430   1.539  10.263 -0.7897  0.0850  0.0940
    1SAPS   C29   53   5.407   1.747  10.207 -0.2722 -0.3057  0.8434
    1SAPS   H9R   54   5.328   1.775  10.278 -1.0728  1.0059 -0.5073
    1SAPS  C210   55   5.439   1.873  10.135 -0.0468  0.3114  0.7324
    1SAPS  H10R   56   5.343   1.929  10.134 -2.0560 -2.8362 -1.5789
    1SAPS  H10S   57   5.454   1.860  10.026 -0.0023  1.4526  0.5898
    1SAPS  C211   58   5.548   1.951  10.201 -0.0355  0.8929  0.5183
    1SAPS  H11R   59   5.555   1.951  10.311  1.1539  3.0726  0.5092
    1SAPS  C212   60   5.636   2.028  10.137  0.2740  0.4893  0.4040
    1SAPS  H12R   61   5.716   2.074  10.197  0.1764 -1.4968  2.1417
    1SAPS  C213   62   5.650   2.058   9.982  0.7644  0.1051  0.1890
    1SAPS  H13R   63   5.583   1.995   9.919  1.8519  1.1376 -2.0971
    1SAPS  H13S   64   5.756   2.039   9.955  0.6109 -1.0200  0.3076
    1SAPS  C214   65   5.613   2.200   9.952  0.0384  0.1793  0.4017
    1SAPS  H14R   66   5.586   2.265  10.037 -0.2101 -0.5481  0.8927
    1SAPS  C215   67   5.618   2.258   9.831  0.0385 -0.9138 -0.3792
    1SAPS  H15R   68   5.600   2.365   9.814  1.3273 -0.5428  0.4402
    1SAPS  C216   69   5.650   2.191   9.702 -0.1561  0.3873  0.3790
    1SAPS  H16R   70   5.640   2.082   9.722 -0.1693  0.7688  2.7639
    1SAPS  H16S   71   5.754   2.219   9.674  0.6495 -1.9295  0.8115
    1SAPS  C217   72   5.555   2.241   9.591  0.0758  0.4171 -0.3093
    1SAPS  H17R   73   5.562   2.350   9.572  2.0891  0.4373  0.2293
    1SAPS  H17S   74   5.448   2.226   9.615 -0.1695 -1.9544 -2.4163
    1SAPS  C218   75   5.588   2.180   9.456  0.6718  0.3942 -0.5753
    1SAPS  H18R   76   5.617   2.073   9.463  0.4341  0.4109  1.0871
    1SAPS  H18S   77   5.672   2.239   9.413  1.6944 -1.4688 -1.2665
    1SAPS  C219   78   5.472   2.201   9.363  0.4084  0.2802  0.4705
    1SAPS  H19R   79   5.428   2.302   9.375 -0.1259  0.0398  0.5836
    1SAPS  H19S   80   5.389   2.132   9.389  1.7466 -1.0722  1.3361
    1SAPS  C220   81   5.514   2.182   9.215 -0.4404  0.0098  0.4359
    1SAPS  H20R   82   5.542   2.075   9.202 -1.3956 -0.1950 -0.0030
    1SAPS  H20S   83   5.597   2.247   9.178  0.6822 -1.6367 -0.0599
    1SAPS  H20T   84   5.434   2.198   9.141 -0.2709 -2.0898 -0.2754
    1SAPS   C33   85   5.624   0.588   9.984 -0.5368  0.8611  0.2916
    1SAPS   H3X   86   5.546   0.511   9.965 -0.0451  0.1931  0.9478
    1SAPS   H3Y   87   5.698   0.554  10.059  0.8214 -3.2836 -2.6087
    1SAPS   C34   88   5.683   0.601   9.841 -0.7810  0.4724 -0.1900
    1SAPS   H4X   89   5.759   0.523   9.822 -0.9570  0.1731  0.3307
    1SAPS   H4Y   90   5.727   0.703   9.839  1.7867 -0.4284  2.8084
    1SAPS   C35   91   5.580   0.598   9.722 -0.0932 -0.5351 -0.4432
    1SAPS   H5X   92   5.500   0.675   9.732  1.4242  1.4073 -2.2245
    1SAPS   H5Y   93   5.530   0.500   9.707 -0.5525 -0.7356  2.0514
    1SAPS   C36   94   5.648   0.633   9.588 -0.5518  0.5186  0.3954
    1SAPS   H6X   95   5.744   0.576   9.590 -0.7366  0.2121  0.4334
    1SAPS   H6Y   96   5.668   0.743   9.590 -0.0759  0.4542 -0.4190
    1SAPS   C37   97   5.565   0.594   9.465 -0.0642 -0.1180  0.8499
    1SAPS   H7X   98   5.469   0.648   9.473 -1.2569 -1.7458 -1.4114
    1SAPS   H7Y   99   5.540   0.486   9.473  0.3434 -0.3181 -0.3264
    1SAPS   C38  100   5.635   0.651   9.341 -0.0648  0.5142  0.3131
    1SAPS   H8X  101   5.743   0.625   9.345 -0.1896 -0.6519 -2.2136
    1SAPS   H8Y  102   5.631   0.762   9.351  4.0894  1.0074 -1.5912
    1SAPS   C39  103   5.572   0.604   9.203  0.1212  0.0273  0.0616
    1SAPS   H9X  104   5.561   0.493   9.200 -1.8895  0.1160  1.9316
    1SAPS   H9Y  105   5.642   0.642   9.126  1.2625  1.1116  1.5663
    1SAPS  C310  106   5.432   0.668   9.180 -0.2496 -0.1183 -0.8707
    1SAPS  H10X  107   5.440   0.775   9.208  0.8116 -0.5039  0.3785
    1SAPS  H10Y  108   5.352   0.623   9.242 -1.0132  0.0102 -1.7399
    1SAPS  C311  109   5.396   0.669   9.031 -0.4011  0.2941  0.1918
    1SAPS  H11X  110   5.357   0.568   9.005  0.4784  0.1691 -0.7002
    1SAPS  H11Y  111   5.489   0.690   8.973 -0.2226  0.1795  0.4341
    1SAPS  C312  112   5.278   0.763   9.001 -0.0549 -0.3716 -0.4846
    1SAPS  H12X  113   5.321   0.865   9.007 -0.2548 -0.3216  0.2224
    1SAPS  H12Y  114   5.198   0.760   9.078  0.0608  0.5812 -0.3075
    1SAPS  C313  115   5.212   0.731   8.868 -0.0664 -0.2506  0.0472
    1SAPS  H13X  116   5.163   0.631   8.875 -1.7130  0.1660 -3.1991
    1SAPS  H13Y  117   5.294   0.716   8.794 -0.2639 -2.3526  0.1949
    1SAPS  C314  118   5.115   0.841   8.818  0.9383 -0.4502  0.7837
    1SAPS  H14X  119   5.168   0.938   8.810  1.4161 -0.5211  2.6578
    1SAPS  H14Y  120   5.035   0.858   8.893  0.2095  1.5458 -0.3582
    1SAPS  C315  121   5.049   0.805   8.680 -0.4214  0.4726  0.2167
    1SAPS  H15X  122   4.954   0.862   8.668 -0.1031  0.4848 -3.1449
    1SAPS  H15Y  123   5.016   0.699   8.679 -1.3122  0.5800  3.5537
    1SAPS  C316  124   5.139   0.837   8.562  0.1702 -0.0180  0.8129
    1SAPS  H16X  125   5.238   0.793   8.585  0.3636 -0.6401 -1.0516
    1SAPS  H16Y  126   5.157   0.945   8.548  2.1099 -0.5409 -1.2728
    1SAPS  C317  127   5.094   0.778   8.431 -0.0597 -0.2297  0.3211
    1SAPS  H17X  128   4.984   0.780   8.415  0.2982  0.3575 -2.5046
    1SAPS  H17Y  129   5.124   0.671   8.424  1.3430  0.0973  0.9918
    1SAPS  C318  130   5.162   0.844   8.309 -0.1079 -0.1204  0.6614
    1SAPS  H18X  131   5.105   0.822   8.216 -0.6169 -1.1191  1.1964
    1SAPS  H18Y  132   5.258   0.795   8.287 -0.1348  0.4346 -0.8049
    1SAPS  H18Z  133   5.194   0.949   8.323 -1.4822  0.1469  2.1943
    2SAPS     N  134   2.400   6.649  10.963  0.2744 -0.5291  0.2313
    2SAPS   HN1  135   2.443   6.628  10.871 -0.0577  0.4289 -0.1534
    2SAPS   HN2  136   2.416   6.554  11.003 -3.5355 -0.9442  1.0989
    2SAPS   HN3  137   2.301   6.664  10.937  0.3875 -0.4952 -0.1909
    2SAPS   C12  138   2.479   6.756  11.024 -0.0772  0.3867  0.2045
    2SAPS  H12A  139   2.474   6.840  10.957 -1.9957 -0.2852 -0.5617
    2SAPS   C13  140   2.449   6.800  11.174 -0.5467 -0.3310  0.8761
    2SAPS  O13A  141   2.351   6.764  11.237 -0.1701  0.2727 -0.1155
    2SAPS  O13B  142   2.514   6.899  11.206 -0.4668  0.4411 -0.5793
    2SAPS   C11  143   2.629   6.702  11.021  0.8618 -1.3366  0.0760
    2SAPS  H11A  144   2.629   6.613  11.088  0.9358 -0.5261  1.1798
    2SAPS  H11B  145   2.700   6.776  11.064 -1.1751  0.7357  0.0915
    2SAPS     P  146   2.730   6.735  10.781 -0.4874 -0.0720 -0.5551
    2SAPS   O13  147   2.644   6.859  10.765  0.0234 -0.3702  0.4307
    2SAPS   O14  148   2.873   6.750  10.816  0.3732 -0.2557  0.8083
    2SAPS   O12  149   2.665   6.650  10.897 -0.7724 -0.2012  0.5772
    2SAPS   O11  150   2.717   6.635  10.660  0.0352  0.2453 -0.1153
    2SAPS    C1  151   2.663   6.683  10.537  0.1547 -0.1765 -0.3710
    2SAPS    HA  152   2.726   6.770  10.507 -1.2862  1.1541  0.3020
    2SAPS    HB  153   2.683   6.610  10.455 -1.1836  0.1102 -0.9856
    2SAPS    C2  154   2.513   6.713  10.522  0.1611 -0.2391  0.3229
    2SAPS    HS  155   2.475   6.758  10.616  0.9626 -3.8167  2.5581
    2SAPS   O21  156   2.442   6.587  10.496 -0.1354  0.1855  0.0447
    2SAPS   C21  157   2.418   6.510  10.607 -0.3252 -0.2462  0.4068
    2SAPS   O22  158   2.454   6.548  10.719 -0.5887 -0.0051  0.6502
    2SAPS   C22  159   2.322   6.395  10.576 -0.5208 -0.7320 -0.0898
    2SAPS   H2R  160   2.367   6.314  10.637  1.6542  0.9907  0.7185
    2SAPS   H2S  161   2.222   6.414  10.621 -0.8587 -0.0652 -1.1004
    2SAPS    C3  162   2.493   6.798  10.398 -0.4725  0.5865  0.4963
    2SAPS    HX  163   2.546   6.896  10.405  3.0401 -1.0350 -0.9622
    2SAPS    HY  164   2.385   6.815  10.385 -0.2394  0.5276 -1.9991
    2SAPS   O31  165   2.552   6.742  10.281  0.5146 -0.3666 -0.1217
    2SAPS   C31  166   2.472   6.677  10.203  0.4881  0.0241  0.4798
    2SAPS   O32  167   2.348   6.670  10.208 -0.4373 -0.7890  0.6591
    2SAPS   C32  168   2.552   6.622  10.081  0.0997  0.5606  0.1732
    2SAPS   H2X  169   2.552   6.515  10.110  1.0891  0.6469  0.5469
    2SAPS   H2Y  170   2.656   6.660  10.092  0.0253  0.4201  1.5172
    2SAPS   C23  171   2.292   6.352  10.427 -0.7284 -0.5719 -0.5188
    2SAPS   H3R  172   2.261   6.443  10.371 -0.6597 -0.7386 -0.8275
    2SAPS   H3S  173   2.210   6.278  10.417  0.3472 -1.9723  0.6244
    2SAPS   C24  174   2.414   6.306  10.348 -0.9533 -0.2752  0.2753
    2SAPS   H4R  175   2.508   6.362  10.369 -0.1199 -1.6125  0.2923
    2SAPS   H4S  176   2.390   6.326  10.241 -3.3596  0.3552  0.8887
    2SAPS   C25  177   2.454   6.163  10.365 -0.6432  0.1070  0.0094
    2SAPS   H5R  178   2.476   6.136  10.469  1.2164  0.3583 -0.2843
    2SAPS   C26  179   2.446   6.064  10.275 -0.4835  0.0808  0.5307
    2SAPS   H6R  180   2.469   5.964  10.315 -0.1140  0.2973  0.8654
    2SAPS   C27  181   2.400   6.073  10.135 -0.3745 -0.3062  0.1785
    2SAPS   H7R  182   2.438   6.170  10.095  0.2221 -0.4423  0.3972
    2SAPS   H7S  183   2.289   6.074  10.133 -0.3729 -0.5633 -1.5941
    2SAPS   C28  184   2.434   5.954  10.049 -0.3549 -0.5137  0.6172
    2SAPS   H8R  185   2.410   5.854  10.089  1.6440 -1.3229 -0.0420
    2SAPS   C29  186   2.500   5.963   9.932 -0.1638 -0.0348  0.4114
    2SAPS   H9R  187   2.515   5.870   9.877  0.0607  1.2192 -1.7714
    2SAPS  C210  188   2.553   6.087   9.851  0.1983 -0.5049  0.1754
    2SAPS  H10R  189   2.527   6.178   9.908 -0.3196 -1.0227  0.7755
    2SAPS  H10S  190   2.503   6.107   9.754  0.0904  1.0157  0.5215
    2SAPS  C211  191   2.707   6.085   9.832  0.1019 -0.3627 -0.0478
    2SAPS  H11R  192   2.759   6.132   9.917 -2.0370  2.2958 -0.1062
    2SAPS  C212  193   2.768   6.060   9.717 -0.5140 -0.4645 -0.3346
    2SAPS  H12R  194   2.878   6.058   9.720 -0.3749 -0.2163 -3.0681
    2SAPS  C213  195   2.709   6.026   9.586  0.5443 -0.1037 -0.4195
    2SAPS  H13R  196   2.604   5.994   9.600 -0.4131  0.5990 -4.6294
    2SAPS  H13S  197   2.758   5.941   9.532  1.6682 -0.1809  0.6780
    2SAPS  C214  198   2.712   6.141   9.496  0.8007 -0.1115 -0.2760
    2SAPS  H14R  199   2.663   6.230   9.536  0.4817  0.0483 -1.0047
    2SAPS  C215  200   2.765   6.149   9.375 -0.4787 -0.6744 -0.0195
    2SAPS  H15R  201   2.750   6.234   9.307  2.3068  1.2327  1.5326
    2SAPS  C216  202   2.828   6.040   9.283  0.3641  0.0469 -0.6177
    2SAPS  H16R  203   2.827   5.943   9.337  2.2868 -0.6416 -1.7249
    2SAPS  H16S  204   2.938   6.053   9.273  0.2983  1.5124  0.2052
    2SAPS  C217  205   2.761   6.022   9.146 -0.2453  0.4159 -0.1307
    2SAPS  H17R  206   2.652   6.003   9.156 -0.0433 -1.4561 -1.0327
    2SAPS  H17S  207   2.800   5.928   9.103  0.6054  1.2777 -1.3365
    2SAPS  C218  208   2.785   6.125   9.038 -0.2056 -0.0557  0.3134
    2SAPS  H18R  209   2.883   6.097   8.994 -1.9383 -0.3201 -3.8095
    2SAPS  H18S  210   2.801   6.222   9.091  0.8898 -0.7572  1.3198
    2SAPS  C219  211   2.685   6.120   8.920  0.0564 -1.0324 -0.1531
    2SAPS  H19R  212   2.599   6.177   8.961  1.7579  0.3966  1.5868
    2SAPS  H19S  213   2.657   6.013   8.909 -0.0750 -0.8232 -2.1906
    2SAPS  C220  214   2.721   6.181   8.782 -0.1949  0.2553 -0.2634
    2SAPS  H20R  215   2.716   6.292   8.778  3.7383  0.5404 -2.4638
    2SAPS  H20S  216   2.650   6.151   8.703  0.1902  1.1207 -0.9500
    2SAPS  H20T  217   2.830   6.163   8.766  0.1227  0.4230  1.5217
    2SAPS   C33  218   2.491   6.649   9.942 -0.1434 -0.1302 -0.2865
    2SAPS   H3X  219   2.497   6.757   9.915  3.3037 -0.1113  0.0477
    2SAPS   H3Y  220   2.385   6.618   9.948 -0.0082 -0.6459 -0.4829
    2SAPS   C34  221   2.544   6.558   9.837 -0.2192 -0.0430  0.7108
    2SAPS   H4X  222   2.542   6.455   9.880  0.3458 -0.8417 -1.0707
    2SAPS   H4Y  223   2.648   6.581   9.806 -0.3043 -1.7331 -1.0317
    2SAPS   C35  224   2.473   6.566   9.698 -0.4614 -0.5072 -0.3310
    2SAPS   H5X  225   2.436   6.668   9.678  1.8935  0.1742 -1.5842
    2SAPS   H5Y  226   2.388   6.494   9.689  0.0465 -1.0706 -0.7208
    2SAPS   C36  227   2.573   6.544   9.578  0.2367  0.0570 -0.3109
    2SAPS   H6X  228   2.611   6.441   9.592 -2.7704 -0.7954  3.0794
    2SAPS   H6Y  229   2.655   6.617   9.590 -1.2837  1.7442  0.2340
    2SAPS   C37  230   2.502   6.551   9.445 -0.3854  0.0514  0.3047
    2SAPS   H7X  231   2.451   6.648   9.430  1.3302  0.9605  0.1197
    2SAPS   H7Y  232   2.436   6.464   9.425  2.0180 -1.3055 -2.4943
    2SAPS   C38  233   2.597   6.539   9.323  0.3156 -0.5697 -0.2229
    2SAPS   H8X  234   2.669   6.457   9.345  1.2657  0.0532 -0.9391
    2SAPS   H8Y  235   2.655   6.634   9.329 -0.0110 -0.3106 -1.0620
    2SAPS   C39  236   2.539   6.519   9.184  0.3904  0.0054 -0.0804
    2SAPS   H9X  237   2.472   6.600   9.148 -0.3247 -1.1405 -1.3752
    2SAPS   H9Y  238   2.472   6.433   9.204 -2.1011  2.4935  3.4524
    2SAPS  C310  239   2.653   6.480   9.089  0.7782  0.0006  0.1205
    2SAPS  H10X  240   2.608   6.433   8.999 -0.8856  1.7071  0.0144
    2SAPS  H10Y  241   2.718   6.405   9.140  2.1485  0.5441 -0.7559
    2SAPS  C311  242   2.728   6.600   9.043 -0.1133 -0.7896  0.8161
    2SAPS  H11X  243   2.813   6.609   9.114  0.0999  0.2918  0.4412
    2SAPS  H11Y  244   2.661   6.688   9.046  0.7530 -0.0883  0.1538
    2SAPS  C312  245   2.776   6.577   8.899 -0.2623  0.0703 -0.4760
    2SAPS  H12X  246   2.691   6.567   8.828  0.3432 -1.2044 -1.0611
    2SAPS  H12Y  247   2.827   6.478   8.887  0.0829  0.3745 -1.7176
    2SAPS  C313  248   2.881   6.687   8.870  0.5106  0.1196  0.4271
    2SAPS  H13X  249   2.959   6.681   8.948  3.3708 -0.9649 -2.3141
    2SAPS  H13Y  250   2.839   6.789   8.883 -0.9424 -0.4557  0.4283
    2SAPS  C314  251   2.939   6.674   8.726  0.7193  0.6897 -0.3215
    2SAPS  H14X  252   2.848   6.684   8.662  0.3283  0.6112  0.2115
    2SAPS  H14Y  253   2.978   6.570   8.722 -1.3389 -0.1290 -0.9534
    2SAPS  C315  254   3.045   6.785   8.694 -0.1952 -0.3100  0.3016
    2SAPS  H15X  255   3.124   6.787   8.772 -1.8205 -1.1632  2.0490
    2SAPS  H15Y  256   2.994   6.884   8.699 -0.5260 -0.3824 -1.3343
    2SAPS  C316  257   3.102   6.767   8.557  0.5811 -0.0448 -0.0935
    2SAPS  H16X  258   3.023   6.807   8.490  0.6073 -0.0440 -0.1243
    2SAPS  H16Y  259   3.109   6.660   8.531 -0.9668  0.0129 -0.8571
    2SAPS  C317  260   3.239   6.833   8.537  0.4291  0.0770 -0.0099
    2SAPS  H17X  261   3.321   6.790   8.599  0.4087  1.5114  1.0698
    2SAPS  H17Y  262   3.238   6.936   8.580  3.2929 -0.2986  1.1931
    2SAPS  C318  263   3.275   6.851   8.392 -0.6123 -0.4204 -0.2453
    2SAPS  H18X  264   3.267   6.753   8.341  0.5671  0.2338 -1.7781
    2SAPS  H18Y  265   3.377   6.890   8.374 -0.5790  0.0232  0.8131
    2SAPS  H18Z  266   3.199   6.920   8.349 -2.5017 -1.1333  1.7575
    3SAPS     N  267   3.884   1.105  10.716  0.0496  0.5220  0.4767
    3SAPS   HN1  268   3.886   1.020  10.656 -0.5610  0.7375  0.1347
    3SAPS   HN2  269   3.950   1.172  10.671  1.3202 -0.6332  0.5479
    3SAPS   HN3  270   3.902   1.088  10.817 -0.1609  1.5050  0.6929
    3SAPS   C12  271   3.736   1.149  10.698  0.6903 -0.0377 -0.6458
    3SAPS  H12A  272   3.716   1.152  10.591 -1.3982  0.1795 -0.2943
    3SAPS   C13  273   3.638   1.052  10.777 -0.7644 -1.0676 -0.1931
    3SAPS  O13A  274   3.677   0.946  10.832 -0.3371 -0.2693  0.3528
    3SAPS  O13B  275   3.517   1.078  10.764 -0.2923 -0.5472  0.1528
    3SAPS   C11  276   3.712   1.302  10.754 -0.3231 -0.3792 -0.4268
    3SAPS  H11A  277   3.713   1.296  10.865  0.0365  0.5698 -0.3683
    3SAPS  H11B  278   3.608   1.332  10.731 -0.4411  0.0771  0.6321
    3SAPS     P  279   3.777   1.539  10.661  0.1435  0.1345 -0.7361
    3SAPS   O13  280   3.656   1.593  10.737  0.0162 -0.0787 -0.3653
    3SAPS   O14  281   3.900   1.619  10.667  0.3774 -0.3944  0.3717
    3SAPS   O12  282   3.813   1.397  10.712  0.0909 -0.0422 -0.4212
    3SAPS   O11  283   3.745   1.536  10.513  0.0669 -0.3841  0.0800
    3SAPS    C1  284   3.780   1.416  10.435 -0.2743 -0.2223 -0.2318
    3SAPS    HA  285   3.872   1.371  10.478 -0.5772 -1.3794 -0.7661
    3SAPS    HB  286   3.701   1.339  10.426 -0.4788  0.1778 -2.5985
    3SAPS    C2  287   3.823   1.460  10.288  0.6343 -0.5769 -0.8477
    3SAPS    HS  288   3.886   1.551  10.296 -1.5817  0.8440  2.8661
    3SAPS   O21  289   3.708   1.491  10.207  0.1274 -0.0049  0.3144
    3SAPS   C21  290   3.663   1.617  10.220 -0.2258 -0.5755 -0.2164
    3SAPS   O22  291   3.721   1.710  10.269 -0.2071 -0.1627  0.2084
    3SAPS   C22  292   3.527   1.625  10.151  0.3338  0.3866 -0.2523
    3SAPS   H2R  293   3.484   1.523  10.146  1.4450 -0.0553 -0.9900
    3SAPS   H2S  294   3.466   1.697  10.210  1.3708  0.2442  1.0256
    3SAPS    C3  295   3.918   1.360  10.219  0.0382 -0.1716  0.2526
    3SAPS    HX  296   3.855   1.273  10.188 -2.0993  0.9427  1.2569
    3SAPS    HY  297   4.001   1.344  10.291  1.5696  1.2755 -1.0881
    3SAPS   O31  298   3.978   1.408  10.090  0.3389 -0.3003  0.0786
    3SAPS   C31  299   4.060   1.313  10.032  0.3011 -0.1869 -0.1767
    3SAPS   O32  300   4.108   1.216  10.087  0.0228 -0.1463  0.2758
    3SAPS   C32  301   4.108   1.352   9.892  0.2916 -0.5008 -1.0573
    3SAPS   H2X  302   4.188   1.429   9.901  1.2756 -1.3709 -1.9209
    3SAPS   H2Y  303   4.034   1.411   9.835  1.6847 -0.5121 -2.9866
    3SAPS   C23  304   3.542   1.690  10.008 -0.2802 -0.2637 -0.6678
    3SAPS   H3R  305   3.634   1.649   9.960  1.2490  2.8892 -0.6755
    3SAPS   H3S  306   3.550   1.801  10.010  2.3878 -0.3877  0.7131
    3SAPS   C24  307   3.435   1.641   9.909  0.3573 -0.6534 -0.1948
    3SAPS   H4R  308   3.418   1.534   9.935 -1.8659  0.0741  1.8004
    3SAPS   H4S  309   3.477   1.643   9.806 -0.7346  1.3408 -0.6502
    3SAPS   C25  310   3.298   1.704   9.933 -0.0538 -0.3801 -0.7169
    3SAPS   H5R  311   3.261   1.697  10.036  0.7170 -0.2899 -0.4247
    3SAPS   C26  312   3.221   1.773   9.854 -0.2910 -0.7406  0.6159
    3SAPS   H6R  313   3.120   1.805   9.885  0.0178  0.3952  0.5078
    3SAPS   C27  314   3.262   1.818   9.712 -0.1082 -0.5767 -0.9551
    3SAPS   H7R  315   3.219   1.740   9.645 -1.7873 -0.8353  0.3645
    3SAPS   H7S  316   3.372   1.823   9.696  0.1375 -0.0767  0.7459
    3SAPS   C28  317   3.219   1.961   9.674 -0.8643 -0.9739 -0.0449
    3SAPS   H8R  318   3.217   2.035   9.755  2.5352 -1.2892  0.4756
    3SAPS   C29  319   3.197   1.998   9.548  0.5914 -0.4229 -0.3771
    3SAPS   H9R  320   3.152   2.097   9.529 -0.5777 -1.1015 -1.3361
    3SAPS  C210  321   3.198   1.909   9.426 -0.0893 -0.0955 -0.4205
    3SAPS  H10R  322   3.219   1.803   9.451 -0.3669 -0.3796 -1.3440
    3SAPS  H10S  323   3.295   1.923   9.372  1.0337 -1.2168  1.2214
    3SAPS  C211  324   3.069   1.920   9.342 -0.3228 -0.2799 -0.3824
    3SAPS  H11R  325   2.976   1.921   9.401 -0.0975  0.0739 -0.0237
    3SAPS  C212  326   3.066   1.912   9.207  0.2190 -0.0191  0.0945
    3SAPS  H12R  327   2.965   1.909   9.163  0.6837  0.1724 -1.0186
    3SAPS  C213  328   3.186   1.891   9.113  0.4988  0.9261 -0.3440
    3SAPS  H13R  329   3.172   1.791   9.065 -3.9497  0.6649  1.0179
    3SAPS  H13S  330   3.285   1.897   9.162  1.3310  0.4317 -1.8861
    3SAPS  C214  331   3.196   1.993   9.007  0.6931  0.3473  0.1756
    3SAPS  H14R  332   3.214   2.092   9.053 -0.5521  1.5227 -1.7218
    3SAPS  C215  333   3.192   1.976   8.871 -0.8021 -0.9998 -0.6912
    3SAPS  H15R  334   3.201   2.068   8.812  0.0446  0.0768  1.0527
    3SAPS  C216  335   3.163   1.851   8.800 -0.0194  0.4975  0.4159
    3SAPS  H16R  336   3.186   1.759   8.858  1.2081  0.4562 -0.0971
    3SAPS  H16S  337   3.232   1.853   8.713 -0.2712  4.5212  0.1235
    3SAPS  C217  338   3.036   1.849   8.724  0.6128 -0.8038 -0.5360
    3SAPS  H17R  339   3.034   1.925   8.642  0.4671  0.3085  0.4794
    3SAPS  H17S  340   2.954   1.859   8.798  1.5295 -0.3494  0.4431
    3SAPS  C218  341   3.011   1.713   8.657  0.2004 -0.2337  0.1414
    3SAPS  H18R  342   3.041   1.635   8.731  1.8790 -0.2528 -0.4978
    3SAPS  H18S  343   3.096   1.719   8.584  0.6096  0.8177  0.6835
    3SAPS  C219  344   2.873   1.690   8.600 -0.3420  1.0988 -0.4903
    3SAPS  H19R  345   2.802   1.685   8.686  1.7169 -1.4929  1.2050
    3SAPS  H19S  346   2.863   1.592   8.550 -1.5562  0.2404  1.3173
    3SAPS  C220  347   2.822   1.796   8.500 -0.0125 -0.2015  0.2239
    3SAPS  H20R  348   2.716   1.786   8.469  0.5162 -2.5806 -1.0299
    3SAPS  H20S  349   2.880   1.791   8.406 -4.6693  0.5071 -3.0133
    3SAPS  H20T  350   2.838   1.898   8.541 -0.9321  0.3649 -0.7751
    3SAPS   C33  351   4.170   1.235   9.821  0.5976 -0.1404 -0.4044
    3SAPS   H3X  352   4.099   1.150   9.830 -0.4328  0.7540  0.1353
    3SAPS   H3Y  353   4.259   1.204   9.880  0.5963  2.4331  1.1201
    3SAPS   C34  354   4.197   1.260   9.674  0.1650  0.1217 -0.0400
    3SAPS   H4X  355   4.102   1.274   9.619 -0.3236 -0.0067  0.7485
    3SAPS   H4Y  356   4.250   1.169   9.638 -1.5658 -1.2307  0.6591
    3SAPS   C35  357   4.296   1.380   9.650 -0.6759 -0.6053 -0.2781
    3SAPS   H5X  358   4.378   1.345   9.718 -0.6785  3.0702  1.8790
    3SAPS   H5Y  359   4.252   1.476   9.684  0.6980 -0.4172  1.0885
    3SAPS   C36  360   4.353   1.393   9.509  0.8266 -0.2458 -0.5278
    3SAPS   H6X  361   4.402   1.296   9.486  0.3266 -1.7639  3.7932
    3SAPS   H6Y  362   4.437   1.464   9.492  2.6637 -2.8522 -3.4613
    3SAPS   C37  363   4.247   1.416   9.404 -0.1126  0.1721 -0.3872
    3SAPS   H7X  364   4.195   1.512   9.422  0.7317  0.7812 -1.1437
    3SAPS   H7Y  365   4.164   1.342   9.399  0.7033 -0.7826 -0.0260
    3SAPS   C38  366   4.304   1.423   9.260 -0.1145 -0.1337 -0.0455
    3SAPS   H8X  367   4.369   1.336   9.238  1.6469  0.6207  1.7844
    3SAPS   H8Y  368   4.373   1.510   9.249  1.3175 -1.0949  0.9214
    3SAPS   C39  369   4.183   1.420   9.167 -0.7959 -0.2073  0.1595
    3SAPS   H9X  370   4.112   1.502   9.193 -0.3137  0.2870 -0.0638
    3SAPS   H9Y  371   4.117   1.331   9.166 -0.3771 -0.5437 -1.8152
    3SAPS  C310  372   4.233   1.443   9.023  0.2234  0.8859 -0.3524
    3SAPS  H10X  373   4.310   1.523   9.028  1.1344 -0.0100  0.2743
    3SAPS  H10Y  374   4.153   1.477   8.953 -1.1407  1.5189  1.4536
    3SAPS  C311  375   4.274   1.301   8.961 -0.7012 -0.1627 -0.2925
    3SAPS  H11X  376   4.190   1.228   8.951  1.5080 -2.6778 -1.9210
    3SAPS  H11Y  377   4.357   1.253   9.016 -1.3721  1.3846  2.2223
    3SAPS  C312  378   4.313   1.312   8.815  0.0543  0.4299 -0.0585
    3SAPS  H12X  379   4.410   1.366   8.810  1.3098 -1.7785 -1.2876
    3SAPS  H12Y  380   4.237   1.373   8.762  0.4769 -1.6193 -3.2292
    3SAPS  C313  381   4.320   1.175   8.743 -0.2837 -0.0100  0.8884
    3SAPS  H13X  382   4.226   1.116   8.743 -0.5997  0.4333 -1.3995
    3SAPS  H13Y  383   4.388   1.109   8.802 -2.5800 -3.9210 -0.4824
    3SAPS  C314  384   4.381   1.191   8.600  0.3573  0.9836 -0.9999
    3SAPS  H14X  385   4.484   1.234   8.598  1.1903 -0.9153 -0.8217
    3SAPS  H14Y  386   4.315   1.264   8.548  1.1156  1.9647 -0.6262
    3SAPS  C315  387   4.377   1.058   8.536 -0.0079  0.4482 -0.6415
    3SAPS  H15X  388   4.280   1.011   8.512  0.8329 -0.8377 -1.6543
    3SAPS  H15Y  389   4.423   0.982   8.603  0.1704 -0.0651 -1.3326
    3SAPS  C316  390   4.445   1.083   8.399  0.3253  0.2730  0.8034
    3SAPS  H16X  391   4.553   1.105   8.414  0.6257  0.0564 -0.9053
    3SAPS  H16Y  392   4.394   1.159   8.337 -1.0121 -0.6316  0.7473
    3SAPS  C317  393   4.464   0.950   8.318  0.6655  0.5364  1.2824
    3SAPS  H17X  394   4.365   0.901   8.323  0.4507  0.5194 -1.5056
    3SAPS  H17Y  395   4.545   0.886   8.360  2.7537  1.7384 -0.7046
    3SAPS  C318  396   4.508   0.963   8.175 -0.3727  0.1960  0.2494
    3SAPS  H18X  397   4.603   1.016   8.154  0.1901 -1.5718 -2.0707
    3SAPS  H18Y  398   4.424   1.002   8.112 -1.0225  0.1701  1.0886
    3SAPS  H18Z  399   4.529   0.860   8.137 -2.1475  0.4533 -1.6473
    4SAPS     N  400   5.935   3.657  10.647 -0.2720 -0.0384  0.1275
    4SAPS   HN1  401   5.969   3.755  10.637  1.2581 -0.6153 -0.7332
    4SAPS   HN2  402   6.002   3.598  10.594 -1.5000  1.0179 -2.8553
    4SAPS   HN3  403   5.849   3.646  10.589 -0.0600  0.1592 -0.2330
    4SAPS   C12  404   5.921   3.619  10.800  0.7728 -0.0849  0.5013
    4SAPS  H12A  405   5.908   3.513  10.816  1.4027 -0.3419 -0.5663
    4SAPS   C13  406   6.055   3.658  10.876 -0.2195  0.7557  0.6775
    4SAPS  O13A  407   6.163   3.682  10.810  0.1074  0.2534 -0.5245
    4SAPS  O13B  408   6.063   3.624  10.997 -0.1848 -0.2750  0.1451
    4SAPS   C11  409   5.800   3.702  10.864  0.1404 -0.2279 -0.1461
    4SAPS  H11A  410   5.818   3.812  10.871 -0.4689 -0.2359  3.5670
    4SAPS  H11B  411   5.806   3.677  10.972  0.9335 -3.1962 -0.7888
    4SAPS     P  412   5.578   3.728  10.702  0.2881  0.2224  0.1952
    4SAPS   O13  413   5.475   3.632  10.654  0.0508  0.6808 -0.1126
    4SAPS   O14  414   5.523   3.857  10.749 -0.6317  0.1459  0.0180
    4SAPS   O12  415   5.663   3.673  10.821  0.1626  0.0648 -0.1329
    4SAPS   O11  416   5.681   3.745  10.587 -0.1423  0.0528 -0.0071
    4SAPS    C1  417   5.685   3.863  10.508 -0.0167  0.0842 -0.2896
    4SAPS    HA  418   5.629   3.948  10.553 -0.2145 -0.3818  0.3513
    4SAPS    HB  419   5.786   3.909  10.517 -0.0728  0.2312 -0.3976
    4SAPS    C2  420   5.653   3.850  10.360  0.5139 -0.0474  0.3632
    4SAPS    HS  421   5.554   3.800  10.355  0.8510 -0.6369 -0.7600
    4SAPS   O21  422   5.751   3.767  10.296  0.1911 -0.7387  0.2539
    4SAPS   C21  423   5.724   3.644  10.248 -0.4985  0.4692  0.8587
    4SAPS   O22  424   5.627   3.580  10.276  0.9146  0.0068  0.3739
    4SAPS   C22  425   5.847   3.584  10.178 -0.1223 -0.2344  0.1935
    4SAPS   H2R  426   5.898   3.662  10.117 -2.3400 -0.2330 -1.8050
    4SAPS   H2S  427   5.912   3.552  10.263  0.9416 -0.5386 -0.7028
    4SAPS    C3  428   5.625   3.990  10.288  0.6330  0.8850 -0.5166
    4SAPS    HX  429   5.581   3.971  10.188  1.9454 -1.3651 -0.7317
    4SAPS    HY  430   5.726   4.033  10.273  2.1492 -1.3083  2.2079
    4SAPS   O31  431   5.545   4.073  10.379  0.0604 -0.3558  0.0020
    4SAPS   C31  432   5.413   4.046  10.387  0.3622 -0.6154  0.3241
    4SAPS   O32  433   5.360   3.954  10.328 -0.0267  0.5287 -0.3237
    4SAPS   C32  434   5.337   4.135  10.481  0.3745 -0.3706  1.1141
    4SAPS   H2X  435   5.406   4.219  10.505 -1.8509  1.8281  0.1919
    4SAPS   H2Y  436   5.324   4.077  10.575 -1.0860 -1.6773  0.1425
    4SAPS   C23  437   5.825   3.467  10.090 -0.3027  0.4651 -0.6846
    4SAPS   H3R  438   5.745   3.399  10.125  0.7533  0.8550  2.8534
    4SAPS   H3S  439   5.920   3.409  10.088  0.3788  1.2087  2.9761
    4SAPS   C24  440   5.793   3.514   9.947 -0.3822 -0.4994 -0.1838
    4SAPS   H4R  441   5.876   3.562   9.892  0.5299 -1.6183  0.1885
    4SAPS   H4S  442   5.711   3.588   9.958 -0.0221 -0.2924  1.4388
    4SAPS   C25  443   5.749   3.402   9.858 -1.4755 -0.4651  0.4959
    4SAPS   H5R  444   5.765   3.295   9.882 -1.3215 -0.7838 -0.9074
    4SAPS   C26  445   5.682   3.418   9.740 -0.9321 -0.3214  0.3438
    4SAPS   H6R  446   5.662   3.331   9.676 -0.9234 -0.1389  0.0908
    4SAPS   C27  447   5.648   3.547   9.673  0.0222  0.4308  0.0866
    4SAPS   H7R  448   5.734   3.607   9.637  0.9649 -0.5037  0.7435
    4SAPS   H7S  449   5.587   3.611   9.741 -0.8579  0.5246 -0.7626
    4SAPS   C28  450   5.570   3.517   9.561  0.9046  0.3165  0.8826
    4SAPS   H8R  451   5.469   3.482   9.588  0.1802  1.3144 -0.3600
    4SAPS   C29  452   5.613   3.510   9.433 -0.0299 -0.4236  0.7021
    4SAPS   H9R  453   5.525   3.496   9.369  1.4521  3.5810 -2.6687
    4SAPS  C210  454   5.741   3.532   9.364  0.6733  0.6614  0.2018
    4SAPS  H10R  455   5.816   3.455   9.394  1.3083  1.6950  1.3342
    4SAPS  H10S  456   5.796   3.622   9.398  1.7541 -0.0037  0.2704
    4SAPS  C211  457   5.711   3.554   9.217 -0.1408 -0.4012  0.1196
    4SAPS  H11R  458   5.608   3.576   9.184  0.5286  1.3923 -0.9331
    4SAPS  C212  459   5.801   3.535   9.117 -0.6695 -0.6333 -0.0342
    4SAPS  H12R  460   5.771   3.560   9.015 -0.9378  1.1869  0.4517
    4SAPS  C213  461   5.946   3.481   9.128  0.2762 -0.2286 -0.5644
    4SAPS  H13R  462   5.958   3.406   9.047 -2.5435 -0.3202 -0.9990
    4SAPS  H13S  463   5.970   3.439   9.228  1.9320 -1.5113 -1.4471
    4SAPS  C214  464   6.048   3.588   9.100 -0.2086 -0.3811  0.9805
    4SAPS  H14R  465   6.092   3.636   9.189 -0.3050 -1.0011  1.3708
    4SAPS  C215  466   6.072   3.630   8.973  0.6973  0.3893  0.1715
    4SAPS  H15R  467   6.146   3.709   8.952  2.4686 -1.2529 -0.0439
    4SAPS  C216  468   6.012   3.567   8.843 -0.1282 -0.5639  0.6202
    4SAPS  H16R  469   5.946   3.644   8.800  0.7722 -0.7867 -1.2440
    4SAPS  H16S  470   5.963   3.467   8.850  0.5702 -0.9371  0.3212
    4SAPS  C217  471   6.118   3.555   8.727  0.5395  0.6781  0.8914
    4SAPS  H17R  472   6.060   3.507   8.645  2.4623 -0.1577 -0.0449
    4SAPS  H17S  473   6.188   3.471   8.750 -1.0662 -1.5348 -1.6165
    4SAPS  C218  474   6.180   3.683   8.670  0.1037 -0.0137  0.1025
    4SAPS  H18R  475   6.248   3.736   8.739  2.8701  1.4021 -3.3926
    4SAPS  H18S  476   6.103   3.756   8.639 -1.3593 -0.5524  2.2529
    4SAPS  C219  477   6.271   3.643   8.548  0.1108  0.3189 -1.2964
    4SAPS  H19R  478   6.354   3.577   8.582 -0.2186  0.2118 -0.6667
    4SAPS  H19S  479   6.329   3.736   8.531  2.2555 -0.1683  2.2293
    4SAPS  C220  480   6.200   3.593   8.427 -0.0224  0.2695 -0.8027
    4SAPS  H20R  481   6.261   3.581   8.335 -0.3303 -0.5909 -0.9058
    4SAPS  H20S  482   6.116   3.660   8.396  0.8412  3.9235  3.7170
    4SAPS  H20T  483   6.149   3.495   8.442  0.4781  0.2317  0.8287
    4SAPS   C33  484   5.197   4.170  10.425 -0.6633 -0.0038  0.4176
    4SAPS   H3X  485   5.137   4.225  10.501 -1.6918  0.1149 -0.4716
    4SAPS   H3Y  486   5.141   4.075  10.416  0.7540 -0.9253  0.9773
    4SAPS   C34  487   5.198   4.256  10.299 -0.2446  0.2887 -0.6518
    4SAPS   H4X  488   5.282   4.224  10.234  0.9134 -0.9015  1.3314
    4SAPS   H4Y  489   5.225   4.362  10.318  1.8991  0.0143 -1.9298
    4SAPS   C35  490   5.070   4.258  10.216 -0.5704 -0.4466 -0.3470
    4SAPS   H5X  491   4.990   4.310  10.273 -0.2486  2.0289 -1.9994
    4SAPS   H5Y  492   5.033   4.154  10.201 -1.3904 -0.5344  1.8087
    4SAPS   C36  493   5.082   4.312  10.073 -0.0001 -0.4643  0.0801
    4SAPS   H6X  494   5.138   4.233  10.019 -0.3406 -0.0251 -0.9568
    4SAPS   H6Y  495   5.129   4.412  10.087  0.4806 -0.8404  1.2263
    4SAPS   C37  496   4.953   4.331   9.994  0.4082  0.3631 -1.2335
    4SAPS   H7X  497   4.892   4.414  10.036 -2.0149 -2.1803  0.6258
    4SAPS   H7Y  498   4.892   4.238   9.999  0.6740  0.1464 -1.8993
    4SAPS   C38  499   4.990   4.360   9.846 -0.2879  0.3969 -0.5632
    4SAPS   H8X  500   5.057   4.284   9.800 -1.8941 -1.9281  0.6857
    4SAPS   H8Y  501   5.046   4.455   9.833 -1.5710  0.8574 -3.6985
    4SAPS   C39  502   4.865   4.361   9.751  0.4848 -0.3347 -0.3093
    4SAPS   H9X  503   4.774   4.398   9.803 -0.1363 -1.1563 -0.7851
    4SAPS   H9Y  504   4.833   4.256   9.736  1.2758 -1.0289  2.3350
    4SAPS  C310  505   4.892   4.426   9.618  0.0592 -0.3866  0.4180
    4SAPS  H10X  506   4.983   4.374   9.581 -1.2002 -1.7363 -0.9430
    4SAPS  H10Y  507   4.918   4.533   9.630 -1.0976 -0.0432 -0.0004
    4SAPS  C311  508   4.778   4.419   9.515 -0.6017  0.4729  0.2976
    4SAPS  H11X  509   4.818   4.462   9.420  1.6752 -0.3194  0.8447
    4SAPS  H11Y  510   4.691   4.475   9.555 -1.3848 -1.0569  0.8194
    4SAPS  C312  511   4.730   4.283   9.476  0.6972 -0.3000 -0.7166
    4SAPS  H12X  512   4.727   4.217   9.565 -0.6637 -0.0943 -0.5900
    4SAPS  H12Y  513   4.792   4.236   9.396  0.8961 -2.2843  0.5406
    4SAPS  C313  514   4.583   4.299   9.427 -0.0498 -0.0367  0.0618
    4SAPS  H13X  515   4.522   4.353   9.502  1.6604 -1.2875  2.4950
    4SAPS  H13Y  516   4.536   4.200   9.406  1.3486 -1.0589  1.4687
    4SAPS  C314  517   4.564   4.378   9.288 -0.0905 -0.5440  0.1045
    4SAPS  H14X  518   4.629   4.341   9.206 -0.7580 -0.9316 -0.2570
    4SAPS  H14Y  519   4.598   4.483   9.303 -1.9565  0.3596 -1.4752
    4SAPS  C315  520   4.417   4.372   9.250 -0.5523  0.2485  0.1585
    4SAPS  H15X  521   4.365   4.416   9.338 -0.3617 -0.4298  0.6188
    4SAPS  H15Y  522   4.377   4.268   9.248  0.1095 -0.0235  0.6761
    4SAPS  C316  523   4.367   4.446   9.120  0.1490  0.5387 -0.8092
    4SAPS  H16X  524   4.409   4.386   9.037  0.7849  0.9981 -0.8281
    4SAPS  H16Y  525   4.404   4.550   9.105 -0.7242  0.9298 -0.3540
    4SAPS  C317  526   4.216   4.465   9.113  0.1839  0.2825 -0.1268
    4SAPS  H17X  527   4.167   4.510   9.202 -2.9938 -1.8691 -0.6273
    4SAPS  H17Y  528   4.170   4.364   9.113 -1.1250  0.8424 -1.4283
    4SAPS  C318  529   4.177   4.532   8.977 -0.5027  0.2663 -0.3793
    4SAPS  H18X  530   4.071   4.563   8.971 -0.6783 -0.3265 -0.3683
    4SAPS  H18Y  531   4.223   4.466   8.901  1.5474 -0.3222  1.2513
    4SAPS  H18Z  532   4.229   4.631   8.978  0.3597  0.0741  4.8956
    5SAPS     N  533   2.501   2.721  10.876  0.6957  0.1920  0.3943
    5SAPS   HN1  534   2.428   2.665  10.827 -1.3331  1.6083  1.6499
    5SAPS   HN2  535   2.533   2.792  10.808 -1.9321 -0.3797 -1.5842
    5SAPS   HN3  536   2.586   2.671  10.910  0.9961  0.1609 -0.3871
    5SAPS   C12  537   2.441   2.800  10.991  0.6355 -0.3686 -0.2212
    5SAPS  H12A  538   2.415   2.733  11.071 -2.3293 -0.6069 -1.2742
    5SAPS   C13  539   2.530   2.907  11.046 -0.1778 -0.2352 -0.6686
    5SAPS  O13A  540   2.647   2.918  10.997  0.0649 -0.0723  0.9920
    5SAPS  O13B  541   2.491   2.982  11.142  0.0081 -0.1018  0.2499
    5SAPS   C11  542   2.301   2.849  10.948 -0.7562  0.0094 -0.4796
    5SAPS  H11A  543   2.330   2.919  10.867  2.2634 -1.2978 -0.6699
    5SAPS  H11B  544   2.247   2.906  11.026  1.9678  0.7613  0.9809
    5SAPS     P  545   2.134   2.757  10.761  0.5580  0.1224 -0.0229
    5SAPS   O13  546   2.045   2.640  10.760 -0.1345 -0.2527 -0.2078
    5SAPS   O14  547   2.074   2.887  10.772 -0.2755  0.1675  0.5663
    5SAPS   O12  548   2.235   2.740  10.884  0.1167 -0.4777 -0.0729
    5SAPS   O11  549   2.235   2.745  10.639 -0.6835 -0.1947 -0.5151
    5SAPS    C1  550   2.287   2.617  10.592  0.1305  0.2053  0.2046
    5SAPS    HA  551   2.392   2.604  10.625 -0.0601  1.9753  1.7085
    5SAPS    HB  552   2.222   2.536  10.632  1.7801 -0.4574  1.6555
    5SAPS    C2  553   2.291   2.611  10.441 -0.2889  0.0627  0.2163
    5SAPS    HS  554   2.317   2.509  10.407 -0.7173 -0.5638  1.6830
    5SAPS   O21  555   2.376   2.707  10.383  0.0287  0.1521 -0.1802
    5SAPS   C21  556   2.506   2.684  10.409  0.4037  0.1862 -0.5622
    5SAPS   O22  557   2.546   2.586  10.476 -0.1971  0.2808 -0.6981
    5SAPS   C22  558   2.592   2.781  10.331  0.0055  0.4623 -0.3489
    5SAPS   H2R  559   2.526   2.832  10.258  0.5432 -0.3927 -1.4626
    5SAPS   H2S  560   2.634   2.867  10.387  0.7442 -0.2759  0.2577
    5SAPS    C3  561   2.146   2.643  10.380 -0.1623 -0.2701 -0.0858
    5SAPS    HX  562   2.126   2.743  10.424  1.2526  0.3161 -0.7064
    5SAPS    HY  563   2.071   2.572  10.422  0.5766 -0.4410  0.9862
    5SAPS   O31  564   2.138   2.628  10.234 -0.9101  0.2099  0.2631
    5SAPS   C31  565   2.066   2.728  10.173  0.5004  0.3097  0.6474
    5SAPS   O32  566   1.985   2.791  10.237  0.7576 -0.3568  0.0160
    5SAPS   C32  567   2.105   2.731  10.025  0.1182  0.2216 -0.4918
    5SAPS   H2X  568   2.089   2.629   9.983 -0.0083 -0.0044  0.1017
    5SAPS   H2Y  569   2.212   2.760  10.026 -0.1171  1.5291  3.7723
    5SAPS   C23  570   2.704   2.703  10.270 -0.1070 -0.0661  0.3179
    5SAPS   H3R  571   2.755   2.629  10.336 -0.0840  0.5857  1.0493
    5SAPS   H3S  572   2.792   2.768  10.253 -0.2452  0.2588  0.8286
    5SAPS   C24  573   2.676   2.635  10.134 -0.5015  0.1505 -0.7809
    5SAPS   H4R  574   2.599   2.561  10.164 -1.4900  2.1515  2.0962
    5SAPS   H4S  575   2.769   2.582  10.106 -2.6610 -4.3055 -0.4075
    5SAPS   C25  576   2.634   2.736  10.029  0.5749 -1.0142 -0.4768
    5SAPS   H5R  577   2.534   2.778  10.044  0.9466  0.7755 -2.5525
    5SAPS   C26  578   2.693   2.762   9.913 -0.1285 -0.2038 -0.3286
    5SAPS   H6R  579   2.653   2.847   9.855  0.5924  0.4387  0.0899
    5SAPS   C27  580   2.822   2.702   9.867 -0.6951  0.9500 -0.3105
    5SAPS   H7R  581   2.798   2.597   9.840 -0.4307  0.8642 -0.2064
    5SAPS   H7S  582   2.894   2.699   9.952 -1.1483 -2.4796  0.0603
    5SAPS   C28  583   2.883   2.772   9.747 -0.0509  0.0595  0.1265
    5SAPS   H8R  584   2.972   2.832   9.768  0.1443  0.8414 -2.5423
    5SAPS   C29  585   2.846   2.752   9.616 -0.5694 -0.1493  0.2165
    5SAPS   H9R  586   2.907   2.807   9.543  0.7051 -0.2365  1.1938
    5SAPS  C210  587   2.731   2.667   9.571 -0.4478  0.2648  0.4583
    5SAPS  H10R  588   2.635   2.688   9.623 -0.4922  2.2602 -0.3520
    5SAPS  H10S  589   2.749   2.564   9.609  1.8120 -0.1086 -1.3883
    5SAPS  C211  590   2.707   2.661   9.420 -0.1911  0.3089 -0.2069
    5SAPS  H11R  591   2.794   2.627   9.363  2.6291  0.4349  3.6397
    5SAPS  C212  592   2.607   2.701   9.347  0.4936 -1.2301 -0.2171
    5SAPS  H12R  593   2.603   2.677   9.240  1.9420 -0.2219 -0.5191
    5SAPS  C213  594   2.479   2.764   9.396  0.6229  0.1027 -0.0243
    5SAPS  H13R  595   2.482   2.875   9.404  2.3214  0.1273 -0.4313
    5SAPS  H13S  596   2.455   2.724   9.497  0.7953  0.6266  0.2305
    5SAPS  C214  597   2.370   2.733   9.291  0.1622  0.5849  0.0786
    5SAPS  H14R  598   2.356   2.624   9.280 -1.4438  0.6311  1.3193
    5SAPS  C215  599   2.297   2.822   9.222 -0.0968  0.3043  0.0058
    5SAPS  H15R  600   2.220   2.792   9.149  0.5207 -1.1821 -0.0744
    5SAPS  C216  601   2.296   2.974   9.236 -1.0672 -0.2746  0.2262
    5SAPS  H16R  602   2.281   2.989   9.345 -0.5038  0.6084  0.1895
    5SAPS  H16S  603   2.207   3.027   9.196 -2.0938 -2.2764 -0.2848
    5SAPS  C217  604   2.417   3.059   9.192 -0.1004  0.7023  0.1004
    5SAPS  H17R  605   2.420   3.057   9.081 -2.3364 -1.0789  0.0033
    5SAPS  H17S  606   2.509   3.003   9.219 -0.9121 -0.7485 -0.0416
    5SAPS  C218  607   2.413   3.192   9.254  0.2328 -0.0068  0.1093
    5SAPS  H18R  608   2.314   3.239   9.233  0.3030 -0.1133 -0.4707
    5SAPS  H18S  609   2.424   3.185   9.365  1.9494  0.6621  0.0076
    5SAPS  C219  610   2.519   3.288   9.200  0.3945 -0.1396  0.5568
    5SAPS  H19R  611   2.610   3.225   9.209 -0.2529 -0.9449  1.7983
    5SAPS  H19S  612   2.529   3.374   9.270  0.1201 -0.8330  1.4791
    5SAPS  C220  613   2.505   3.349   9.055  0.3416 -0.0742  0.1448
    5SAPS  H20R  614   2.601   3.399   9.032  0.6298 -0.6629  0.0462
    5SAPS  H20S  615   2.426   3.427   9.059  0.0410 -0.2683 -1.3569
    5SAPS  H20T  616   2.484   3.270   8.980 -1.2277  1.0952 -0.7011
    5SAPS   C33  617   2.005   2.817   9.947  0.6500 -0.3626  0.0936
    5SAPS   H3X  618   2.026   2.925   9.959 -0.8925  0.5963 -4.2690
    5SAPS   H3Y  619   1.906   2.793   9.990 -0.2645  0.9974 -1.1703
    5SAPS   C34  620   1.997   2.783   9.793  0.2677 -0.0583 -0.0538
    5SAPS   H4X  621   1.913   2.846   9.756  0.7214  0.0130 -0.9857
    5SAPS   H4Y  622   1.973   2.676   9.772  3.8555 -1.3122  1.4798
    5SAPS   C35  623   2.114   2.826   9.711 -0.3585  0.3205  0.2281
    5SAPS   H5X  624   2.204   2.800   9.770 -1.1340  0.1659  1.3591
    5SAPS   H5Y  625   2.107   2.937   9.700  0.1463  0.3989  0.6780
    5SAPS   C36  626   2.119   2.750   9.578  0.2985  0.1161 -0.7346
    5SAPS   H6X  627   2.129   2.641   9.593 -1.5789 -0.0950 -0.7924
    5SAPS   H6Y  628   2.203   2.791   9.517 -0.6664  1.9611 -0.8954
    5SAPS   C37  629   2.004   2.777   9.482  0.1805 -0.0621 -0.3574
    5SAPS   H7X  630   1.912   2.735   9.527  0.4699 -0.6455 -0.3113
    5SAPS   H7Y  631   2.017   2.721   9.387  0.5267 -2.0235  0.7964
    5SAPS   C38  632   1.978   2.926   9.446  0.4244 -0.4443  0.3560
    5SAPS   H8X  633   2.074   2.980   9.434 -0.4481  0.8211 -1.3205
    5SAPS   H8Y  634   1.923   2.973   9.531 -1.1988  0.6773 -1.2577
    5SAPS   C39  635   1.910   2.930   9.318 -0.0725  0.0572 -0.2201
    5SAPS   H9X  636   1.822   2.863   9.327  0.8850 -0.9356  3.3526
    5SAPS   H9Y  637   1.972   2.886   9.237  0.8135  1.4459 -0.3276
    5SAPS  C310  638   1.873   3.072   9.268 -0.1656  0.4757 -0.7397
    5SAPS  H10X  639   1.975   3.108   9.243  1.0014 -1.2335  1.1769
    5SAPS  H10Y  640   1.840   3.138   9.352  2.2469  1.4211 -0.4373
    5SAPS  C311  641   1.774   3.079   9.150 -0.3802 -0.7314 -0.2855
    5SAPS  H11X  642   1.674   3.045   9.184  0.4461 -1.7411  1.2252
    5SAPS  H11Y  643   1.815   3.018   9.066 -0.6812 -0.6783 -0.4748
    5SAPS  C312  644   1.750   3.221   9.089  0.2040 -0.5596 -0.5044
    5SAPS  H12X  645   1.842   3.252   9.036 -0.2801  1.6118 -0.1644
    5SAPS  H12Y  646   1.740   3.287   9.178 -0.7019 -4.1127  2.2962
    5SAPS  C313  647   1.623   3.212   8.997 -0.2068 -0.7064  0.2958
    5SAPS  H13X  648   1.537   3.193   9.065  0.1017 -1.3165  0.5224
    5SAPS  H13Y  649   1.637   3.136   8.917 -0.5450 -1.1424  0.6483
    5SAPS  C314  650   1.579   3.353   8.950 -0.0690  0.8759  0.8450
    5SAPS  H14X  651   1.578   3.422   9.037 -0.3881  2.2286 -0.2018
    5SAPS  H14Y  652   1.472   3.350   8.923 -0.3622 -0.7993  2.0086
    5SAPS  C315  653   1.672   3.395   8.835  0.1795 -0.1344 -0.2809
    5SAPS  H15X  654   1.676   3.303   8.773  2.7086 -0.8289  0.8000
    5SAPS  H15Y  655   1.774   3.412   8.874  0.1141  0.7168 -0.4619
    5SAPS  C316  656   1.629   3.509   8.744 -0.3902 -0.0821 -0.0123
    5SAPS  H16X  657   1.614   3.600   8.806  1.6753  0.6729 -0.5327
    5SAPS  H16Y  658   1.522   3.490   8.718 -0.7918  2.7581 -0.8696
    5SAPS  C317  659   1.726   3.543   8.635  0.1472 -0.0065  0.1330
    5SAPS  H17X  660   1.731   3.467   8.554 -0.1981 -0.3589  0.4403
    5SAPS  H17Y  661   1.831   3.559   8.666  0.2524 -0.9343  0.2814
    5SAPS  C318  662   1.683   3.680   8.571 -0.0817  1.0629  0.1344
    5SAPS  H18X  663   1.724   3.696   8.469 -0.7492 -0.8306 -0.4795
    5SAPS  H18Y  664   1.707   3.761   8.642  1.6969  0.8756 -0.1876
    5SAPS  H18Z  665   1.572   3.681   8.570 -0.1360 -0.6400  0.5590
    6SAPS     N  666   2.446   2.032  11.108 -0.5520  0.3538  0.0311
    6SAPS   HN1  667   2.407   2.101  11.176 -0.7154 -0.4877  0.8156
    6SAPS   HN2  668   2.364   1.982  11.069 -0.5151  0.5012 -0.2402
    6SAPS   HN3  669   2.501   1.967  11.167  0.3975  0.9123 -0.2260
    6SAPS   C12  670   2.532   2.090  11.001  0.0177  0.8241 -0.3844
    6SAPS  H12A  671   2.485   2.177  10.958  0.5201  0.9346 -0.7279
    6SAPS   C13  672   2.669   2.135  11.048 -0.4295 -0.4219  0.5340
    6SAPS  O13A  673   2.714   2.124  11.167 -0.4258 -0.7742  0.2827
    6SAPS  O13B  674   2.732   2.204  10.964  0.0657 -0.3795 -0.0284
    6SAPS   C11  675   2.546   1.986  10.885  0.3594 -0.8874 -0.2800
    6SAPS  H11A  676   2.590   1.893  10.927 -0.3562 -1.1242 -0.0421
    6SAPS  H11B  677   2.604   2.030  10.801 -1.4121  0.7268 -0.7353
    6SAPS     P  678   2.429   1.865  10.696 -0.1094 -0.1181 -0.1200
    6SAPS   O13  679   2.507   1.744  10.726 -0.2291 -0.2022 -0.2999
    6SAPS   O14  680   2.295   1.859  10.634  0.0245 -0.4663 -0.3417
    6SAPS   O12  681   2.416   1.946  10.834  0.1291 -0.1466  0.1196
    6SAPS   O11  682   2.525   1.955  10.599 -0.6612 -0.4402  0.0345
    6SAPS    C1  683   2.483   2.091  10.564  0.6522 -0.2506 -0.5599
    6SAPS    HA  684   2.386   2.124  10.606  0.6218 -0.5567 -0.3870
    6SAPS    HB  685   2.559   2.165  10.599 -0.2053  0.6472 -0.5389
    6SAPS    C2  686   2.463   2.107  10.410  0.2823 -0.0054  0.1774
    6SAPS    HS  687   2.373   2.046  10.386  0.2600  0.1683 -0.1744
    6SAPS   O21  688   2.580   2.063  10.346 -0.3001  0.1853 -0.5047
    6SAPS   C21  689   2.577   1.953  10.278  0.2480 -0.9071 -0.8972
    6SAPS   O22  690   2.489   1.865  10.295 -0.2005  0.1365  0.1349
    6SAPS   C22  691   2.691   1.943  10.181  0.8632 -0.6119 -0.1680
    6SAPS   H2R  692   2.643   1.996  10.096 -2.2810 -1.4441  0.9792
    6SAPS   H2S  693   2.772   2.005  10.225 -1.4761  1.7724  1.0062
    6SAPS    C3  694   2.437   2.257  10.378 -0.7609  1.0956  0.2032
    6SAPS    HX  695   2.535   2.304  10.403 -0.7236  1.1418 -0.0326
    6SAPS    HY  696   2.364   2.310  10.443 -2.3353 -0.3618 -0.3248
    6SAPS   O31  697   2.415   2.270  10.238  0.6145  0.1212 -0.2772
    6SAPS   C31  698   2.288   2.260  10.202 -0.4369 -0.7740  0.6873
    6SAPS   O32  699   2.193   2.243  10.277  0.2651  0.0549  0.2689
    6SAPS   C32  700   2.280   2.270  10.043  0.9283  0.5464  1.0741
    6SAPS   H2X  701   2.312   2.170  10.006 -0.9024  0.3326 -0.1071
    6SAPS   H2Y  702   2.352   2.348  10.012 -0.1349  0.6677 -1.3322
    6SAPS   C23  703   2.725   1.803  10.134  0.7989 -0.0952 -0.9796
    6SAPS   H3R  704   2.643   1.759  10.072  0.8336  1.0711 -1.8881
    6SAPS   H3S  705   2.742   1.735  10.220  0.5757 -0.9580 -1.6064
    6SAPS   C24  706   2.859   1.802  10.057  0.8282 -0.1640  0.2439
    6SAPS   H4R  707   2.934   1.829  10.134  1.6232  0.3564 -0.7060
    6SAPS   H4S  708   2.856   1.882   9.980 -3.2842  1.2941  1.6324
    6SAPS   C25  709   2.906   1.662  10.011  0.7845  1.4524 -0.2796
    6SAPS   H5R  710   2.958   1.602  10.087 -0.3886  0.5201 -0.1874
    6SAPS   C26  711   2.890   1.612   9.886  0.3510 -0.2961  0.3794
    6SAPS   H6R  712   2.917   1.509   9.857  0.1030  0.0291 -1.1345
    6SAPS   C27  713   2.815   1.689   9.782 -0.4854 -0.4034 -0.3966
    6SAPS   H7R  714   2.782   1.784   9.830 -0.1100 -1.7251  2.7218
    6SAPS   H7S  715   2.713   1.648   9.767 -1.6476  2.4043 -0.7202
    6SAPS   C28  716   2.892   1.723   9.659  0.4363 -0.4578  0.0323
    6SAPS   H8R  717   2.948   1.817   9.672 -1.1794  0.7732 -1.4871
    6SAPS   C29  718   2.881   1.662   9.539 -0.4567 -0.0072  0.0928
    6SAPS   H9R  719   2.936   1.709   9.456 -1.7901  0.5928 -0.4841
    6SAPS  C210  720   2.791   1.541   9.517 -0.5666 -0.2179  0.4850
    6SAPS  H10R  721   2.692   1.579   9.485 -0.6545 -1.3313 -0.6459
    6SAPS  H10S  722   2.785   1.473   9.605 -2.4535 -1.0381 -0.2328
    6SAPS  C211  723   2.849   1.451   9.411  0.2615 -0.3329  0.7116
    6SAPS  H11R  724   2.918   1.374   9.449 -1.1380 -2.0395 -0.0820
    6SAPS  C212  725   2.830   1.461   9.283  0.0350 -0.4913 -0.4682
    6SAPS  H12R  726   2.884   1.392   9.217  2.3583  2.1670 -1.5155
    6SAPS  C213  727   2.758   1.564   9.203 -0.4464 -0.3822  0.1414
    6SAPS  H13R  728   2.726   1.645   9.272 -0.5280 -0.0170 -0.3234
    6SAPS  H13S  729   2.660   1.532   9.163 -0.2229 -1.7641  0.6249
    6SAPS  C214  730   2.850   1.622   9.098  0.1784 -0.3155 -0.0641
    6SAPS  H14R  731   2.922   1.692   9.144 -0.0371 -1.0218  1.4129
    6SAPS  C215  732   2.842   1.600   8.966  0.5703  0.1530 -0.5862
    6SAPS  H15R  733   2.902   1.660   8.896 -2.5707  0.2375 -3.4923
    6SAPS  C216  734   2.740   1.508   8.892  0.3295 -0.1171  0.3231
    6SAPS  H16R  735   2.678   1.565   8.818 -0.0080 -1.1533 -0.2170
    6SAPS  H16S  736   2.660   1.468   8.958 -0.0030 -0.2044 -0.1254
    6SAPS  C217  737   2.817   1.389   8.829  0.2382  0.8321 -0.2058
    6SAPS  H17R  738   2.908   1.420   8.773  0.1744 -0.0184 -0.8024
    6SAPS  H17S  739   2.740   1.342   8.764 -0.5391 -0.8325  1.8289
    6SAPS  C218  740   2.854   1.283   8.934 -0.2938  0.1002  0.1776
    6SAPS  H18R  741   2.767   1.264   8.999 -0.1192  0.2150  0.4478
    6SAPS  H18S  742   2.927   1.330   9.003 -1.5886 -0.0476  1.7050
    6SAPS  C219  743   2.922   1.155   8.876 -0.2705  0.1400  0.4190
    6SAPS  H19R  744   2.958   1.103   8.967  1.0343 -0.0255 -0.1562
    6SAPS  H19S  745   3.012   1.163   8.812 -1.4340 -0.2899 -1.3464
    6SAPS  C220  746   2.823   1.055   8.809  0.2305 -0.4995  0.1577
    6SAPS  H20R  747   2.792   1.102   8.714  0.7664 -0.7154 -0.1303
    6SAPS  H20S  748   2.745   1.027   8.883 -0.7639 -1.2994 -1.1517
    6SAPS  H20T  749   2.878   0.962   8.781  1.3231 -0.0971  0.9030
    6SAPS   C33  750   2.144   2.300   9.978  0.3590 -0.0011  0.6184
    6SAPS   H3X  751   2.077   2.375  10.025 -0.1091 -0.6084  0.9343
    6SAPS   H3Y  752   2.096   2.200   9.970  1.7067 -0.5732 -0.7828
    6SAPS   C34  753   2.160   2.356   9.830  0.0877  0.6187 -0.6226
    6SAPS   H4X  754   2.213   2.453   9.841 -3.8567  2.8719  0.5326
    6SAPS   H4Y  755   2.058   2.370   9.789 -0.8789  2.1715  2.0272
    6SAPS   C35  756   2.243   2.264   9.736 -0.1573 -0.4605  0.1980
    6SAPS   H5X  757   2.180   2.174   9.722 -0.8081 -0.1504  1.0797
    6SAPS   H5Y  758   2.333   2.235   9.794 -0.9701  0.0327  1.7445
    6SAPS   C36  759   2.285   2.325   9.604  0.0317 -0.1028 -0.3279
    6SAPS   H6X  760   2.374   2.392   9.609  1.2599 -1.6205 -0.8612
    6SAPS   H6Y  761   2.201   2.386   9.567 -0.9042 -0.4093  1.2137
    6SAPS   C37  762   2.298   2.227   9.486 -1.1445 -0.0280  0.7412
    6SAPS   H7X  763   2.201   2.179   9.461 -0.7234 -1.5354  1.8530
    6SAPS   H7Y  764   2.372   2.149   9.515  0.3294  1.0177 -0.0218
    6SAPS   C38  765   2.336   2.297   9.355  0.5470 -0.1200 -0.3329
    6SAPS   H8X  766   2.432   2.351   9.367  0.8846 -1.0779  1.8254
    6SAPS   H8Y  767   2.248   2.365   9.351  0.2138 -0.0908  3.4382
    6SAPS   C39  768   2.356   2.202   9.242  0.2127 -0.2257  0.1308
    6SAPS   H9X  769   2.261   2.145   9.233 -0.8151  1.1396  1.6203
    6SAPS   H9Y  770   2.441   2.135   9.264 -0.8048 -1.3633  0.7009
    6SAPS  C310  771   2.390   2.277   9.112 -0.5404  0.4371 -0.1441
    6SAPS  H10X  772   2.467   2.216   9.059  0.1875  1.8723 -0.8072
    6SAPS  H10Y  773   2.449   2.362   9.152  0.0820 -0.7908  1.6983
    6SAPS  C311  774   2.281   2.339   9.023 -0.7606  0.3541  0.7439
    6SAPS  H11X  775   2.229   2.413   9.087  2.9512  2.1095  1.9986
    6SAPS  H11Y  776   2.210   2.260   8.992 -1.0390  0.5245  0.9464
    6SAPS  C312  777   2.340   2.416   8.903  0.5728  0.3684 -0.6179
    6SAPS  H12X  778   2.260   2.468   8.845  2.0571  4.7376  0.8110
    6SAPS  H12Y  779   2.401   2.346   8.842  1.5087  0.1723  0.5049
    6SAPS  C313  780   2.434   2.535   8.937 -0.0637  0.2255 -0.4538
    6SAPS  H13X  781   2.524   2.504   8.996  1.8588  3.0759 -1.6653
    6SAPS  H13Y  782   2.379   2.616   8.988 -1.5468  0.4976 -2.3802
    6SAPS  C314  783   2.495   2.575   8.801 -0.0394  0.0756 -0.0212
    6SAPS  H14X  784   2.416   2.592   8.725 -0.5319  0.9387  0.6662
    6SAPS  H14Y  785   2.570   2.504   8.760 -2.5542 -2.2781 -0.8055
    6SAPS  C315  786   2.586   2.704   8.812  0.6913 -0.4011  0.8964
    6SAPS  H15X  787   2.521   2.794   8.819  0.0255 -0.7659 -0.3458
    6SAPS  H15Y  788   2.642   2.717   8.717 -0.6399  0.5816  0.2052
    6SAPS  C316  789   2.684   2.705   8.931 -0.0669 -0.7938  0.4432
    6SAPS  H16X  790   2.726   2.602   8.939  0.9295 -0.5419 -1.0417
    6SAPS  H16Y  791   2.641   2.734   9.029  0.2567  2.3993 -0.2475
    6SAPS  C317  792   2.816   2.771   8.902 -0.0891 -0.7161 -0.4083
    6SAPS  H17X  793   2.782   2.877   8.901  1.2907 -0.1859  1.7381
    6SAPS  H17Y  794   2.845   2.743   8.799  1.4430 -2.6552  0.5038
    6SAPS  C318  795   2.920   2.749   9.015  0.0217  0.4174  1.3993
    6SAPS  H18X  796   2.985   2.840   9.007 -0.8251  0.9042 -0.3062
    6SAPS  H18Y  797   2.987   2.663   8.993  1.1265  1.7183 -0.7473
    6SAPS  H18Z  798   2.867   2.731   9.111  0.3392 -1.9867  1.1824
    7SAPS     N  799   4.270   1.432  10.974  0.1734 -0.9149  0.4323
    7SAPS   HN1  800   4.335   1.465  11.049  1.8460 -2.0226 -0.4732
    7SAPS   HN2  801   4.252   1.508  10.906 -1.5104  0.4034  2.2448
    7SAPS   HN3  802   4.179   1.409  11.017 -0.7970 -1.1158 -1.6338
    7SAPS   C12  803   4.333   1.315  10.907 -1.0686 -0.4578 -0.4067
    7SAPS  H12A  804   4.420   1.353  10.854 -2.4705  1.8125 -1.2239
    7SAPS   C13  805   4.372   1.195  11.000  0.1857 -0.4715  0.5629
    7SAPS  O13A  806   4.333   1.199  11.121 -0.0094  0.9081  0.3934
    7SAPS  O13B  807   4.420   1.095  10.942  0.2538  0.1403  0.0358
    7SAPS   C11  808   4.236   1.267  10.792 -0.0297 -0.0871 -0.1851
    7SAPS  H11A  809   4.135   1.254  10.835 -0.2038  0.3362 -0.4653
    7SAPS  H11B  810   4.282   1.171  10.761  1.3761  1.1054 -2.0207
    7SAPS     P  811   4.203   1.318  10.548 -0.2071  0.4080 -0.0804
    7SAPS   O13  812   4.316   1.238  10.504  0.0962  0.6394  0.7350
    7SAPS   O14  813   4.073   1.250  10.555  0.9302  0.1832  0.2947
    7SAPS   O12  814   4.229   1.364  10.693  0.3615  0.0452  0.1255
    7SAPS   O11  815   4.173   1.443  10.462  0.3607 -0.2250 -0.1740
    7SAPS    C1  816   4.255   1.563  10.483  0.1053  0.2441 -0.6414
    7SAPS    HA  817   4.208   1.643  10.544  2.9347 -0.2620  2.4951
    7SAPS    HB  818   4.355   1.542  10.526 -0.8800  0.7782  2.0697
    7SAPS    C2  819   4.296   1.616  10.343  0.5779 -0.6301 -0.7696
    7SAPS    HS  820   4.357   1.706  10.365 -0.3550 -0.5685  1.9567
    7SAPS   O21  821   4.172   1.649  10.276 -0.1281 -0.4752  0.6215
    7SAPS   C21  822   4.182   1.744  10.188 -0.1239 -0.4496 -0.4679
    7SAPS   O22  823   4.282   1.809  10.173 -0.2499 -0.0054 -0.0247
    7SAPS   C22  824   4.050   1.766  10.117  0.2376  0.5769  0.2306
    7SAPS   H2R  825   3.991   1.672  10.116 -1.1401  1.3264  2.6342
    7SAPS   H2S  826   3.987   1.836  10.177  1.5519  4.0401 -2.0916
    7SAPS    C3  827   4.369   1.508  10.261 -0.3745 -0.6087 -0.0072
    7SAPS    HX  828   4.296   1.426  10.246 -1.2414 -0.5399  3.1598
    7SAPS    HY  829   4.460   1.461  10.305  0.7876  0.6725 -0.9638
    7SAPS   O31  830   4.402   1.554  10.128  0.0453  0.4434  0.4129
    7SAPS   C31  831   4.512   1.630  10.124 -0.0414 -0.6336  0.5992
    7SAPS   O32  832   4.584   1.660  10.216 -0.8274  0.1311 -0.7243
    7SAPS   C32  833   4.540   1.665   9.978 -0.0879  0.2425 -0.1906
    7SAPS   H2X  834   4.449   1.660   9.915 -0.6355  0.6461  0.5438
    7SAPS   H2Y  835   4.616   1.595   9.938  0.5466  1.9064 -2.0285
    7SAPS   C23  836   4.072   1.825   9.981 -0.3505 -0.0796 -1.0786
    7SAPS   H3R  837   4.139   1.914   9.981  0.0517 -0.1823  3.2377
    7SAPS   H3S  838   3.975   1.870   9.953 -0.6843  0.8775  1.3787
    7SAPS   C24  839   4.106   1.716   9.888 -0.1027  0.0872  0.7089
    7SAPS   H4R  840   4.029   1.638   9.908  0.8258 -1.3973 -1.1726
    7SAPS   H4S  841   4.204   1.674   9.918 -1.1029 -2.2179  0.9832
    7SAPS   C25  842   4.106   1.743   9.742 -0.0616 -0.0878  0.2413
    7SAPS   H5R  843   4.190   1.801   9.700 -0.4775 -0.9518 -1.9244
    7SAPS   C26  844   4.014   1.708   9.649  0.0862 -0.1955  0.5717
    7SAPS   H6R  845   4.036   1.732   9.544 -1.2190  1.7919  0.7009
    7SAPS   C27  846   3.885   1.631   9.674 -0.7815 -0.1086  0.0668
    7SAPS   H7R  847   3.894   1.543   9.741  0.1126 -0.0695  0.0123
    7SAPS   H7S  848   3.872   1.587   9.573  1.0978  1.3111 -0.8700
    7SAPS   C28  849   3.776   1.716   9.723  0.2654 -0.0284  0.6191
    7SAPS   H8R  850   3.795   1.761   9.821  0.2091  0.0404  0.5985
    7SAPS   C29  851   3.663   1.748   9.649  0.0876 -0.8775 -0.1365
    7SAPS   H9R  852   3.598   1.827   9.688  0.2218 -1.7492  1.9713
    7SAPS  C210  853   3.627   1.688   9.519 -0.3656  0.6286  0.2593
    7SAPS  H10R  854   3.558   1.602   9.533 -1.1118  1.5221  2.5627
    7SAPS  H10S  855   3.708   1.636   9.463 -0.8148 -1.7951  1.6794
    7SAPS  C211  856   3.554   1.787   9.424 -1.0682 -0.1391 -0.5265
    7SAPS  H11R  857   3.486   1.859   9.472  1.2516  1.1981  0.9561
    7SAPS  C212  858   3.562   1.804   9.298  0.1431 -0.3947  0.2777
    7SAPS  H12R  859   3.500   1.873   9.239 -0.3175  0.0525  1.2678
    7SAPS  C213  860   3.645   1.732   9.200 -0.9234 -0.1670 -0.2618
    7SAPS  H13R  861   3.584   1.682   9.122 -2.1928  3.1907 -1.5967
    7SAPS  H13S  862   3.699   1.650   9.252 -1.8014 -0.9546 -0.5804
    7SAPS  C214  863   3.734   1.837   9.132  0.2858 -0.0701 -0.4434
    7SAPS  H14R  864   3.701   1.883   9.038 -0.8354 -1.2410 -0.6473
    7SAPS  C215  865   3.865   1.866   9.174  0.3270 -0.0824  0.3419
    7SAPS  H15R  866   3.928   1.936   9.117 -0.6567 -0.6975 -1.5757
    7SAPS  C216  867   3.947   1.787   9.269 -0.0406 -0.1629 -0.7109
    7SAPS  H16R  868   3.909   1.683   9.278 -0.3917 -0.2411 -2.6413
    7SAPS  H16S  869   3.930   1.834   9.369 -2.9844 -0.3804 -1.0161
    7SAPS  C217  870   4.099   1.796   9.273 -0.8586  0.3527  0.3729
    7SAPS  H17R  871   4.137   1.743   9.183 -0.5171  1.5012 -0.1833
    7SAPS  H17S  872   4.136   1.732   9.356 -2.8950  1.5661  2.3130
    7SAPS  C218  873   4.154   1.941   9.277  0.0586 -0.3743 -1.0707
    7SAPS  H18R  874   4.083   2.002   9.336 -0.0778 -1.2898 -0.2643
    7SAPS  H18S  875   4.149   1.987   9.175 -0.5533  3.2222  0.4135
    7SAPS  C219  876   4.299   1.941   9.327  0.4791  0.3209  0.2863
    7SAPS  H19R  877   4.289   1.937   9.437  2.7904  1.0928  0.5866
    7SAPS  H19S  878   4.335   2.043   9.300 -2.3323  0.5163 -3.6498
    7SAPS  C220  879   4.390   1.831   9.277  1.1752  0.6104  0.1389
    7SAPS  H20R  880   4.372   1.809   9.169  0.9092  0.2259  0.2569
    7SAPS  H20S  881   4.361   1.736   9.328  1.8363  1.0717  1.4082
    7SAPS  H20T  882   4.499   1.845   9.295  1.1687 -0.6785  1.3230
    7SAPS   C33  883   4.598   1.803   9.963  0.2412  0.4489 -0.1465
    7SAPS   H3X  884   4.686   1.807  10.031  0.2055  0.2166 -0.0856
    7SAPS   H3Y  885   4.534   1.883  10.007 -0.0844  0.1389 -0.0486
    7SAPS   C34  886   4.640   1.818   9.819  0.2562 -0.1116 -0.3066
    7SAPS   H4X  887   4.546   1.842   9.764 -0.9589 -1.0399  1.2538
    7SAPS   H4Y  888   4.683   1.723   9.780 -1.3798 -0.3396 -1.7190
    7SAPS   C35  889   4.739   1.937   9.800  0.0954  0.8598  0.6380
    7SAPS   H5X  890   4.831   1.914   9.857 -0.7830 -1.9895  1.0427
    7SAPS   H5Y  891   4.676   2.020   9.840 -3.0416 -0.0930 -1.9320
    7SAPS   C36  892   4.765   1.965   9.652 -0.0396 -0.2319  0.0871
    7SAPS   H6X  893   4.825   1.882   9.611  0.3327  1.1476 -2.3640
    7SAPS   H6Y  894   4.830   2.055   9.649 -1.5361  0.9055  0.2124
    7SAPS   C37  895   4.633   2.004   9.572  0.0533  1.0359 -0.3859
    7SAPS   H7X  896   4.578   2.064   9.648  1.8305  0.1358  1.7172
    7SAPS   H7Y  897   4.579   1.909   9.554  1.1101  0.3020  0.2074
    7SAPS   C38  898   4.655   2.072   9.437  0.4802 -0.5200 -0.5882
    7SAPS   H8X  899   4.559   2.075   9.381 -0.3126 -0.0021  0.7262
    7SAPS   H8Y  900   4.729   2.010   9.383  1.3236  0.5695 -0.7277
    7SAPS   C39  901   4.704   2.220   9.437  0.1232  0.6976 -0.7697
    7SAPS   H9X  902   4.799   2.220   9.494 -0.0421 -1.4617 -0.4086
    7SAPS   H9Y  903   4.635   2.278   9.502 -0.5825 -1.9036  0.9666
    7SAPS  C310  904   4.731   2.278   9.293  0.3510  0.2331 -0.7380
    7SAPS  H10X  905   4.733   2.388   9.303  0.8394  0.1147  0.6739
    7SAPS  H10Y  906   4.655   2.249   9.217 -1.5624  2.2362  0.3048
    7SAPS  C311  907   4.872   2.265   9.242  0.1067  0.5791  0.5689
    7SAPS  H11X  908   4.887   2.160   9.209 -1.6340  0.7459 -0.9292
    7SAPS  H11Y  909   4.950   2.306   9.310  0.4152 -0.2929  0.7558
    7SAPS  C312  910   4.892   2.357   9.121 -0.4624  0.7717 -0.0185
    7SAPS  H12X  911   4.884   2.466   9.139  0.7561  0.7269  0.9588
    7SAPS  H12Y  912   4.814   2.327   9.048 -0.4248 -0.9615  0.6110
    7SAPS  C313  913   5.031   2.332   9.054  0.4569  0.3349 -0.1342
    7SAPS  H13X  914   5.010   2.233   9.009 -0.2124 -0.0660  1.0354
    7SAPS  H13Y  915   5.107   2.321   9.134  0.9363  3.4140 -0.0319
    7SAPS  C314  916   5.075   2.438   8.954  0.0139 -0.3649 -0.4464
    7SAPS  H14X  917   5.155   2.501   9.000  0.6845  1.3210 -3.6517
    7SAPS  H14Y  918   4.991   2.509   8.946  0.1645  0.5870  3.8291
    7SAPS  C315  919   5.144   2.390   8.824  0.1491 -0.6404  0.6054
    7SAPS  H15X  920   5.161   2.482   8.763 -0.6385  0.3921  1.8891
    7SAPS  H15Y  921   5.070   2.323   8.775  0.7802 -0.3949 -0.7287
    7SAPS  C316  922   5.276   2.325   8.850 -0.3253 -0.5007  0.3314
    7SAPS  H16X  923   5.302   2.272   8.755  1.3157  1.8072 -0.6022
    7SAPS  H16Y  924   5.283   2.239   8.920  0.1574 -0.4462  0.3562
    7SAPS  C317  925   5.384   2.425   8.874  0.0385 -0.1873  0.3251
    7SAPS  H17X  926   5.407   2.452   8.979  2.2814  2.3317 -0.7013
    7SAPS  H17Y  927   5.355   2.517   8.818 -1.6213 -1.5908 -1.2637
    7SAPS  C318  928   5.510   2.376   8.800  0.1298 -0.1625 -0.2670
    7SAPS  H18X  929   5.559   2.288   8.849  2.2152 -0.1149 -2.0679
    7SAPS  H18Y  930   5.588   2.456   8.800 -1.3071  1.3421  2.4986
    7SAPS  H18Z  931   5.481   2.358   8.694 -1.8686  0.6704  0.0997
    8SAPS     N  932   2.272   5.068  10.883  0.9725  0.8176  0.0314
    8SAPS   HN1  933   2.201   5.098  10.813  1.9152  0.1833 -1.2344
    8SAPS   HN2  934   2.367   5.091  10.846  1.0006  1.5514  0.5198
    8SAPS   HN3  935   2.259   4.965  10.889  0.6294  0.7809 -1.1426
    8SAPS   C12  936   2.263   5.145  11.003  0.4848 -0.5045 -0.4890
    8SAPS  H12A  937   2.161   5.161  11.035  0.5821  1.3081 -0.9554
    8SAPS   C13  938   2.340   5.080  11.129  0.0337 -0.5501  0.3652
    8SAPS  O13A  939   2.402   4.977  11.104 -0.5170  0.4594 -0.3301
    8SAPS  O13B  940   2.318   5.130  11.241  0.4304  0.3961  0.2426
    8SAPS   C11  941   2.304   5.298  10.979 -0.3714  0.4136 -0.1539
    8SAPS  H11A  942   2.414   5.305  10.970 -0.5360  1.6476 -1.5574
    8SAPS  H11B  943   2.280   5.351  11.074  1.6554 -0.0760  0.6756
    8SAPS     P  944   2.149   5.470  10.866 -0.2353 -0.2962 -0.3390
    8SAPS   O13  945   2.011   5.434  10.910 -0.4874  0.2853 -0.1404
    8SAPS   O14  946   2.219   5.578  10.947  0.3097  1.0367 -0.4213
    8SAPS   O12  947   2.237   5.337  10.858  0.2789  0.0835 -0.0127
    8SAPS   O11  948   2.118   5.505  10.715  0.1332  0.5174 -0.0771
    8SAPS    C1  949   2.190   5.445  10.606  0.4042  0.7766 -0.1848
    8SAPS    HA  950   2.263   5.366  10.632  1.7191  2.1680  0.5107
    8SAPS    HB  951   2.117   5.390  10.543 -1.5304  4.9898 -2.0546
    8SAPS    C2  952   2.271   5.558  10.533  0.2917  0.2162  0.4342
    8SAPS    HS  953   2.336   5.607  10.609 -0.0705 -0.7551  1.4037
    8SAPS   O21  954   2.168   5.640  10.468 -0.1987 -0.4626  0.1136
    8SAPS   C21  955   2.194   5.765  10.486  0.0149  0.4087 -0.0618
    8SAPS   O22  956   2.278   5.816  10.559 -0.2164  0.2271  0.4146
    8SAPS   C22  957   2.088   5.843  10.415 -0.5661 -0.4003  0.3016
    8SAPS   H2R  958   1.987   5.797  10.425 -0.4768 -0.3806  1.4503
    8SAPS   H2S  959   2.082   5.936  10.474  1.5239  0.4467 -0.7226
    8SAPS    C3  960   2.358   5.486  10.419 -0.0085 -0.0270 -0.2275
    8SAPS    HX  961   2.287   5.427  10.358  1.0389  0.0680 -1.5946
    8SAPS    HY  962   2.428   5.409  10.456  1.0562  1.0097 -0.0216
    8SAPS   O31  963   2.438   5.581  10.336  0.7070  0.2003 -0.3019
    8SAPS   C31  964   2.559   5.612  10.394  0.3493 -1.4611  0.1884
    8SAPS   O32  965   2.594   5.583  10.509  0.1555 -0.2346 -0.1016
    8SAPS   C32  966   2.648   5.691  10.298 -0.4327  0.4719  0.3423
    8SAPS   H2X  967   2.706   5.764  10.358 -0.3626  1.3768 -0.7704
    8SAPS   H2Y  968   2.594   5.758  10.228 -1.5469 -0.3303  0.4176
    8SAPS   C23  969   2.120   5.882  10.265 -0.0377  0.0363  0.0371
    8SAPS   H3R  970   2.228   5.872  10.241  0.4535  3.1607  0.5209
    8SAPS   H3S  971   2.082   5.986  10.251  0.0744  0.1111  0.2901
    8SAPS   C24  972   2.033   5.788  10.177  0.5141 -0.9293 -0.5917
    8SAPS   H4R  973   1.930   5.807  10.213  0.0315 -1.3100 -1.7453
    8SAPS   H4S  974   2.059   5.687  10.214  1.4640  0.2004  2.0938
    8SAPS   C25  975   2.054   5.815  10.034 -0.6987  0.6480 -0.4695
    8SAPS   H5R  976   2.157   5.800   9.997  0.3274  0.6454  2.1623
    8SAPS   C26  977   1.947   5.850   9.951 -0.2734  0.4343 -0.6055
    8SAPS   H6R  978   1.968   5.898   9.855 -1.4714  1.0464 -0.5885
    8SAPS   C27  979   1.808   5.882  10.007 -0.4240  0.1539  0.8618
    8SAPS   H7R  980   1.772   5.957   9.933 -2.0018  0.3823  1.8165
    8SAPS   H7S  981   1.814   5.929  10.108 -0.8133 -2.3134  2.1108
    8SAPS   C28  982   1.715   5.763  10.015 -0.0296 -0.0707 -0.0268
    8SAPS   H8R  983   1.690   5.727  10.117  0.5233 -1.6692 -0.4178
    8SAPS   C29  984   1.671   5.673   9.921 -0.3126 -0.2418 -0.1910
    8SAPS   H9R  985   1.599   5.597   9.956 -2.6054  0.5406 -2.8496
    8SAPS  C210  986   1.694   5.670   9.771 -0.3609 -0.1715  0.0314
    8SAPS  H10R  987   1.633   5.592   9.720 -0.1056 -0.0065 -0.5295
    8SAPS  H10S  988   1.801   5.642   9.765 -0.2298  0.3032  0.1405
    8SAPS  C211  989   1.668   5.803   9.696  0.7158  0.4960  0.2475
    8SAPS  H11R  990   1.620   5.882   9.756 -1.9364 -0.1765 -0.8462
    8SAPS  C212  991   1.706   5.834   9.573  0.2068 -0.2003 -0.5829
    8SAPS  H12R  992   1.699   5.937   9.534  2.1968 -0.3133 -1.3981
    8SAPS  C213  993   1.779   5.739   9.481 -0.0450  0.4115  0.0417
    8SAPS  H13R  994   1.767   5.637   9.523 -0.5373  0.3103 -0.3348
    8SAPS  H13S  995   1.889   5.756   9.478  0.3898 -1.2494  2.6811
    8SAPS  C214  996   1.710   5.747   9.349  0.2359 -0.0916 -0.5138
    8SAPS  H14R  997   1.656   5.656   9.320  0.1401  0.5407 -2.4512
    8SAPS  C215  998   1.725   5.859   9.267  0.0883  0.0918  0.1632
    8SAPS  H15R  999   1.666   5.854   9.174  1.7569  1.1671 -1.0128
    8SAPS  C216 1000   1.812   5.975   9.272  0.1560 -0.5466 -0.0198
    8SAPS  H16R 1001   1.876   5.974   9.363  1.7144 -0.8346 -1.0909
    8SAPS  H16S 1002   1.765   6.075   9.273 -1.8733 -1.3998 -1.8909
    8SAPS  C217 1003   1.897   5.986   9.146 -0.1816 -0.3025 -0.0216
    8SAPS  H17R 1004   1.952   5.891   9.138 -0.0825 -0.2840  0.3822
    8SAPS  H17S 1005   1.976   6.064   9.148 -0.8622  0.4360 -0.9462
    8SAPS  C218 1006   1.834   6.000   9.008  0.1196  0.4836  0.2397
    8SAPS  H18R 1007   1.780   6.097   9.007  0.7271  0.8205 -0.3003
    8SAPS  H18S 1008   1.755   5.926   8.985  0.9817 -0.2282 -0.5201
    8SAPS  C219 1009   1.931   5.983   8.882  0.3650  0.0331  0.2520
    8SAPS  H19R 1010   1.967   5.878   8.882 -1.0584 -0.4980  1.3383
    8SAPS  H19S 1011   2.018   6.049   8.900 -0.5747  1.5207 -0.5103
    8SAPS  C220 1012   1.860   6.014   8.746 -0.5165 -0.2110  0.1586
    8SAPS  H20R 1013   1.915   5.974   8.658  0.9067  1.9276  0.0021
    8SAPS  H20S 1014   1.856   6.124   8.729  0.6292 -0.3618 -1.2118
    8SAPS  H20T 1015   1.761   5.963   8.741  0.6396 -2.5636 -0.1764
    8SAPS   C33 1016   2.757   5.596  10.227  0.7467  0.1812 -0.0017
    8SAPS   H3X 1017   2.799   5.523  10.300 -0.5931  0.4442  1.0722
    8SAPS   H3Y 1018   2.835   5.663  10.185  0.1520  0.5151 -0.5974
    8SAPS   C34 1019   2.706   5.530  10.101  0.5317  0.6341  0.2068
    8SAPS   H4X 1020   2.616   5.468  10.124  1.1764 -0.2327  0.4421
    8SAPS   H4Y 1021   2.780   5.464  10.051  0.4180  1.4667 -1.1246
    8SAPS   C35 1022   2.668   5.625   9.991 -0.3958 -0.0665 -0.7634
    8SAPS   H5X 1023   2.756   5.688   9.967 -0.1585 -0.1889 -0.2137
    8SAPS   H5Y 1024   2.582   5.687  10.026 -1.2240 -1.0992 -0.9001
    8SAPS   C36 1025   2.615   5.547   9.874  0.6362  1.0723 -0.3085
    8SAPS   H6X 1026   2.592   5.620   9.794  0.7023  0.7973 -0.5828
    8SAPS   H6Y 1027   2.524   5.484   9.887  1.1922  0.0449 -1.2116
    8SAPS   C37 1028   2.726   5.463   9.809  0.1116 -0.3720  0.2232
    8SAPS   H7X 1029   2.755   5.382   9.880  0.9183  0.2681  0.6472
    8SAPS   H7Y 1030   2.821   5.521   9.808  0.3461 -0.7464  0.2766
    8SAPS   C38 1031   2.675   5.412   9.675  0.4241  0.0867  0.5468
    8SAPS   H8X 1032   2.575   5.363   9.665  0.0026  1.0863 -0.3868
    8SAPS   H8Y 1033   2.727   5.323   9.635 -0.4469 -0.2384  0.1030
    8SAPS   C39 1034   2.691   5.514   9.560  0.3234 -0.9626 -0.2215
    8SAPS   H9X 1035   2.648   5.616   9.572  2.3567 -0.4100  4.5446
    8SAPS   H9Y 1036   2.632   5.481   9.471 -2.7827 -0.5094  1.5033
    8SAPS  C310 1037   2.838   5.525   9.536  0.7081  0.5092  0.3383
    8SAPS  H10X 1038   2.878   5.436   9.482 -1.9403 -0.1852 -0.6166
    8SAPS  H10Y 1039   2.903   5.547   9.623 -0.3548  0.4593  1.1681
    8SAPS  C311 1040   2.868   5.644   9.443 -0.4073 -0.1265  0.0950
    8SAPS  H11X 1041   2.978   5.660   9.438 -0.5014  0.2100 -1.3534
    8SAPS  H11Y 1042   2.831   5.740   9.485 -1.1429  0.4961 -1.8368
    8SAPS  C312 1043   2.813   5.622   9.303 -0.7387 -0.6851 -0.6079
    8SAPS  H12X 1044   2.824   5.717   9.247  2.7557 -1.0205 -0.7017
    8SAPS  H12Y 1045   2.704   5.601   9.310 -1.1456  0.8111 -1.8670
    8SAPS  C313 1046   2.891   5.525   9.215 -0.9503  0.1139 -0.4138
    8SAPS  H13X 1047   2.865   5.425   9.254 -0.9165 -0.5949 -2.1324
    8SAPS  H13Y 1048   2.999   5.551   9.214 -0.9116 -0.0621 -0.6755
    8SAPS  C314 1049   2.842   5.517   9.073 -0.9388  0.1662  0.6011
    8SAPS  H14X 1050   2.890   5.434   9.017 -1.6834 -0.5349  0.9756
    8SAPS  H14Y 1051   2.884   5.606   9.022 -1.7610  0.1255 -0.1842
    8SAPS  C315 1052   2.691   5.513   9.053  0.8418  0.5712 -0.4418
    8SAPS  H15X 1053   2.661   5.520   8.946 -1.0199  1.2268  0.0680
    8SAPS  H15Y 1054   2.654   5.611   9.090  0.1244 -0.1045  0.7066
    8SAPS  C316 1055   2.614   5.386   9.107 -0.7384 -0.2685  0.4886
    8SAPS  H16X 1056   2.641   5.372   9.214  1.9840  0.6737  0.0075
    8SAPS  H16Y 1057   2.662   5.293   9.072  0.4624 -0.6824  2.9839
    8SAPS  C317 1058   2.461   5.382   9.110  0.3942  0.2404 -0.2614
    8SAPS  H17X 1059   2.430   5.353   9.007 -0.3098  0.2309 -0.0506
    8SAPS  H17Y 1060   2.434   5.488   9.131 -1.3522 -0.5889  2.1479
    8SAPS  C318 1061   2.409   5.285   9.216 -0.4060 -0.1768 -0.1027
    8SAPS  H18X 1062   2.432   5.324   9.318  1.6756  1.3476 -1.0958
    8SAPS  H18Y 1063   2.447   5.182   9.201  1.3457  0.3250  0.6688
    8SAPS  H18Z 1064   2.298   5.280   9.204 -0.7076  3.1343  0.4525
    9SAPS     N 1065   6.200   0.316   6.333 -0.5203 -0.3995  0.3314
    9SAPS   HN1 1066   6.230   0.415   6.326  0.1189 -0.6539 -0.8496
    9SAPS   HN2 1067   6.098   0.319   6.347 -1.4408  0.3993 -4.6363
    9SAPS   HN3 1068   6.257   0.276   6.411  0.7600  1.4729  0.4075
    9SAPS   C12 1069   6.226   0.251   6.200  0.3830 -0.4199  0.1853
    9SAPS  H12A 1070   6.235   0.144   6.208 -2.2972 -0.8671 -1.3822
    9SAPS   C13 1071   6.121   0.289   6.092 -0.2893 -0.1494  0.3489
    9SAPS  O13A 1072   6.013   0.338   6.136 -0.4821  0.4714  0.1323
    9SAPS  O13B 1073   6.138   0.239   5.978 -0.2595  0.4220  0.0593
    9SAPS   C11 1074   6.366   0.289   6.151  0.9179  1.3314  0.4850
    9SAPS  H11A 1075   6.385   0.395   6.125 -1.0096  1.3778 -0.9210
    9SAPS  H11B 1076   6.391   0.244   6.052 -1.7463  0.6470  0.0489
    9SAPS     P 1077   6.536   0.121   6.252 -0.0634 -0.1523 -0.0126
    9SAPS   O13 1078   6.441   0.011   6.222  0.0569  0.7260  0.2251
    9SAPS   O14 1079   6.647   0.139   6.159 -0.2619  0.3795 -0.2776
    9SAPS   O12 1080   6.462   0.260   6.250 -0.2325  0.1066 -0.7058
    9SAPS   O11 1081   6.575   0.119   6.402 -0.6294 -0.4123 -0.3146
    9SAPS    C1 1082   6.618   0.233   6.478 -0.0129 -0.6296  0.3104
    9SAPS    HA 1083   6.705   0.278   6.425 -0.0280  0.2836  1.0250
    9SAPS    HB 1084   6.534   0.303   6.496 -1.8352 -2.6207 -0.0104
    9SAPS    C2 1085   6.668   0.194   6.622  0.3465 -0.5007  0.4177
    9SAPS    HS 1086   6.768   0.148   6.614  1.4100  1.3463  2.3368
    9SAPS   O21 1087   6.569   0.114   6.688 -0.3085 -0.0289  0.3576
    9SAPS   C21 1088   6.607   0.037   6.783 -0.3286  0.0967 -0.2767
    9SAPS   O22 1089   6.723   0.012   6.816  0.4551 -0.0208  0.7023
    9SAPS   C22 1090   6.487  -0.004   6.865  0.1870 -0.7409 -0.5532
    9SAPS   H2R 1091   6.449   0.085   6.920  0.4907 -0.7863 -0.2636
    9SAPS   H2S 1092   6.414  -0.064   6.806 -0.3021 -2.0444  1.2647
    9SAPS    C3 1093   6.685   0.324   6.708 -0.1539  0.3526  0.3525
    9SAPS    HX 1094   6.585   0.371   6.720 -0.9092 -1.1544  0.2613
    9SAPS    HY 1095   6.741   0.393   6.641 -0.9206  0.6944  0.0380
    9SAPS   O31 1096   6.736   0.295   6.833 -0.6734  0.1119 -0.5049
    9SAPS   C31 1097   6.858   0.328   6.873 -0.2983 -0.5027 -0.6387
    9SAPS   O32 1098   6.939   0.390   6.806  0.3857 -0.0909 -0.5820
    9SAPS   C32 1099   6.875   0.263   7.007  1.0130  0.2888 -0.4359
    9SAPS   H2X 1100   6.850   0.156   6.994  2.7642  0.0487 -2.3184
    9SAPS   H2Y 1101   6.793   0.303   7.071 -0.2727 -0.1159 -1.7831
    9SAPS   C23 1102   6.536  -0.103   6.983  0.1109  0.0260 -0.5228
    9SAPS   H3R 1103   6.596  -0.039   7.053 -1.0912  4.7376 -3.3362
    9SAPS   H3S 1104   6.606  -0.183   6.952 -1.2630 -1.9181  1.1483
    9SAPS   C24 1105   6.415  -0.173   7.053 -1.0763  0.0520 -0.4766
    9SAPS   H4R 1106   6.365  -0.235   6.975 -2.1940  1.2315 -0.7371
    9SAPS   H4S 1107   6.341  -0.095   7.080 -1.1493 -0.0703 -0.3246
    9SAPS   C25 1108   6.454  -0.243   7.179 -0.3503  0.1289 -0.8985
    9SAPS   H5R 1109   6.538  -0.196   7.234  0.2151 -1.8986  0.0753
    9SAPS   C26 1110   6.406  -0.358   7.226  0.0744  0.0794 -0.1695
    9SAPS   H6R 1111   6.448  -0.404   7.317 -3.2555  2.4104  2.7980
    9SAPS   C27 1112   6.299  -0.438   7.155 -0.2091  0.4695  0.5863
    9SAPS   H7R 1113   6.241  -0.374   7.086 -0.9832 -3.0141 -2.3063
    9SAPS   H7S 1114   6.234  -0.470   7.239  0.1413 -0.4844  0.5033
    9SAPS   C28 1115   6.350  -0.559   7.078  0.0715  0.4225  0.0055
    9SAPS   H8R 1116   6.347  -0.545   6.969  0.0693 -0.8198 -0.1614
    9SAPS   C29 1117   6.393  -0.684   7.124 -0.1485  0.0550  0.2679
    9SAPS   H9R 1118   6.434  -0.751   7.047  3.1829  0.9968  1.0675
    9SAPS  C210 1119   6.394  -0.729   7.267  0.6415 -0.0952 -0.3977
    9SAPS  H10R 1120   6.386  -0.840   7.274  3.7882 -0.5275 -1.7110
    9SAPS  H10S 1121   6.300  -0.701   7.318  1.9300 -0.6044  2.4531
    9SAPS  C211 1122   6.497  -0.676   7.366  0.8255 -0.1520  0.8994
    9SAPS  H11R 1123   6.579  -0.625   7.312  0.1917 -0.0354  0.0276
    9SAPS  C212 1124   6.495  -0.668   7.500  0.1478  0.2786 -0.0113
    9SAPS  H12R 1125   6.580  -0.636   7.562  0.1569  0.6383 -0.2058
    9SAPS  C213 1126   6.379  -0.723   7.581  0.3730  0.8677 -0.2969
    9SAPS  H13R 1127   6.420  -0.770   7.672  0.7102 -0.0483 -0.9097
    9SAPS  H13S 1128   6.324  -0.801   7.524 -2.0244  2.4259 -0.3125
    9SAPS  C214 1129   6.276  -0.616   7.610  0.1399 -0.2005 -0.3834
    9SAPS  H14R 1130   6.196  -0.600   7.535  0.4990  1.5407 -0.4377
    9SAPS  C215 1131   6.278  -0.522   7.703  0.4414  0.1367  0.1677
    9SAPS  H15R 1132   6.198  -0.446   7.700  1.6880  1.4761 -1.4537
    9SAPS  C216 1133   6.379  -0.492   7.803 -0.6264 -0.0150  0.2015
    9SAPS  H16R 1134   6.416  -0.389   7.782 -0.5214 -0.1000 -0.0305
    9SAPS  H16S 1135   6.466  -0.561   7.801 -0.2943  0.3986 -1.6310
    9SAPS  C217 1136   6.309  -0.493   7.940 -0.5790 -0.1378  0.1830
    9SAPS  H17R 1137   6.242  -0.580   7.956  1.2345 -1.4943  0.7877
    9SAPS  H17S 1138   6.254  -0.398   7.956  0.4758  0.0428  3.4088
    9SAPS  C218 1139   6.401  -0.493   8.059  0.5503  0.3944  0.2668
    9SAPS  H18R 1140   6.470  -0.406   8.054  0.9825  0.0146 -0.4683
    9SAPS  H18S 1141   6.453  -0.591   8.062 -0.8855 -0.3835  0.4018
    9SAPS  C219 1142   6.328  -0.476   8.195 -0.1385 -0.2121  0.1460
    9SAPS  H19R 1143   6.410  -0.477   8.270  0.7224  3.8134 -0.4988
    9SAPS  H19S 1144   6.265  -0.567   8.209  2.3593 -2.0320  0.1268
    9SAPS  C220 1145   6.263  -0.340   8.227 -0.0210  1.2117  0.3612
    9SAPS  H20R 1146   6.213  -0.330   8.325  0.6037 -0.5456  0.8999
    9SAPS  H20S 1147   6.171  -0.346   8.165  0.1514 -1.0909  0.2376
    9SAPS  H20T 1148   6.325  -0.252   8.198  0.4984  1.2105  1.4281
    9SAPS   C33 1149   7.012   0.280   7.086 -0.4077 -0.8139 -0.5492
    9SAPS   H3X 1150   7.002   0.380   7.133  3.0022  0.3234 -1.9132
    9SAPS   H3Y 1151   7.100   0.278   7.019 -0.9659 -0.7278 -1.3041
    9SAPS   C34 1152   7.004   0.169   7.190 -0.6531 -1.1031  0.1317
    9SAPS   H4X 1153   7.018   0.074   7.135  0.5291  0.3088 -2.1607
    9SAPS   H4Y 1154   6.907   0.183   7.241 -1.5163 -0.7511 -1.5553
    9SAPS   C35 1155   7.113   0.183   7.300  0.2292 -0.3963  0.3756
    9SAPS   H5X 1156   7.089   0.273   7.360 -0.8863  0.4474 -1.2760
    9SAPS   H5Y 1157   7.214   0.182   7.254  0.7386 -1.5922  1.4589
    9SAPS   C36 1158   7.104   0.064   7.392 -0.3546  0.0267 -0.1159
    9SAPS   H6X 1159   7.143  -0.026   7.340 -1.8184 -1.3164  1.0258
    9SAPS   H6Y 1160   6.995   0.049   7.409 -0.5459  0.8941 -0.5297
    9SAPS   C37 1161   7.184   0.078   7.521  0.1236  0.2235  0.1240
    9SAPS   H7X 1162   7.161   0.175   7.570  2.6374  0.6968  0.5452
    9SAPS   H7Y 1163   7.287   0.091   7.480  0.3469 -1.3483  0.1238
    9SAPS   C38 1164   7.173  -0.041   7.620  0.7635 -0.0703  0.3988
    9SAPS   H8X 1165   7.193  -0.135   7.564  2.1908  0.5450 -0.1590
    9SAPS   H8Y 1166   7.067  -0.046   7.653  0.2598  0.3475 -1.0744
    9SAPS   C39 1167   7.271  -0.031   7.738 -0.0991  0.2775  0.3809
    9SAPS   H9X 1168   7.249   0.068   7.783  1.2822  1.5816 -1.6189
    9SAPS   H9Y 1169   7.376  -0.040   7.704 -0.4025 -0.0872 -0.4952
    9SAPS  C310 1170   7.252  -0.135   7.853  0.0460  0.1033  0.4469
    9SAPS  H10X 1171   7.294  -0.232   7.818  0.0749 -0.4321  1.8785
    9SAPS  H10Y 1172   7.144  -0.162   7.861 -0.0279 -0.3915 -1.5804
    9SAPS  C311 1173   7.327  -0.091   7.981  0.4512  0.1168 -0.2916
    9SAPS  H11X 1174   7.280   0.004   8.015  0.6815  0.4985 -1.0222
    9SAPS  H11Y 1175   7.432  -0.057   7.970  0.8574  0.3370  3.0759
    9SAPS  C312 1176   7.325  -0.189   8.103 -0.1513  0.1369  0.3435
    9SAPS  H12X 1177   7.357  -0.291   8.073 -0.1161  0.1210  0.4357
    9SAPS  H12Y 1178   7.225  -0.204   8.149 -0.0493 -1.9768 -0.0383
    9SAPS  C313 1179   7.408  -0.138   8.215  0.4368 -0.4527  0.2079
    9SAPS  H13X 1180   7.387  -0.184   8.314  1.4421  0.0859  0.6944
    9SAPS  H13Y 1181   7.409  -0.027   8.225  0.9550 -0.3702 -0.7298
    9SAPS  C314 1182   7.565  -0.165   8.210  0.6182 -0.4131  0.2344
    9SAPS  H14X 1183   7.608  -0.101   8.130 -1.1804 -1.4931 -1.7132
    9SAPS  H14Y 1184   7.585  -0.271   8.182 -0.3380 -0.3717 -0.6509
    9SAPS  C315 1185   7.622  -0.152   8.351  1.0341 -0.3467  0.0490
    9SAPS  H15X 1186   7.733  -0.158   8.344  0.9949  0.4822 -2.1109
    9SAPS  H15Y 1187   7.585  -0.231   8.419  2.6075 -0.0265  1.3327
    9SAPS  C316 1188   7.595  -0.015   8.415 -0.0146 -0.2518  0.1782
    9SAPS  H16X 1189   7.485  -0.007   8.427 -0.4130  0.8522 -3.2185
    9SAPS  H16Y 1190   7.609   0.065   8.340 -1.1547  1.2423  1.4775
    9SAPS  C317 1191   7.676   0.020   8.536 -0.2876 -0.0891  0.4596
    9SAPS  H17X 1192   7.665   0.129   8.557  1.3437  0.0555  0.6600
    9SAPS  H17Y 1193   7.784   0.007   8.513 -0.4243  2.0081 -1.7460
    9SAPS  C318 1194   7.629  -0.041   8.664  0.0487  0.2627 -0.2899
    9SAPS  H18X 1195   7.536   0.007   8.701 -0.5194 -1.2767  0.3273
    9SAPS  H18Y 1196   7.707  -0.023   8.741  0.1916 -1.4831 -0.0025
    9SAPS  H18Z 1197   7.615  -0.150   8.651  2.6037 -0.0416 -1.0992
   10SAPS     N 1198   4.644   6.657   6.302  0.0396  0.4802  0.2036
   10SAPS   HN1 1199   4.716   6.617   6.365  0.6980 -1.1934 -1.5046
   10SAPS   HN2 1200   4.593   6.735   6.348 -0.8626  0.4113 -0.6401
   10SAPS   HN3 1201   4.581   6.577   6.284  2.3007 -1.9562  2.2460
   10SAPS   C12 1202   4.702   6.717   6.174 -0.7704 -0.0213 -0.1177
   10SAPS  H12A 1203   4.752   6.644   6.112 -0.5052 -0.2502  0.3579
   10SAPS   C13 1204   4.603   6.791   6.074  0.0543  0.1017  0.3917
   10SAPS  O13A 1205   4.485   6.816   6.120 -0.0967 -0.8585 -0.2525
   10SAPS  O13B 1206   4.656   6.854   5.974 -0.6502  0.0265  0.0743
   10SAPS   C11 1207   4.799   6.829   6.214 -0.3812 -0.5149 -0.0405
   10SAPS  H11A 1208   4.757   6.916   6.268  1.9898  0.1368  0.8567
   10SAPS  H11B 1209   4.840   6.883   6.126  0.7211  0.2770  0.9345
   10SAPS     P 1210   5.033   6.845   6.357  0.0426  0.3778  0.0209
   10SAPS   O13 1211   5.121   6.754   6.430 -0.4221  0.1292  0.5154
   10SAPS   O14 1212   5.096   6.931   6.258  0.7997  0.0035  0.3144
   10SAPS   O12 1213   4.907   6.777   6.299  0.6661  0.4366  0.0835
   10SAPS   O11 1214   4.978   6.942   6.468 -0.1345  0.2841  0.5330
   10SAPS    C1 1215   4.901   6.893   6.576  0.7679 -0.8200 -0.0313
   10SAPS    HA 1216   4.802   6.944   6.578  1.6395  1.0312 -1.4019
   10SAPS    HB 1217   4.880   6.784   6.572 -2.4557 -0.2913  0.0313
   10SAPS    C2 1218   4.970   6.926   6.715  0.1445  0.5580  0.4428
   10SAPS    HS 1219   5.076   6.893   6.721  0.3190  1.1450  0.6565
   10SAPS   O21 1220   4.897   6.854   6.816  0.2433 -0.1078  0.0057
   10SAPS   C21 1221   4.917   6.728   6.815  0.4327  0.1122  0.6998
   10SAPS   O22 1222   5.007   6.674   6.749 -0.3385  0.2398 -0.2258
   10SAPS   C22 1223   4.827   6.654   6.907  0.0023 -0.0729 -0.4720
   10SAPS   H2R 1224   4.872   6.669   7.008  0.2022 -1.0837 -0.4005
   10SAPS   H2S 1225   4.724   6.693   6.895 -0.2158 -0.3939  0.2906
   10SAPS    C3 1226   4.974   7.079   6.737 -0.1246  0.1239 -0.5075
   10SAPS    HX 1227   4.869   7.106   6.762  0.0585 -1.0139  1.7588
   10SAPS    HY 1228   5.002   7.133   6.644  0.2419  0.0430 -0.4464
   10SAPS   O31 1229   5.062   7.116   6.846  0.1791  0.0951  0.0323
   10SAPS   C31 1230   5.009   7.125   6.969  0.5393 -0.1204 -0.4537
   10SAPS   O32 1231   4.897   7.107   7.000  0.5121 -0.2003  0.1347
   10SAPS   C32 1232   5.128   7.160   7.061  0.2226 -0.1449 -0.3760
   10SAPS   H2X 1233   5.116   7.269   7.079  2.2676  0.0954 -0.2935
   10SAPS   H2Y 1234   5.225   7.144   7.010  0.9544  2.7578 -0.0733
   10SAPS   C23 1235   4.822   6.501   6.881  0.4284 -0.8833  0.9076
   10SAPS   H3R 1236   4.921   6.463   6.913  1.1047 -1.5422 -1.6813
   10SAPS   H3S 1237   4.806   6.479   6.773 -4.0650  1.1670  0.9050
   10SAPS   C24 1238   4.724   6.413   6.959 -0.5100 -0.5844 -0.6897
   10SAPS   H4R 1239   4.739   6.418   7.069 -2.2046  1.0132 -0.4808
   10SAPS   H4S 1240   4.754   6.309   6.933  2.0654  0.3378 -1.7562
   10SAPS   C25 1241   4.579   6.429   6.909  0.0418  0.4240  0.0708
   10SAPS   H5R 1242   4.566   6.392   6.806  2.2920 -3.3965  0.9478
   10SAPS   C26 1243   4.476   6.485   6.979 -0.0636 -0.2292 -0.0372
   10SAPS   H6R 1244   4.372   6.480   6.944 -0.2137 -1.0578  0.5008
   10SAPS   C27 1245   4.488   6.550   7.115 -0.4551  0.9609 -0.1091
   10SAPS   H7R 1246   4.424   6.640   7.125 -0.0389  1.1586  0.9543
   10SAPS   H7S 1247   4.592   6.587   7.117 -0.2863  0.5906 -1.3895
   10SAPS   C28 1248   4.450   6.453   7.224 -0.2004  0.4639 -0.6455
   10SAPS   H8R 1249   4.374   6.380   7.193 -0.7516  0.6508  0.2322
   10SAPS   C29 1250   4.505   6.439   7.342  0.2672 -0.5305 -0.0013
   10SAPS   H9R 1251   4.478   6.354   7.406 -0.9714  0.6873  1.1714
   10SAPS  C210 1252   4.615   6.528   7.404 -0.7270 -0.1846 -0.1823
   10SAPS  H10R 1253   4.578   6.628   7.433  1.6559  0.4063  1.1421
   10SAPS  H10S 1254   4.702   6.550   7.337  0.5152 -0.4656  1.2758
   10SAPS  C211 1255   4.665   6.465   7.534  0.8093 -0.9608  0.5589
   10SAPS  H11R 1256   4.761   6.412   7.524  0.4808 -1.3290 -0.9663
   10SAPS  C212 1257   4.605   6.469   7.657  0.2247  0.1901 -0.1085
   10SAPS  H12R 1258   4.660   6.427   7.742  2.2539  4.1592  0.8018
   10SAPS  C213 1259   4.476   6.524   7.710  0.3030 -0.2189  0.8959
   10SAPS  H13R 1260   4.413   6.441   7.749 -1.0830  0.8297  0.9659
   10SAPS  H13S 1261   4.423   6.564   7.621  0.2556 -0.2158  0.9251
   10SAPS  C214 1262   4.487   6.637   7.805 -0.9814  0.5290  0.2117
   10SAPS  H14R 1263   4.507   6.738   7.765 -1.3842  0.5038 -0.0570
   10SAPS  C215 1264   4.476   6.625   7.936  0.0871  0.4953  0.2127
   10SAPS  H15R 1265   4.472   6.718   7.994 -2.5707 -0.4294  1.6683
   10SAPS  C216 1266   4.452   6.503   8.023 -0.9297 -0.1303  0.3858
   10SAPS  H16R 1267   4.521   6.506   8.110 -0.5124 -0.7844  0.0916
   10SAPS  H16S 1268   4.484   6.408   7.974  1.5309 -1.5954  4.3844
   10SAPS  C217 1269   4.307   6.493   8.074 -0.4031 -0.0050  0.3907
   10SAPS  H17R 1270   4.233   6.479   7.992 -1.3912  0.9569  1.0781
   10SAPS  H17S 1271   4.277   6.592   8.114 -2.2921 -0.4432  0.1661
   10SAPS  C218 1272   4.292   6.387   8.181 -0.5606  0.4232  0.3891
   10SAPS  H18R 1273   4.368   6.393   8.262 -0.8905  0.3182  0.7119
   10SAPS  H18S 1274   4.306   6.295   8.120  2.1179  0.1930  1.2177
   10SAPS  C219 1275   4.152   6.398   8.238  0.0196  1.0154  0.6474
   10SAPS  H19R 1276   4.088   6.388   8.147  2.7048  1.3197 -1.4298
   10SAPS  H19S 1277   4.133   6.505   8.262  2.0637  1.6615 -0.3253
   10SAPS  C220 1278   4.124   6.298   8.350 -0.0175 -0.2672  0.2070
   10SAPS  H20R 1279   4.131   6.195   8.308  1.8491 -0.1823  0.2357
   10SAPS  H20S 1280   4.027   6.313   8.402 -0.7688 -1.0560 -0.9126
   10SAPS  H20T 1281   4.199   6.306   8.432 -0.6748  0.4739  0.7539
   10SAPS   C33 1282   5.119   7.084   7.199  0.1591 -0.1790  0.4913
   10SAPS   H3X 1283   5.125   6.974   7.186 -0.3148 -0.3102  1.2755
   10SAPS   H3Y 1284   5.020   7.101   7.247  1.4892 -1.2748  3.9209
   10SAPS   C34 1285   5.218   7.125   7.304 -0.1576 -0.2096 -0.2891
   10SAPS   H4X 1286   5.207   7.235   7.309 -0.0232 -0.2109  0.0432
   10SAPS   H4Y 1287   5.319   7.107   7.260  0.9605  3.1490  0.5943
   10SAPS   C35 1288   5.192   7.063   7.440 -0.7111  0.6683  0.2994
   10SAPS   H5X 1289   5.197   6.953   7.423  2.8752  0.8710 -0.8032
   10SAPS   H5Y 1290   5.093   7.083   7.488  0.1156  0.7374  2.0711
   10SAPS   C36 1291   5.297   7.099   7.547  0.1987  0.4615 -0.2484
   10SAPS   H6X 1292   5.314   7.208   7.560  1.2985  0.2126  0.5557
   10SAPS   H6Y 1293   5.397   7.068   7.509  1.5403  3.9154  0.1654
   10SAPS   C37 1294   5.282   7.035   7.681  1.2379  0.3206 -0.4306
   10SAPS   H7X 1295   5.379   7.048   7.732  1.0275  3.6766 -0.6954
   10SAPS   H7Y 1296   5.265   6.926   7.667  1.5271  0.3815 -1.3125
   10SAPS   C38 1297   5.179   7.097   7.773 -0.1278 -0.2128 -0.0851
   10SAPS   H8X 1298   5.080   7.057   7.742 -1.4432  3.4753 -1.0426
   10SAPS   H8Y 1299   5.190   7.204   7.746  0.9963 -0.6992 -1.7071
   10SAPS   C39 1300   5.200   7.072   7.921 -0.3117 -0.3923 -0.4191
   10SAPS   H9X 1301   5.112   7.126   7.962  1.8260  0.6804  3.1127
   10SAPS   H9Y 1302   5.299   7.107   7.956  0.2081 -0.1285 -2.0599
   10SAPS  C310 1303   5.181   6.926   7.957  0.2858  0.6454 -0.2122
   10SAPS  H10X 1304   5.245   6.859   7.896 -0.0962 -0.0973  0.2004
   10SAPS  H10Y 1305   5.080   6.893   7.927  0.0840  1.7085 -0.7450
   10SAPS  C311 1306   5.198   6.894   8.101  0.5119  0.1495 -0.6891
   10SAPS  H11X 1307   5.296   6.932   8.138  0.8164  1.0658 -2.3432
   10SAPS  H11Y 1308   5.196   6.783   8.109  0.5232  0.1069 -1.2625
   10SAPS  C312 1309   5.081   6.948   8.190 -0.3445  0.4351 -1.4827
   10SAPS  H12X 1310   4.989   6.905   8.146 -0.0715 -0.6317 -1.0584
   10SAPS  H12Y 1311   5.068   7.058   8.194 -1.2392  0.3043  0.0758
   10SAPS  C313 1312   5.075   6.899   8.338  0.3285 -0.2653  0.4122
   10SAPS  H13X 1313   5.152   6.954   8.396  0.5208 -0.3093  0.2036
   10SAPS  H13Y 1314   5.111   6.794   8.338 -0.4886 -0.5648 -0.5170
   10SAPS  C314 1315   4.932   6.906   8.399 -1.1852 -0.4023 -0.4360
   10SAPS  H14X 1316   4.846   6.865   8.343 -3.1392  2.0111  0.5906
   10SAPS  H14Y 1317   4.914   7.016   8.400  0.5102 -0.0468 -2.5242
   10SAPS  C315 1318   4.928   6.859   8.538 -0.3644 -0.2876 -0.2127
   10SAPS  H15X 1319   5.013   6.911   8.587  0.3379 -1.3621 -0.2682
   10SAPS  H15Y 1320   4.955   6.752   8.535 -1.2563 -0.5019 -1.6122
   10SAPS  C316 1321   4.795   6.893   8.602  0.4643 -0.3972  0.5331
   10SAPS  H16X 1322   4.717   6.860   8.531 -0.2980  0.5361  0.9021
   10SAPS  H16Y 1323   4.799   7.004   8.608 -0.6669 -0.3147  0.0166
   10SAPS  C317 1324   4.758   6.838   8.742 -0.2138  0.7254  0.4814
   10SAPS  H17X 1325   4.836   6.875   8.812  3.0039 -0.0156 -2.4182
   10SAPS  H17Y 1326   4.777   6.728   8.741 -1.7296  0.4005 -1.9603
   10SAPS  C318 1327   4.615   6.878   8.785 -0.0970 -0.2155  0.6560
   10SAPS  H18X 1328   4.552   6.821   8.714 -1.2285 -0.1266  1.5582
   10SAPS  H18Y 1329   4.600   6.988   8.778  0.1997 -0.2287 -0.2332
   10SAPS  H18Z 1330   4.593   6.839   8.887  2.2993  0.2051  1.4094
   11SAPS     N 1331   6.553   2.610   5.727  0.0387  0.5742 -0.2725
   11SAPS   HN1 1332   6.505   2.685   5.781  1.2902  1.8665 -0.8675
   11SAPS   HN2 1333   6.638   2.579   5.779 -0.5540 -0.9344 -0.1628
   11SAPS   HN3 1334   6.581   2.648   5.634 -0.7827  3.1748  0.4636
   11SAPS   C12 1335   6.468   2.491   5.716  0.6965  0.3853  0.3833
   11SAPS  H12A 1336   6.403   2.512   5.632  1.8208  1.3722 -0.2589
   11SAPS   C13 1337   6.545   2.366   5.686 -0.0685 -0.1405  0.7080
   11SAPS  O13A 1338   6.670   2.367   5.678  0.3618 -0.1072 -0.3930
   11SAPS  O13B 1339   6.480   2.260   5.661  0.3702  0.6184 -0.0222
   11SAPS   C11 1340   6.376   2.467   5.846 -0.3565  0.5650 -0.4596
   11SAPS  H11A 1341   6.442   2.412   5.917  0.4469  0.8133 -1.0089
   11SAPS  H11B 1342   6.292   2.398   5.822 -2.1962  2.3185  0.6661
   11SAPS     P 1343   6.173   2.636   5.879  0.3432 -0.3933  0.3744
   11SAPS   O13 1344   6.163   2.712   5.750 -0.5914 -0.4255 -0.2296
   11SAPS   O14 1345   6.090   2.522   5.916  0.2243  0.6280  0.2349
   11SAPS   O12 1346   6.325   2.595   5.889  0.0791  0.5162 -0.2737
   11SAPS   O11 1347   6.150   2.744   6.001  0.3750 -0.7766  0.4733
   11SAPS    C1 1348   6.256   2.813   6.060 -0.5891 -0.4204  0.6261
   11SAPS    HA 1349   6.329   2.846   5.982 -0.9667 -1.2747 -0.1138
   11SAPS    HB 1350   6.221   2.912   6.095  1.7223  0.5344  0.4321
   11SAPS    C2 1351   6.330   2.747   6.180  1.0930  0.3184 -0.1128
   11SAPS    HS 1352   6.380   2.657   6.138  0.5373  0.3121 -0.7735
   11SAPS   O21 1353   6.224   2.694   6.269  0.4781 -0.4012 -0.2734
   11SAPS   C21 1354   6.255   2.587   6.333 -0.1608  0.0190 -0.2135
   11SAPS   O22 1355   6.361   2.534   6.332  0.3202  0.1595 -0.1637
   11SAPS   C22 1356   6.132   2.541   6.410 -0.2484 -0.3821  0.4349
   11SAPS   H2R 1357   6.065   2.625   6.436  1.4463  0.5399  2.0674
   11SAPS   H2S 1358   6.063   2.493   6.337 -0.0285 -0.9047  0.5662
   11SAPS    C3 1359   6.414   2.847   6.260 -0.7932  0.2311 -0.4705
   11SAPS    HX 1360   6.356   2.940   6.273  1.5939  1.5374  1.8907
   11SAPS    HY 1361   6.504   2.869   6.198 -0.1083 -0.4081  0.2673
   11SAPS   O31 1362   6.467   2.796   6.385  0.1418 -0.1251 -0.0966
   11SAPS   C31 1363   6.403   2.821   6.501 -0.3585  0.6214 -0.4047
   11SAPS   O32 1364   6.285   2.853   6.512 -0.0114  0.2935  0.3742
   11SAPS   C32 1365   6.496   2.791   6.616  0.2942  1.1336  0.0117
   11SAPS   H2X 1366   6.599   2.823   6.589 -0.1867  1.4313 -1.6213
   11SAPS   H2Y 1367   6.500   2.680   6.618  1.2198  1.1579 -0.1200
   11SAPS   C23 1368   6.165   2.453   6.532  0.1855  0.2567  1.1800
   11SAPS   H3R 1369   6.219   2.364   6.495 -1.1174  0.2114 -0.7291
   11SAPS   H3S 1370   6.066   2.415   6.565 -1.6223  0.0768 -3.7538
   11SAPS   C24 1371   6.243   2.537   6.638 -0.2752 -0.3303  0.1164
   11SAPS   H4R 1372   6.192   2.636   6.646  0.0905 -0.1211 -0.1629
   11SAPS   H4S 1373   6.342   2.553   6.591 -3.0121  0.7723 -6.2005
   11SAPS   C25 1374   6.261   2.464   6.768 -0.1159  0.2464  0.2793
   11SAPS   H5R 1375   6.320   2.371   6.760  0.5362  0.3928  2.7485
   11SAPS   C26 1376   6.207   2.478   6.891 -1.2099  0.7743 -0.3314
   11SAPS   H6R 1377   6.232   2.408   6.971 -0.9105  0.6997 -0.4901
   11SAPS   C27 1378   6.111   2.585   6.922  0.3876 -0.8318  0.0952
   11SAPS   H7R 1379   6.136   2.681   6.871  1.2370 -0.3214  1.4107
   11SAPS   H7S 1380   6.124   2.616   7.028  0.0983  1.5440 -0.4978
   11SAPS   C28 1381   5.971   2.543   6.890  0.5049  0.0088 -0.7944
   11SAPS   H8R 1382   5.935   2.576   6.791  0.3532  1.1068 -0.3856
   11SAPS   C29 1383   5.884   2.489   6.977 -0.1817  0.1519  0.0355
   11SAPS   H9R 1384   5.788   2.464   6.931  0.3678  0.2916 -1.2489
   11SAPS  C210 1385   5.932   2.454   7.115 -0.7249 -0.1609 -0.1564
   11SAPS  H10R 1386   5.945   2.545   7.177 -0.4271 -1.3786  1.6571
   11SAPS  H10S 1387   6.033   2.408   7.111 -0.7908 -0.4779  1.2109
   11SAPS  C211 1388   5.854   2.369   7.202  0.2881 -0.1591 -0.2895
   11SAPS  H11R 1389   5.767   2.324   7.152  1.1643  0.5529 -2.5978
   11SAPS  C212 1390   5.874   2.345   7.332  0.1199 -0.7186 -0.4254
   11SAPS  H12R 1391   5.800   2.280   7.382 -1.6977  3.1890  2.4491
   11SAPS  C213 1392   5.986   2.395   7.423 -0.2135 -0.0241 -0.0569
   11SAPS  H13R 1393   6.073   2.430   7.363  0.6034 -1.9311 -0.0651
   11SAPS  H13S 1394   6.007   2.300   7.479 -1.3659  0.1219  0.6495
   11SAPS  C214 1395   5.943   2.506   7.520  1.1191  0.0532  0.4514
   11SAPS  H14R 1396   5.932   2.604   7.472 -0.5535 -0.3075  0.0151
   11SAPS  C215 1397   5.932   2.500   7.655  0.0068  0.0690  0.2234
   11SAPS  H15R 1398   5.896   2.590   7.707  2.9627  0.5988  1.5638
   11SAPS  C216 1399   5.972   2.384   7.740 -0.1011  0.3873 -0.9342
   11SAPS  H16R 1400   6.042   2.406   7.823  1.6131  0.5237 -2.3506
   11SAPS  H16S 1401   6.034   2.309   7.685 -0.0133 -0.1543 -0.1183
   11SAPS  C217 1402   5.841   2.318   7.787  0.1236 -1.0045 -0.2289
   11SAPS  H17R 1403   5.872   2.231   7.849  0.9104 -0.1907  0.5494
   11SAPS  H17S 1404   5.783   2.285   7.698 -1.4560  1.4670 -0.2015
   11SAPS  C218 1405   5.746   2.404   7.871  0.8408 -0.0601  0.1078
   11SAPS  H18R 1406   5.642   2.367   7.858  0.9820 -0.5365  0.3346
   11SAPS  H18S 1407   5.747   2.511   7.841  0.0135  0.0623  0.4953
   11SAPS  C219 1408   5.773   2.387   8.022  0.4907 -0.2003  0.1842
   11SAPS  H19R 1409   5.790   2.279   8.046 -3.0179 -0.9937 -0.3083
   11SAPS  H19S 1410   5.677   2.411   8.072  0.3711 -1.3433  0.5417
   11SAPS  C220 1411   5.882   2.486   8.077  0.1559  0.6068 -0.1118
   11SAPS  H20R 1412   5.887   2.500   8.187  3.3196  0.4680 -0.1589
   11SAPS  H20S 1413   5.864   2.587   8.035  1.5719  1.4739  1.2710
   11SAPS  H20T 1414   5.979   2.448   8.039 -1.1848 -0.8330 -2.3074
   11SAPS   C33 1415   6.445   2.837   6.746  0.7269 -0.2769  0.7129
   11SAPS   H3X 1416   6.334   2.831   6.739  0.6246  1.9621 -0.5529
   11SAPS   H3Y 1417   6.486   2.938   6.768  3.1503 -1.1313  0.4539
   11SAPS   C34 1418   6.493   2.742   6.858 -0.2743 -0.4613 -0.0089
   11SAPS   H4X 1419   6.599   2.767   6.879 -0.5314  1.5654 -0.8243
   11SAPS   H4Y 1420   6.475   2.637   6.828 -2.3956 -0.6170  1.5389
   11SAPS   C35 1421   6.410   2.766   6.987  0.6874 -0.4221 -0.2419
   11SAPS   H5X 1422   6.301   2.759   6.966 -0.0455 -0.5209  3.1157
   11SAPS   H5Y 1423   6.411   2.875   7.011  1.1690 -1.1500  3.6430
   11SAPS   C36 1424   6.460   2.673   7.100  0.4683  0.5017  0.3330
   11SAPS   H6X 1425   6.570   2.690   7.104  1.3521 -3.7220 -1.2309
   11SAPS   H6Y 1426   6.457   2.571   7.056  0.5257  0.5407  0.2366
   11SAPS   C37 1427   6.383   2.680   7.232  0.5801  0.8263 -0.6796
   11SAPS   H7X 1428   6.278   2.653   7.205  1.3359 -0.4448 -2.5876
   11SAPS   H7Y 1429   6.395   2.784   7.270  0.8861  1.1507 -1.6339
   11SAPS   C38 1430   6.439   2.591   7.346 -0.3146 -0.0527 -0.1718
   11SAPS   H8X 1431   6.540   2.629   7.371  0.3486  1.3327 -4.1861
   11SAPS   H8Y 1432   6.464   2.488   7.313 -0.5602 -0.3567  0.5669
   11SAPS   C39 1433   6.353   2.579   7.475 -0.0313  0.3133  0.5704
   11SAPS   H9X 1434   6.257   2.527   7.456  0.5105  0.3088 -2.7030
   11SAPS   H9Y 1435   6.327   2.686   7.484 -0.1094  0.4900 -1.2919
   11SAPS  C310 1436   6.448   2.545   7.594 -0.5730 -0.3016 -0.1442
   11SAPS  H10X 1437   6.524   2.625   7.581 -0.6308 -0.4934 -1.9562
   11SAPS  H10Y 1438   6.501   2.450   7.572 -2.2133 -1.4444  0.5420
   11SAPS  C311 1439   6.395   2.540   7.732  0.0841  0.2186 -0.2282
   11SAPS  H11X 1440   6.477   2.509   7.800  1.6067 -0.6503 -2.3668
   11SAPS  H11Y 1441   6.320   2.459   7.744  0.5964 -0.2918 -0.4446
   11SAPS  C312 1442   6.314   2.668   7.771 -0.4323 -0.0025  0.8037
   11SAPS  H12X 1443   6.239   2.683   7.690  1.0483 -1.3618 -0.8794
   11SAPS  H12Y 1444   6.389   2.750   7.768  0.7093 -1.0109  1.3233
   11SAPS  C313 1445   6.251   2.657   7.912 -0.0508  0.6767 -0.0693
   11SAPS  H13X 1446   6.339   2.644   7.978 -1.0772 -2.3798  0.8504
   11SAPS  H13Y 1447   6.188   2.566   7.924  1.2228  0.0933  3.0748
   11SAPS  C314 1448   6.165   2.779   7.961  0.3461  0.0983 -0.4374
   11SAPS  H14X 1449   6.070   2.810   7.912  0.1280 -0.5485 -0.4319
   11SAPS  H14Y 1450   6.230   2.867   7.943 -0.7245  1.0479  0.2128
   11SAPS  C315 1451   6.144   2.779   8.111  0.2290  0.5292 -0.0033
   11SAPS  H15X 1452   6.232   2.728   8.155  0.8030  2.5525  1.3232
   11SAPS  H15Y 1453   6.056   2.721   8.147 -0.1950  1.2026  0.0532
   11SAPS  C316 1454   6.151   2.910   8.185  0.6489  0.0986 -0.4567
   11SAPS  H16X 1455   6.065   2.969   8.147 -1.1724 -0.8930  1.8606
   11SAPS  H16Y 1456   6.243   2.965   8.156 -1.2297  3.4474 -0.5892
   11SAPS  C317 1457   6.138   2.887   8.336 -0.4177 -0.5209 -0.8677
   11SAPS  H17X 1458   6.243   2.857   8.355 -0.2458  1.0116  0.7994
   11SAPS  H17Y 1459   6.060   2.811   8.357 -1.7388  0.7306 -1.1044
   11SAPS  C318 1460   6.089   3.008   8.411 -0.5422  0.7289  0.1485
   11SAPS  H18X 1461   6.082   2.977   8.517  1.8145  0.1415  0.1915
   11SAPS  H18Y 1462   5.992   3.040   8.368  0.5521  1.3239 -2.0317
   11SAPS  H18Z 1463   6.161   3.092   8.404 -2.4684  2.3386 -1.6566
   12SAPS     N 1464   0.167   3.800   5.705 -0.0845 -0.0248  0.0637
   12SAPS   HN1 1465   0.071   3.771   5.734 -0.0405 -2.3092 -1.7846
   12SAPS   HN2 1466   0.181   3.757   5.612  0.3267  1.1036 -0.4180
   12SAPS   HN3 1467   0.239   3.757   5.766 -0.6856 -0.4545  0.4929
   12SAPS   C12 1468   0.194   3.946   5.688  0.8489 -0.0515 -0.4435
   12SAPS  H12A 1469   0.283   3.965   5.631  1.8246 -1.2560  0.6167
   12SAPS   C13 1470   0.086   4.018   5.616 -0.4100 -0.1243 -0.0545
   12SAPS  O13A 1471  -0.002   3.957   5.552  0.8089 -0.2074 -0.1156
   12SAPS  O13B 1472   0.085   4.145   5.611  0.0995 -0.2692 -0.0621
   12SAPS   C11 1473   0.203   4.001   5.835  0.0718 -0.6103 -0.2939
   12SAPS  H11A 1474   0.102   4.007   5.881  1.1753 -0.3220  2.3051
   12SAPS  H11B 1475   0.240   4.106   5.831  1.5376 -1.0268  1.1897
   12SAPS     P 1476   0.245   3.856   6.052 -0.1464 -0.1290 -0.0257
   12SAPS   O13 1477   0.150   3.747   6.029 -0.0532  0.1768 -0.2540
   12SAPS   O14 1478   0.363   3.833   6.138 -0.1914 -0.1921  0.2586
   12SAPS   O12 1479   0.287   3.916   5.915 -0.0398  0.6485  0.9089
   12SAPS   O11 1480   0.168   3.981   6.111  0.3322  0.0669 -0.5526
   12SAPS    C1 1481   0.042   3.964   6.178 -0.1909  0.4304  0.5845
   12SAPS    HA 1482  -0.041   4.022   6.132 -0.3089 -1.2248 -1.3996
   12SAPS    HB 1483   0.002   3.861   6.181 -0.1269  0.3820 -0.1438
   12SAPS    C2 1484   0.040   4.024   6.315 -0.7526 -0.8688 -0.1003
   12SAPS    HS 1485   0.070   4.131   6.308  0.7245 -1.2775 -0.1819
   12SAPS   O21 1486   0.108   3.951   6.418  0.0424 -0.0136  1.2068
   12SAPS   C21 1487   0.239   3.971   6.412  0.8322 -0.1668 -0.2805
   12SAPS   O22 1488   0.294   4.061   6.357  0.5581 -0.2757  0.1893
   12SAPS   C22 1489   0.317   3.856   6.470  0.8784 -0.0762 -0.3916
   12SAPS   H2R 1490   0.286   3.765   6.416 -1.1030  0.1631  0.2565
   12SAPS   H2S 1491   0.423   3.873   6.444  0.8344 -0.6818 -0.9795
   12SAPS    C3 1492  -0.109   4.029   6.363  0.6810 -0.2373 -1.0289
   12SAPS    HX 1493  -0.159   3.930   6.364  0.7877 -0.3026  1.0734
   12SAPS    HY 1494  -0.169   4.096   6.297  1.5202  1.6285  0.0366
   12SAPS   O31 1495  -0.111   4.086   6.498 -0.1555  0.2123 -0.0609
   12SAPS   C31 1496  -0.126   4.218   6.516  0.4561 -0.5338 -0.5196
   12SAPS   O32 1497  -0.173   4.297   6.434  0.4436 -0.0420 -0.1220
   12SAPS   C32 1498  -0.075   4.241   6.656  0.4661  0.1123  0.5088
   12SAPS   H2X 1499   0.036   4.236   6.660  0.6289  1.1303 -1.5341
   12SAPS   H2Y 1500  -0.125   4.170   6.726  1.3451 -1.9191 -0.8061
   12SAPS   C23 1501   0.300   3.848   6.629  0.8248 -0.6581 -0.1455
   12SAPS   H3R 1502   0.334   3.747   6.660  1.9982 -0.4641 -0.7192
   12SAPS   H3S 1503   0.191   3.849   6.648  1.0974  0.2729  1.5413
   12SAPS   C24 1504   0.382   3.949   6.696 -0.6442 -0.2739 -0.8447
   12SAPS   H4R 1505   0.470   3.968   6.631 -0.1911  2.9408  0.5007
   12SAPS   H4S 1506   0.422   3.918   6.795  0.6537  2.3053 -0.4729
   12SAPS   C25 1507   0.310   4.085   6.696  0.7045  0.8146 -0.9592
   12SAPS   H5R 1508   0.212   4.099   6.650  1.2219  0.2268 -2.3021
   12SAPS   C26 1509   0.362   4.184   6.773 -0.3753 -0.6542  0.2357
   12SAPS   H6R 1510   0.300   4.274   6.784 -0.3681 -0.4096 -1.5047
   12SAPS   C27 1511   0.487   4.178   6.861  0.4428 -0.2541 -0.0692
   12SAPS   H7R 1512   0.581   4.161   6.803  0.0842 -2.5061 -0.0925
   12SAPS   H7S 1513   0.492   4.083   6.919 -0.0610 -0.8381 -0.9626
   12SAPS   C28 1514   0.496   4.300   6.949 -0.8684  0.0429  0.5992
   12SAPS   H8R 1515   0.482   4.398   6.900  3.3795  1.4620  1.7864
   12SAPS   C29 1516   0.510   4.301   7.090  1.0158 -0.1241  0.5279
   12SAPS   H9R 1517   0.508   4.397   7.144 -1.5752 -0.1298  0.5529
   12SAPS  C210 1518   0.515   4.172   7.175  0.4259 -0.9648 -0.2109
   12SAPS  H10R 1519   0.500   4.079   7.116 -2.5561  0.2279 -1.5326
   12SAPS  H10S 1520   0.422   4.180   7.234  1.0636  3.1619  0.5522
   12SAPS  C211 1521   0.626   4.146   7.275 -0.0681 -0.6298  0.0675
   12SAPS  H11R 1522   0.720   4.111   7.231  0.4534  2.4306 -1.4977
   12SAPS  C212 1523   0.618   4.157   7.411 -0.4541 -0.4252 -0.8006
   12SAPS  H12R 1524   0.706   4.132   7.473 -0.8592 -2.1109 -0.8646
   12SAPS  C213 1525   0.504   4.205   7.500  0.3092 -1.1865  0.2602
   12SAPS  H13R 1526   0.494   4.145   7.592 -2.5352 -1.4255 -0.1096
   12SAPS  H13S 1527   0.407   4.193   7.446 -0.0135 -1.3457  0.8609
   12SAPS  C214 1528   0.520   4.352   7.546  0.4455 -0.6339 -0.4373
   12SAPS  H14R 1529   0.460   4.421   7.485 -0.5357 -1.3404 -0.2918
   12SAPS  C215 1530   0.590   4.391   7.654  0.2573  0.0436  1.6306
   12SAPS  H15R 1531   0.604   4.498   7.672 -0.1893  0.3443  0.2678
   12SAPS  C216 1532   0.668   4.301   7.753  0.3806 -0.1498 -0.0626
   12SAPS  H16R 1533   0.752   4.349   7.807  0.5294 -2.0289  1.5112
   12SAPS  H16S 1534   0.728   4.229   7.694  1.0026 -0.5181  0.9779
   12SAPS  C217 1535   0.584   4.221   7.850 -0.1609 -0.6709  0.3200
   12SAPS  H17R 1536   0.641   4.148   7.912  2.3497  1.4764  0.6799
   12SAPS  H17S 1537   0.516   4.155   7.791  2.9330 -1.5923 -2.5083
   12SAPS  C218 1538   0.492   4.313   7.943  0.4723  0.1263 -0.6053
   12SAPS  H18R 1539   0.417   4.250   7.996  0.9222  0.0961  0.0132
   12SAPS  H18S 1540   0.426   4.369   7.873 -0.3831 -2.3390 -1.8906
   12SAPS  C219 1541   0.566   4.413   8.029 -0.4657  0.2299 -0.0642
   12SAPS  H19R 1542   0.502   4.491   8.074  0.1815 -0.2108  1.7025
   12SAPS  H19S 1543   0.645   4.460   7.966 -2.1621  1.5171 -1.3323
   12SAPS  C220 1544   0.632   4.335   8.147 -0.0650 -0.5367 -0.1641
   12SAPS  H20R 1545   0.636   4.403   8.234 -2.0386  0.8663 -1.0841
   12SAPS  H20S 1546   0.731   4.295   8.117 -1.5547 -3.1303 -2.0328
   12SAPS  H20T 1547   0.568   4.248   8.175 -0.9791  0.1131 -0.1705
   12SAPS   C33 1548  -0.115   4.378   6.714  0.5763 -0.1236 -0.1866
   12SAPS   H3X 1549  -0.110   4.381   6.825 -2.5569  1.9369  0.0133
   12SAPS   H3Y 1550  -0.217   4.408   6.681  0.7461 -1.6792 -2.3997
   12SAPS   C34 1551  -0.028   4.491   6.657 -0.1704  0.4449  0.2265
   12SAPS   H4X 1552  -0.072   4.593   6.660 -0.8174  0.1822 -0.1202
   12SAPS   H4Y 1553  -0.019   4.486   6.546 -1.9170  1.6350 -0.0196
   12SAPS   C35 1554   0.108   4.501   6.720  0.2863  0.4676  0.9434
   12SAPS   H5X 1555   0.170   4.410   6.704  1.2136  1.2399  0.0258
   12SAPS   H5Y 1556   0.100   4.528   6.828  2.1053  0.9637  0.9771
   12SAPS   C36 1557   0.197   4.604   6.657 -0.1286 -0.5257  0.3043
   12SAPS   H6X 1558   0.132   4.693   6.671  1.6226  1.2703 -2.1495
   12SAPS   H6Y 1559   0.209   4.589   6.548 -3.0066 -0.4695 -0.0799
   12SAPS   C37 1560   0.332   4.630   6.730 -0.7438 -0.1288  0.0596
   12SAPS   H7X 1561   0.365   4.735   6.720 -1.7634  0.0650 -1.7770
   12SAPS   H7Y 1562   0.402   4.546   6.708 -0.9937  0.1210 -1.9063
   12SAPS   C38 1563   0.317   4.627   6.881 -0.3700 -0.3090  0.1405
   12SAPS   H8X 1564   0.279   4.533   6.927 -0.2782  0.2820  1.4822
   12SAPS   H8Y 1565   0.235   4.700   6.896 -2.1757 -2.5503  1.8328
   12SAPS   C39 1566   0.434   4.679   6.961 -0.2557 -0.6255 -0.2223
   12SAPS   H9X 1567   0.470   4.774   6.915 -1.1238 -0.1938 -0.0299
   12SAPS   H9Y 1568   0.519   4.609   6.951 -0.0773 -0.3783 -0.4629
   12SAPS  C310 1569   0.402   4.712   7.108  0.2339  0.9715  0.9702
   12SAPS  H10X 1570   0.319   4.645   7.140  1.0170 -0.4231  0.1873
   12SAPS  H10Y 1571   0.374   4.820   7.108  2.2410  1.5299  0.9429
   12SAPS  C311 1572   0.522   4.701   7.206  0.0413  0.0319 -0.5911
   12SAPS  H11X 1573   0.601   4.777   7.187  2.3357 -1.7081  1.4375
   12SAPS  H11Y 1574   0.568   4.601   7.189 -1.7056 -0.8149 -0.5156
   12SAPS  C312 1575   0.481   4.718   7.356  0.2377 -0.4615 -0.2074
   12SAPS  H12X 1576   0.412   4.634   7.376 -0.4502 -1.2577 -4.6778
   12SAPS  H12Y 1577   0.432   4.818   7.359 -1.4806 -1.2407 -0.9638
   12SAPS  C313 1578   0.600   4.718   7.447 -0.2768  0.5086 -0.5603
   12SAPS  H13X 1579   0.674   4.797   7.423 -0.1883  0.9734  1.0775
   12SAPS  H13Y 1580   0.650   4.619   7.448 -1.6360 -0.3260  3.0316
   12SAPS  C314 1581   0.555   4.760   7.587  0.2103  0.6808  0.1028
   12SAPS  H14X 1582   0.485   4.676   7.605  1.3395 -0.7220 -1.6400
   12SAPS  H14Y 1583   0.494   4.852   7.573  1.0118  0.8855 -2.7443
   12SAPS  C315 1584   0.663   4.765   7.692  0.3483 -0.9428  1.1670
   12SAPS  H15X 1585   0.736   4.840   7.654  0.3225 -1.4406  0.0947
   12SAPS  H15Y 1586   0.726   4.674   7.698  0.9165 -1.1326 -3.6477
   12SAPS  C316 1587   0.621   4.812   7.833  0.5508 -0.4353  0.5848
   12SAPS  H16X 1588   0.565   4.732   7.887 -2.3579  0.7714 -0.4669
   12SAPS  H16Y 1589   0.552   4.899   7.835 -0.0648 -0.8947 -0.0674
   12SAPS  C317 1590   0.739   4.855   7.922  0.3771 -0.4461  0.1211
   12SAPS  H17X 1591   0.796   4.945   7.890  1.0573 -0.6566  0.7202
   12SAPS  H17Y 1592   0.822   4.781   7.921  1.3614  0.6176 -0.6759
   12SAPS  C318 1593   0.700   4.895   8.061  0.1314  0.1959 -0.6980
   12SAPS  H18X 1594   0.787   4.939   8.114  0.7235  0.9435 -2.2174
   12SAPS  H18Y 1595   0.658   4.813   8.123  2.0391  0.1056  0.5454
   12SAPS  H18Z 1596   0.631   4.982   8.051  1.1777  0.9856 -1.2549
   13SAPS     N 1597   2.075   6.243   6.398 -0.7089 -0.2171  1.0149
   13SAPS   HN1 1598   2.034   6.326   6.445  1.8627  0.9248  1.4419
   13SAPS   HN2 1599   2.013   6.160   6.406 -0.6709 -0.2261  1.2185
   13SAPS   HN3 1600   2.162   6.232   6.454 -1.3058 -1.4047  1.7679
   13SAPS   C12 1601   2.098   6.270   6.255 -0.0944 -0.1683  0.6600
   13SAPS  H12A 1602   2.204   6.285   6.244  0.0885 -0.9602  1.2176
   13SAPS   C13 1603   2.072   6.150   6.172  0.2158 -0.3843  0.4455
   13SAPS  O13A 1604   2.044   6.038   6.218  0.2657 -0.7722  0.5679
   13SAPS  O13B 1605   2.083   6.164   6.049 -0.3948 -0.3884 -0.0274
   13SAPS   C11 1606   2.017   6.393   6.211 -0.3270  0.1839  0.9426
   13SAPS  H11A 1607   1.911   6.359   6.209 -0.0041 -0.9062  1.2298
   13SAPS  H11B 1608   2.046   6.406   6.104 -0.4202 -0.1557  0.8734
   13SAPS     P 1609   2.052   6.648   6.222  0.0923 -0.0101  0.0060
   13SAPS   O13 1610   2.168   6.642   6.130 -0.0873 -0.0358 -0.2363
   13SAPS   O14 1611   1.913   6.687   6.175 -0.4903 -0.0060  0.0391
   13SAPS   O12 1612   2.038   6.505   6.291 -0.2844 -0.5246 -0.1858
   13SAPS   O11 1613   2.095   6.739   6.339  0.4144 -0.1905 -0.0928
   13SAPS    C1 1614   2.000   6.783   6.443  0.2175 -0.0382 -0.2216
   13SAPS    HA 1615   1.924   6.855   6.406 -0.8758 -0.8312  0.4348
   13SAPS    HB 1616   1.937   6.699   6.479 -1.2386  0.1431 -2.1907
   13SAPS    C2 1617   2.074   6.829   6.569 -0.2904 -0.1395 -0.7609
   13SAPS    HS 1618   2.151   6.755   6.598  0.8430  1.0715 -0.6113
   13SAPS   O21 1619   1.974   6.854   6.673  0.2338  0.1586 -0.0062
   13SAPS   C21 1620   1.957   6.758   6.763  0.1819 -0.3054 -0.1587
   13SAPS   O22 1621   2.020   6.658   6.780  0.6640  0.5488 -0.3076
   13SAPS   C22 1622   1.846   6.807   6.855  0.1270  0.6269  0.5964
   13SAPS   H2R 1623   1.808   6.901   6.810 -0.0105  0.2987  0.0217
   13SAPS   H2S 1624   1.765   6.732   6.844 -1.6778  2.1821  2.3180
   13SAPS    C3 1625   2.147   6.964   6.530  0.6979  0.7073  0.4016
   13SAPS    HX 1626   2.069   7.022   6.477 -0.5523 -3.6939 -3.2227
   13SAPS    HY 1627   2.224   6.941   6.454 -1.2476 -0.0337 -1.4438
   13SAPS   O31 1628   2.206   7.034   6.645 -0.0466  0.0716 -0.1991
   13SAPS   C31 1629   2.326   6.992   6.686 -0.3144  0.1162  1.2462
   13SAPS   O32 1630   2.395   6.911   6.630 -0.1135 -0.3372 -0.0884
   13SAPS   C32 1631   2.344   7.050   6.826 -0.1518  0.5544 -0.3845
   13SAPS   H2X 1632   2.266   7.005   6.891  0.5711 -0.2691 -0.0675
   13SAPS   H2Y 1633   2.325   7.159   6.812  0.0212  1.1896  3.1696
   13SAPS   C23 1634   1.889   6.819   7.004 -0.1889 -0.5682  0.5451
   13SAPS   H3R 1635   1.902   6.722   7.056  0.6644 -0.1382  1.1466
   13SAPS   H3S 1636   1.802   6.875   7.043 -2.7736 -3.4391 -0.6723
   13SAPS   C24 1637   2.017   6.904   7.023  0.0850 -0.8756 -0.4226
   13SAPS   H4R 1638   2.016   6.982   7.102  1.9945 -1.8746  0.6556
   13SAPS   H4S 1639   2.027   6.969   6.933  1.6989  2.6230  2.0762
   13SAPS   C25 1640   2.141   6.818   7.031 -0.9943  0.1303  0.6739
   13SAPS   H5R 1641   2.202   6.817   6.939 -0.0090  0.4786  1.3047
   13SAPS   C26 1642   2.192   6.774   7.148 -0.3931  0.1853  0.1237
   13SAPS   H6R 1643   2.274   6.702   7.158 -1.8778 -1.4794  0.9646
   13SAPS   C27 1644   2.128   6.802   7.289 -0.6607  0.2516  0.0363
   13SAPS   H7R 1645   2.023   6.836   7.282 -1.0727 -0.7860  0.9201
   13SAPS   H7S 1646   2.188   6.885   7.332 -0.9936  0.0283  0.9511
   13SAPS   C28 1647   2.133   6.684   7.388  0.0877  0.6413 -0.1541
   13SAPS   H8R 1648   2.174   6.589   7.351 -0.7312  0.5620 -0.8722
   13SAPS   C29 1649   2.075   6.683   7.507  0.0849 -0.0710  0.2502
   13SAPS   H9R 1650   2.075   6.589   7.564 -0.8533  2.0679  4.1523
   13SAPS  C210 1651   1.995   6.799   7.566 -0.3918  0.5935 -0.8215
   13SAPS  H10R 1652   1.954   6.868   7.489  0.8511 -0.4818 -2.5246
   13SAPS  H10S 1653   2.060   6.867   7.625 -3.6668  0.7214  3.0883
   13SAPS  C211 1654   1.887   6.752   7.668 -0.2771 -0.5334  0.2597
   13SAPS  H11R 1655   1.793   6.712   7.628 -1.1216  1.7517 -0.2050
   13SAPS  C212 1656   1.897   6.777   7.798 -0.0977  0.2433  0.5661
   13SAPS  H12R 1657   1.819   6.732   7.861 -1.0910  1.0764 -0.0485
   13SAPS  C213 1658   2.006   6.844   7.872 -0.5217 -0.9474 -0.2129
   13SAPS  H13R 1659   2.106   6.854   7.824 -1.1382  3.3478 -1.0177
   13SAPS  H13S 1660   2.028   6.784   7.963  1.0341 -0.2228 -0.0710
   13SAPS  C214 1661   1.963   6.979   7.925 -0.1917 -0.1178  0.0929
   13SAPS  H14R 1662   1.939   7.054   7.849 -0.4236 -0.9251 -0.6371
   13SAPS  C215 1663   1.946   7.026   8.052  0.1315  0.1289 -0.4385
   13SAPS  H15R 1664   1.921   7.132   8.069  0.3978  0.2295 -0.6655
   13SAPS  C216 1665   1.966   6.940   8.174  0.3296  0.5434 -0.3592
   13SAPS  H16R 1666   1.953   6.832   8.153 -0.7950  0.4799  0.5872
   13SAPS  H16S 1667   1.882   6.967   8.241  0.5422 -0.9903  0.5576
   13SAPS  C217 1668   2.105   6.937   8.241 -0.1017  0.1940 -0.3302
   13SAPS  H17R 1669   2.137   7.039   8.270  2.4799 -0.9783  1.2567
   13SAPS  H17S 1670   2.181   6.917   8.162 -1.2212  1.6956 -1.8813
   13SAPS  C218 1671   2.092   6.840   8.366 -0.3728  0.0496  0.0641
   13SAPS  H18R 1672   2.049   6.743   8.336 -1.2512  0.3623  0.2981
   13SAPS  H18S 1673   2.017   6.894   8.427 -0.8265 -0.7891  0.2556
   13SAPS  C219 1674   2.232   6.820   8.435 -0.5950  0.0943 -0.9467
   13SAPS  H19R 1675   2.276   6.922   8.443 -0.7152  0.1277 -0.7086
   13SAPS  H19S 1676   2.292   6.751   8.372 -0.1173 -0.1842 -0.1953
   13SAPS  C220 1677   2.200   6.753   8.570 -0.3211 -0.3234  0.5814
   13SAPS  H20R 1678   2.186   6.644   8.554 -2.2776  0.0099 -0.1467
   13SAPS  H20S 1679   2.110   6.795   8.619 -0.3020  0.1219  0.2357
   13SAPS  H20T 1680   2.294   6.760   8.629  1.2166 -1.0084 -1.6310
   13SAPS   C33 1681   2.482   7.014   6.889  0.3611  0.3582  0.2873
   13SAPS   H3X 1682   2.560   7.075   6.839  0.9001  1.4666  2.3546
   13SAPS   H3Y 1683   2.502   6.906   6.871 -1.6993 -0.0750  0.3448
   13SAPS   C34 1684   2.491   7.043   7.041  0.2966  0.3443 -0.1043
   13SAPS   H4X 1685   2.405   6.994   7.091 -1.3305  2.3318 -0.8151
   13SAPS   H4Y 1686   2.484   7.152   7.058  0.7493  0.1112  1.7408
   13SAPS   C35 1687   2.617   6.978   7.110  0.4914 -0.6106  0.4720
   13SAPS   H5X 1688   2.683   7.067   7.117  0.5916 -0.5147 -1.2091
   13SAPS   H5Y 1689   2.662   6.906   7.037  2.4699 -0.0939  1.1172
   13SAPS   C36 1690   2.588   6.911   7.247 -0.8466  0.1516 -0.3948
   13SAPS   H6X 1691   2.498   6.846   7.241  0.3496 -1.5988 -0.0227
   13SAPS   H6Y 1692   2.566   6.997   7.315 -0.0292  0.7212 -0.8386
   13SAPS   C37 1693   2.698   6.824   7.303 -0.0089  0.8295 -0.2518
   13SAPS   H7X 1694   2.790   6.885   7.295  0.9244 -0.5969 -0.7177
   13SAPS   H7Y 1695   2.710   6.724   7.254 -2.3922 -0.4786  1.5904
   13SAPS   C38 1696   2.689   6.806   7.455 -0.3029  0.2430  0.4030
   13SAPS   H8X 1697   2.665   6.909   7.491 -3.4924 -0.4055  0.3568
   13SAPS   H8Y 1698   2.789   6.782   7.498 -0.1135  1.5310  0.7394
   13SAPS   C39 1699   2.578   6.710   7.507 -0.2946  0.2251  0.3987
   13SAPS   H9X 1700   2.604   6.616   7.454  2.7539  2.1497 -1.8807
   13SAPS   H9Y 1701   2.481   6.748   7.468 -1.2429 -1.9991  0.4568
   13SAPS  C310 1702   2.572   6.671   7.652  0.6887  0.3732  0.1207
   13SAPS  H10X 1703   2.570   6.761   7.717 -0.2849  1.5255 -1.4248
   13SAPS  H10Y 1704   2.668   6.623   7.682  1.1085  1.2073  0.1662
   13SAPS  C311 1705   2.445   6.589   7.685 -0.3841 -0.1717  0.3678
   13SAPS  H11X 1706   2.463   6.485   7.652 -0.5556 -0.3714  0.9016
   13SAPS  H11Y 1707   2.360   6.641   7.635  0.0248  1.0713  0.9337
   13SAPS  C312 1708   2.422   6.582   7.832  0.5090 -0.6502  0.0262
   13SAPS  H12X 1709   2.406   6.683   7.875 -0.7216 -1.0217  0.4769
   13SAPS  H12Y 1710   2.494   6.523   7.893 -0.0287  0.5956  1.9419
   13SAPS  C313 1711   2.283   6.523   7.857  0.1193 -0.4285 -0.3824
   13SAPS  H13X 1712   2.292   6.415   7.830  0.6080 -0.5371  0.1867
   13SAPS  H13Y 1713   2.209   6.556   7.781  0.5886 -1.3355 -1.2689
   13SAPS  C314 1714   2.240   6.548   7.997  0.1454 -0.3254  0.1366
   13SAPS  H14X 1715   2.219   6.657   8.002 -3.6415 -0.8951 -0.1883
   13SAPS  H14Y 1716   2.323   6.527   8.067 -0.2366 -1.9025  0.1636
   13SAPS  C315 1717   2.111   6.474   8.031 -0.2274 -0.3553  0.0343
   13SAPS  H15X 1718   2.126   6.364   8.019 -0.9223 -0.2254 -2.7570
   13SAPS  H15Y 1719   2.039   6.506   7.952  2.4096  0.0967 -2.3637
   13SAPS  C316 1720   2.043   6.508   8.160  0.0287 -0.1335 -0.2014
   13SAPS  H16X 1721   2.052   6.619   8.164 -2.8137  0.1913 -0.6623
   13SAPS  H16Y 1722   2.102   6.470   8.246  0.9217  0.0750 -0.7153
   13SAPS  C317 1723   1.888   6.467   8.172 -0.1955 -0.3839  0.0391
   13SAPS  H17X 1724   1.816   6.520   8.106 -0.7921 -0.9033  0.2671
   13SAPS  H17Y 1725   1.859   6.494   8.276 -2.8897 -0.9028 -0.5039
   13SAPS  C318 1726   1.868   6.315   8.154  0.0743 -0.5888 -0.8010
   13SAPS  H18X 1727   1.899   6.293   8.049  0.6737 -0.4040 -0.6657
   13SAPS  H18Y 1728   1.760   6.294   8.173  0.0035 -0.7500 -1.3759
   13SAPS  H18Z 1729   1.934   6.257   8.222  0.1637  0.6625  0.2173
   14SAPS     N 1730   1.382   4.060   6.070 -0.3119  0.5846 -0.7473
   14SAPS   HN1 1731   1.305   4.053   6.000  0.5091 -0.9299 -1.5367
   14SAPS   HN2 1732   1.456   3.987   6.062 -1.4407 -0.8007  0.6950
   14SAPS   HN3 1733   1.347   4.035   6.165  0.1344 -3.2753 -1.4440
   14SAPS   C12 1734   1.431   4.201   6.063 -0.1740 -0.4423  0.0298
   14SAPS  H12A 1735   1.506   4.212   6.140 -1.7717  0.1322  1.5739
   14SAPS   C13 1736   1.484   4.241   5.919  0.1201  0.2465  0.3291
   14SAPS  O13A 1737   1.499   4.150   5.834  0.1867  0.3846 -0.1340
   14SAPS  O13B 1738   1.524   4.354   5.900  0.1711  0.1714  0.0898
   14SAPS   C11 1739   1.319   4.301   6.111 -0.5511  0.6919 -0.0080
   14SAPS  H11A 1740   1.360   4.404   6.116 -0.3310  0.6537 -0.8483
   14SAPS  H11B 1741   1.281   4.266   6.209 -0.4379  0.2528 -0.1200
   14SAPS     P 1742   1.122   4.428   6.016  0.0892  0.1294  0.5620
   14SAPS   O13 1743   1.187   4.551   5.977 -0.2385 -0.0350  0.5489
   14SAPS   O14 1744   0.996   4.394   5.940  0.2783  0.0379  0.6419
   14SAPS   O12 1745   1.214   4.299   6.012  0.7414  0.1921 -0.5464
   14SAPS   O11 1746   1.084   4.450   6.171  0.2187  0.1293 -0.0577
   14SAPS    C1 1747   1.006   4.352   6.241 -0.4335  0.4237 -1.0562
   14SAPS    HA 1748   0.905   4.342   6.196 -1.6032  3.3040  0.5984
   14SAPS    HB 1749   1.062   4.256   6.246 -0.5971  0.2990 -1.6365
   14SAPS    C2 1750   0.980   4.394   6.388  0.6245 -0.0885 -0.3173
   14SAPS    HS 1751   0.926   4.491   6.395 -0.0367 -0.4307 -0.6228
   14SAPS   O21 1752   1.105   4.391   6.469  0.3371 -0.8283 -0.2022
   14SAPS   C21 1753   1.153   4.509   6.491 -0.2599  0.8877  0.1339
   14SAPS   O22 1754   1.105   4.612   6.449 -0.3231  0.5069 -0.4709
   14SAPS   C22 1755   1.278   4.497   6.575  0.0508  0.2322 -0.5643
   14SAPS   H2R 1756   1.267   4.564   6.664  2.4771  0.3795 -0.3093
   14SAPS   H2S 1757   1.283   4.395   6.619 -0.3117  0.3400 -0.2631
   14SAPS    C3 1758   0.892   4.283   6.452  0.3073 -0.5991  0.0245
   14SAPS    HX 1759   0.952   4.191   6.441  2.8762  1.0924 -0.9612
   14SAPS    HY 1760   0.795   4.275   6.399  0.0765  0.4409  0.2522
   14SAPS   O31 1761   0.875   4.315   6.591 -0.7026 -0.3690 -0.5667
   14SAPS   C31 1762   0.778   4.396   6.626  0.0926  0.7249  0.4078
   14SAPS   O32 1763   0.695   4.438   6.544  0.4793 -0.2799 -0.4494
   14SAPS   C32 1764   0.778   4.432   6.768 -0.3450  0.2456  0.2896
   14SAPS   H2X 1765   0.711   4.359   6.819  0.0536 -1.0683 -1.0003
   14SAPS   H2Y 1766   0.734   4.533   6.785  1.0838  1.3541 -2.1373
   14SAPS   C23 1767   1.398   4.531   6.495  0.5985 -0.0733  0.3440
   14SAPS   H3R 1768   1.367   4.623   6.440 -1.6048 -0.9850 -0.0266
   14SAPS   H3S 1769   1.425   4.463   6.411  2.4939 -0.0475  0.8803
   14SAPS   C24 1770   1.525   4.551   6.581  0.3035  0.2729 -0.2034
   14SAPS   H4R 1771   1.500   4.633   6.652 -2.6598 -1.3594  0.8120
   14SAPS   H4S 1772   1.609   4.567   6.510  0.0599 -2.0201 -1.1061
   14SAPS   C25 1773   1.574   4.414   6.641 -0.1439  0.3474  0.1640
   14SAPS   H5R 1774   1.629   4.345   6.575 -1.7990 -0.9374  0.0684
   14SAPS   C26 1775   1.563   4.382   6.769 -0.2339 -0.5469 -1.4511
   14SAPS   H6R 1776   1.609   4.290   6.806 -1.5516 -1.0498 -1.0313
   14SAPS   C27 1777   1.512   4.469   6.886  0.7680  0.0791 -0.5846
   14SAPS   H7R 1778   1.437   4.536   6.840  0.4643 -0.7621 -1.3556
   14SAPS   H7S 1779   1.589   4.519   6.947  1.5537 -1.4555 -0.2609
   14SAPS   C28 1780   1.434   4.388   6.988  0.5350  0.1479 -0.0675
   14SAPS   H8R 1781   1.346   4.332   6.952  0.2877 -1.2906  2.5411
   14SAPS   C29 1782   1.458   4.385   7.120 -0.0235 -0.5952  0.5415
   14SAPS   H9R 1783   1.391   4.335   7.192  0.8861 -0.3336  1.6100
   14SAPS  C210 1784   1.570   4.454   7.201  0.8557 -0.0992  0.3446
   14SAPS  H10R 1785   1.612   4.539   7.143  0.9328 -1.0662 -1.0885
   14SAPS  H10S 1786   1.659   4.389   7.216 -0.5339 -2.0081  0.6196
   14SAPS  C211 1787   1.517   4.500   7.331 -0.3361 -0.2850 -0.4132
   14SAPS  H11R 1788   1.476   4.602   7.338 -1.6683 -0.8193 -0.1355
   14SAPS  C212 1789   1.509   4.429   7.444 -0.0299 -0.3038 -0.3497
   14SAPS  H12R 1790   1.454   4.480   7.524 -0.4425  1.9576 -2.0031
   14SAPS  C213 1791   1.560   4.287   7.447  0.1254  0.4941 -0.2857
   14SAPS  H13R 1792   1.662   4.288   7.492 -0.8273  0.6426  1.9887
   14SAPS  H13S 1793   1.568   4.234   7.350 -1.2546 -0.4647  0.0935
   14SAPS  C214 1794   1.477   4.203   7.536  0.1612 -0.1297 -0.8000
   14SAPS  H14R 1795   1.396   4.149   7.486 -1.1525  2.7069 -1.9772
   14SAPS  C215 1796   1.470   4.223   7.676  0.3778  0.8276  0.8028
   14SAPS  H15R 1797   1.407   4.158   7.739  1.1182 -1.7217 -0.9243
   14SAPS  C216 1798   1.571   4.307   7.753 -0.4422  0.0597  0.0201
   14SAPS  H16R 1799   1.590   4.405   7.706 -2.7968  1.3001  1.4561
   14SAPS  H16S 1800   1.668   4.253   7.755  0.1126  1.0169 -0.6163
   14SAPS  C217 1801   1.538   4.345   7.897  1.0631 -0.0077  0.1442
   14SAPS  H17R 1802   1.494   4.254   7.944  0.5572 -1.2638 -2.5595
   14SAPS  H17S 1803   1.446   4.406   7.893  1.0966 -0.0341 -1.8815
   14SAPS  C218 1804   1.641   4.406   7.991  0.4600  0.2628  0.1158
   14SAPS  H18R 1805   1.592   4.416   8.090  0.4793 -1.6543  0.3593
   14SAPS  H18S 1806   1.674   4.507   7.958  1.5265  0.6556  2.2124
   14SAPS  C219 1807   1.768   4.322   8.009  0.0298 -0.4055  0.1886
   14SAPS  H19R 1808   1.830   4.336   7.918  1.7612  0.2551  1.4155
   14SAPS  H19S 1809   1.728   4.220   8.026 -0.8299  0.1792  1.8828
   14SAPS  C220 1810   1.859   4.354   8.129  0.3252  0.1993 -0.5465
   14SAPS  H20R 1811   1.928   4.270   8.152 -1.4442 -1.2672 -0.2500
   14SAPS  H20S 1812   1.802   4.365   8.224 -0.3780  0.0915 -0.9474
   14SAPS  H20T 1813   1.915   4.449   8.122 -1.7347  1.4350 -1.2024
   14SAPS   C33 1814   0.906   4.414   6.841 -0.4369 -0.1270  0.4584
   14SAPS   H3X 1815   0.980   4.494   6.821 -1.0155  0.2731 -0.1385
   14SAPS   H3Y 1816   0.969   4.326   6.818  0.2523 -0.1059  2.1402
   14SAPS   C34 1817   0.868   4.415   6.993 -0.0843  0.4191 -0.2487
   14SAPS   H4X 1818   0.794   4.337   7.018 -2.3653  2.6891  0.5311
   14SAPS   H4Y 1819   0.830   4.515   7.025  3.3462  0.7321  3.8299
   14SAPS   C35 1820   0.995   4.404   7.076  0.0720 -0.6091  0.2118
   14SAPS   H5X 1821   1.045   4.500   7.053 -1.5912  0.1879 -0.2279
   14SAPS   H5Y 1822   1.060   4.321   7.040 -0.4548 -1.2566  0.7252
   14SAPS   C36 1823   0.961   4.413   7.224 -0.3222  0.2058 -0.1309
   14SAPS   H6X 1824   0.927   4.312   7.259 -0.8184  0.9302  1.6201
   14SAPS   H6Y 1825   0.877   4.484   7.238  0.8454  1.3604  1.5018
   14SAPS   C37 1826   1.078   4.458   7.310  0.3416  0.3367  0.6633
   14SAPS   H7X 1827   1.115   4.555   7.272  1.3532 -1.0537 -2.2829
   14SAPS   H7Y 1828   1.157   4.384   7.285  1.5577  1.3238  1.4496
   14SAPS   C38 1829   1.032   4.469   7.455 -0.3305 -0.0621 -0.2148
   14SAPS   H8X 1830   0.999   4.366   7.479  0.3973 -0.6782 -1.7889
   14SAPS   H8Y 1831   0.942   4.530   7.479 -1.7307 -2.8608  2.3599
   14SAPS   C39 1832   1.139   4.521   7.559  0.5137 -0.3156 -0.4550
   14SAPS   H9X 1833   1.177   4.613   7.510  1.2517 -1.3866 -1.9724
   14SAPS   H9Y 1834   1.223   4.449   7.569  0.6178 -0.2338 -0.7443
   14SAPS  C310 1835   1.076   4.547   7.700 -0.5411 -0.4402  0.5416
   14SAPS  H10X 1836   0.996   4.476   7.729 -0.8401 -0.2114  0.2764
   14SAPS  H10Y 1837   1.024   4.644   7.708 -2.7115 -1.4765 -0.3185
   14SAPS  C311 1838   1.183   4.534   7.813  0.2455  0.4341  0.1839
   14SAPS  H11X 1839   1.248   4.623   7.826 -0.9152  1.5776 -1.4499
   14SAPS  H11Y 1840   1.246   4.445   7.791 -0.7145  0.0570 -1.1220
   14SAPS  C312 1841   1.119   4.508   7.949 -0.2458 -0.2338  0.8937
   14SAPS  H12X 1842   1.037   4.434   7.939  2.0882 -2.6863 -2.2947
   14SAPS  H12Y 1843   1.059   4.599   7.974  0.3163  0.9639 -1.7250
   14SAPS  C313 1844   1.214   4.475   8.062 -0.0659  0.3863 -0.5744
   14SAPS  H13X 1845   1.299   4.546   8.060  0.6343 -0.4464 -1.2658
   14SAPS  H13Y 1846   1.259   4.376   8.041 -1.3061 -0.4032  0.3708
   14SAPS  C314 1847   1.147   4.480   8.199  0.4409 -0.2283 -0.1485
   14SAPS  H14X 1848   1.066   4.404   8.193  2.9240 -2.9523 -3.1544
   14SAPS  H14Y 1849   1.105   4.583   8.204  2.1685  0.4642  1.0191
   14SAPS  C315 1850   1.251   4.438   8.307 -0.2290 -0.1012  0.3204
   14SAPS  H15X 1851   1.302   4.342   8.288  0.9763  0.5109  0.3653
   14SAPS  H15Y 1852   1.194   4.432   8.403 -0.0507 -0.5698  0.3958
   14SAPS  C316 1853   1.364   4.539   8.329 -0.2893 -0.3540 -0.2516
   14SAPS  H16X 1854   1.322   4.637   8.362 -0.6219 -1.0938  1.6807
   14SAPS  H16Y 1855   1.418   4.549   8.233  1.3292 -0.7531  0.5759
   14SAPS  C317 1856   1.460   4.491   8.438 -0.9485 -0.6180  0.1419
   14SAPS  H17X 1857   1.481   4.384   8.417 -1.2566 -0.3703 -1.6798
   14SAPS  H17Y 1858   1.412   4.498   8.538  0.9436 -2.2188  1.2265
   14SAPS  C318 1859   1.588   4.588   8.438 -0.1285 -0.2445  0.0631
   14SAPS  H18X 1860   1.547   4.691   8.448 -1.4006 -0.7716  0.4908
   14SAPS  H18Y 1861   1.636   4.578   8.339  0.0914 -2.4813  0.3582
   14SAPS  H18Z 1862   1.660   4.560   8.518 -0.7399 -0.5416  0.5200
   15SAPS     N 1863   0.090   2.347   5.791  0.6413  0.1669  0.1724
   15SAPS   HN1 1864   0.145   2.268   5.750  0.2014  0.0311 -0.1543
   15SAPS   HN2 1865   0.057   2.313   5.883 -1.9386 -0.6673 -0.9780
   15SAPS   HN3 1866   0.008   2.358   5.729  1.9296 -2.0535 -2.0977
   15SAPS   C12 1867   0.168   2.468   5.801  0.2301 -0.7364 -0.2919
   15SAPS  H12A 1868   0.210   2.494   5.705 -0.5455  2.3168  0.0887
   15SAPS   C13 1869   0.088   2.599   5.832 -0.6201  0.1611 -0.3800
   15SAPS  O13A 1870  -0.030   2.603   5.866  0.7763  0.2452 -0.3392
   15SAPS  O13B 1871   0.152   2.706   5.838 -0.1155  0.4127  0.1235
   15SAPS   C11 1872   0.282   2.452   5.907  0.3111  0.2788  0.1434
   15SAPS  H11A 1873   0.236   2.433   6.006 -1.3702  0.2525 -0.6030
   15SAPS  H11B 1874   0.334   2.550   5.912  0.6400  0.2056 -1.4147
   15SAPS     P 1875   0.507   2.320   5.949 -0.3275 -0.0462  0.0039
   15SAPS   O13 1876   0.539   2.175   5.945 -0.7047  0.1494 -0.3401
   15SAPS   O14 1877   0.610   2.421   5.909  0.0363 -0.1246 -0.7870
   15SAPS   O12 1878   0.370   2.342   5.869 -0.1484 -0.5793  0.1145
   15SAPS   O11 1879   0.460   2.346   6.105  0.3524 -0.1011 -0.5018
   15SAPS    C1 1880   0.362   2.248   6.163 -0.3725 -0.3287  1.4090
   15SAPS    HA 1881   0.269   2.246   6.102  1.3498 -0.2062 -1.4113
   15SAPS    HB 1882   0.392   2.142   6.150  1.8965  0.4251 -0.2302
   15SAPS    C2 1883   0.328   2.288   6.308  0.7895 -0.0645 -0.4202
   15SAPS    HS 1884   0.246   2.225   6.346 -2.8673  3.7738 -1.2185
   15SAPS   O21 1885   0.297   2.431   6.315 -0.1831 -0.9979 -0.2283
   15SAPS   C21 1886   0.172   2.465   6.279  0.2686 -0.0467  1.3143
   15SAPS   O22 1887   0.084   2.388   6.254 -0.1973 -0.9316 -0.6917
   15SAPS   C22 1888   0.148   2.614   6.288 -0.2045  0.2722  0.1742
   15SAPS   H2R 1889   0.220   2.673   6.228 -0.6164 -0.1373 -0.7434
   15SAPS   H2S 1890   0.045   2.639   6.253  0.0864 -0.3544 -1.1679
   15SAPS    C3 1891   0.455   2.258   6.387  0.1860  0.2892 -0.5406
   15SAPS    HX 1892   0.538   2.321   6.349  0.7518  0.2442  0.5692
   15SAPS    HY 1893   0.479   2.151   6.368 -2.7024 -0.3546 -1.0074
   15SAPS   O31 1894   0.435   2.288   6.529 -0.5043  0.1283  0.0504
   15SAPS   C31 1895   0.489   2.392   6.577  0.1245 -0.1416  0.5106
   15SAPS   O32 1896   0.582   2.458   6.536 -0.5618 -0.5454 -0.1881
   15SAPS   C32 1897   0.401   2.435   6.696 -0.8237 -0.2323  0.1267
   15SAPS   H2X 1898   0.294   2.415   6.675 -1.4908  0.3013  2.6951
   15SAPS   H2Y 1899   0.410   2.545   6.701 -2.9836 -0.0206  0.0879
   15SAPS   C23 1900   0.153   2.653   6.435  0.1582 -0.4988 -0.4270
   15SAPS   H3R 1901   0.167   2.763   6.433  0.5196 -0.5535 -1.3320
   15SAPS   H3S 1902   0.238   2.605   6.489 -2.6556 -1.8221  3.2196
   15SAPS   C24 1903   0.025   2.610   6.515  0.1800  0.0992  0.2305
   15SAPS   H4R 1904   0.010   2.502   6.492  1.5626  0.3040 -1.8630
   15SAPS   H4S 1905  -0.059   2.667   6.469  0.8075 -0.4923 -1.7559
   15SAPS   C25 1906   0.029   2.648   6.656  0.4480 -0.4192  0.2705
   15SAPS   H5R 1907   0.084   2.742   6.666  1.0410 -0.9877  3.1416
   15SAPS   C26 1908  -0.027   2.595   6.765  0.0537  0.3685 -0.7401
   15SAPS   H6R 1909  -0.014   2.642   6.863 -1.9331 -1.2365  0.3897
   15SAPS   C27 1910  -0.105   2.463   6.755 -0.5875 -0.9141  0.3566
   15SAPS   H7R 1911  -0.147   2.455   6.652  1.0133  2.3588 -0.7005
   15SAPS   H7S 1912  -0.179   2.465   6.837  1.1838 -0.7440  2.0291
   15SAPS   C28 1913  -0.012   2.348   6.785 -0.2170  0.1751  0.3943
   15SAPS   H8R 1914   0.058   2.315   6.707 -0.7372 -0.5861  0.2517
   15SAPS   C29 1915  -0.004   2.285   6.899  0.4454 -0.0031 -0.3889
   15SAPS   H9R 1916   0.066   2.200   6.909 -0.2613 -0.4362  1.1452
   15SAPS  C210 1917  -0.084   2.309   7.028 -0.2040  0.6195 -0.0444
   15SAPS  H10R 1918  -0.095   2.217   7.088  0.9490  1.2266  1.1393
   15SAPS  H10S 1919  -0.190   2.324   6.997 -0.2067  1.4155  0.3243
   15SAPS  C211 1920  -0.052   2.429   7.122 -0.6711 -0.7683 -0.2169
   15SAPS  H11R 1921  -0.007   2.516   7.071 -2.0724  2.8924  4.0664
   15SAPS  C212 1922  -0.057   2.447   7.256  0.2933 -0.0413 -0.4436
   15SAPS  H12R 1923  -0.025   2.546   7.292 -0.9193 -0.7109  2.7742
   15SAPS  C213 1924  -0.098   2.344   7.355  0.4224 -0.1847 -0.8810
   15SAPS  H13R 1925  -0.196   2.307   7.318 -0.2620  0.8751 -0.1736
   15SAPS  H13S 1926  -0.114   2.384   7.457  1.3809 -0.0489 -0.7707
   15SAPS  C214 1927  -0.013   2.216   7.351  0.1725 -0.3045 -0.7756
   15SAPS  H14R 1928   0.056   2.208   7.266  0.9397 -1.3821 -0.0830
   15SAPS  C215 1929  -0.020   2.125   7.446 -0.3843 -0.0482  0.0827
   15SAPS  H15R 1930   0.040   2.035   7.426  0.4586  0.4664  0.2244
   15SAPS  C216 1931  -0.113   2.140   7.565 -0.0448 -0.1059  0.8635
   15SAPS  H16R 1932  -0.217   2.137   7.527 -0.3028  0.5689  1.5038
   15SAPS  H16S 1933  -0.108   2.240   7.613 -2.8635 -0.0233  1.1543
   15SAPS  C217 1934  -0.126   2.023   7.664 -0.0196  0.6133  0.0953
   15SAPS  H17R 1935  -0.034   1.962   7.678 -1.0454 -0.9034  0.4193
   15SAPS  H17S 1936  -0.185   1.946   7.611  1.3317  2.0577 -3.8518
   15SAPS  C218 1937  -0.186   2.076   7.795  0.0769  0.4022  0.6544
   15SAPS  H18R 1938  -0.282   2.123   7.765  1.3366  1.1960 -2.5750
   15SAPS  H18S 1939  -0.124   2.163   7.823  0.5152  0.2930  0.0601
   15SAPS  C219 1940  -0.203   1.970   7.905 -0.5708  0.7815 -0.3088
   15SAPS  H19R 1941  -0.265   1.884   7.872 -1.5194  0.1792  2.7752
   15SAPS  H19S 1942  -0.260   2.008   7.993 -2.3708  1.6599 -1.7747
   15SAPS  C220 1943  -0.073   1.929   7.967 -0.0607 -0.3461  0.4144
   15SAPS  H20R 1944  -0.041   1.975   8.063  4.0390 -2.9822  0.5308
   15SAPS  H20S 1945   0.009   1.946   7.894  0.6780  3.2448  1.8427
   15SAPS  H20T 1946  -0.068   1.822   7.994 -0.0791 -0.4008  0.1996
   15SAPS   C33 1947   0.466   2.382   6.822  0.2469  0.2689  0.3389
   15SAPS   H3X 1948   0.577   2.387   6.817  0.3895 -0.2878  2.2839
   15SAPS   H3Y 1949   0.442   2.273   6.826 -0.4440  0.4533  1.9044
   15SAPS   C34 1950   0.414   2.451   6.942  0.2266  0.7097  0.4248
   15SAPS   H4X 1951   0.304   2.447   6.928  0.6016 -0.1520 -3.3782
   15SAPS   H4Y 1952   0.440   2.558   6.956 -1.6001  1.3688 -0.7756
   15SAPS   C35 1953   0.449   2.376   7.078 -0.0642 -0.4495 -0.1930
   15SAPS   H5X 1954   0.555   2.385   7.111 -0.7407  1.1374  1.7747
   15SAPS   H5Y 1955   0.432   2.267   7.069 -0.6741 -0.3675 -0.0580
   15SAPS   C36 1956   0.373   2.444   7.197  0.8378  0.5182  0.1682
   15SAPS   H6X 1957   0.265   2.421   7.181  0.9374 -1.1937  1.6517
   15SAPS   H6Y 1958   0.379   2.554   7.182 -1.7745  0.5965 -0.9024
   15SAPS   C37 1959   0.417   2.391   7.330  0.2343 -0.1547  0.1144
   15SAPS   H7X 1960   0.525   2.414   7.338  0.1016  1.3854 -1.9590
   15SAPS   H7Y 1961   0.409   2.280   7.332  1.8004 -0.3093  2.5562
   15SAPS   C38 1962   0.340   2.454   7.445  0.3847  0.2310  0.9526
   15SAPS   H8X 1963   0.234   2.423   7.448  0.2273  0.7240  0.6628
   15SAPS   H8Y 1964   0.350   2.564   7.454 -0.6163  0.6286 -1.9171
   15SAPS   C39 1965   0.392   2.398   7.582  0.0137  0.0832  0.2146
   15SAPS   H9X 1966   0.503   2.400   7.585  0.0182 -0.8665  1.8730
   15SAPS   H9Y 1967   0.374   2.288   7.587 -0.7388  0.2263  0.8955
   15SAPS  C310 1968   0.346   2.460   7.713  0.1263 -0.0469 -0.1549
   15SAPS  H10X 1969   0.362   2.569   7.727 -0.2610  0.1813 -1.4041
   15SAPS  H10Y 1970   0.399   2.398   7.789  1.2186 -0.9480 -1.6151
   15SAPS  C311 1971   0.195   2.433   7.734 -0.2228 -0.5211  0.7423
   15SAPS  H11X 1972   0.177   2.323   7.732 -0.2776 -0.5111  0.6922
   15SAPS  H11Y 1973   0.145   2.470   7.642 -1.7996  1.5781  2.3333
   15SAPS  C312 1974   0.137   2.508   7.857 -0.4771 -0.3676  0.0788
   15SAPS  H12X 1975   0.160   2.616   7.845  0.4377 -0.5727 -0.1751
   15SAPS  H12Y 1976   0.207   2.492   7.942 -0.6141  0.0074  0.2598
   15SAPS  C313 1977  -0.008   2.478   7.891  0.1610 -0.2142  0.3520
   15SAPS  H13X 1978  -0.022   2.368   7.898 -0.9702 -0.2358 -1.7004
   15SAPS  H13Y 1979  -0.076   2.499   7.806  1.9921  0.1950 -1.0756
   15SAPS  C314 1980  -0.059   2.557   8.019  0.3938 -0.0967 -0.3156
   15SAPS  H14X 1981  -0.068   2.666   7.998  0.9418 -0.4058 -2.3635
   15SAPS  H14Y 1982   0.017   2.535   8.097 -1.0227  0.2157  1.2104
   15SAPS  C315 1983  -0.195   2.510   8.073 -0.1622 -0.2147 -0.0722
   15SAPS  H15X 1984  -0.204   2.400   8.086 -3.0919 -0.2008 -1.2067
   15SAPS  H15Y 1985  -0.282   2.554   8.020  0.0339  0.7840  0.4263
   15SAPS  C316 1986  -0.214   2.556   8.224  0.4281 -0.1649 -0.1957
   15SAPS  H16X 1987  -0.205   2.666   8.233  1.8182 -0.3477  1.0158
   15SAPS  H16Y 1988  -0.137   2.506   8.287  1.2059  1.5141  0.2450
   15SAPS  C317 1989  -0.355   2.525   8.276  0.4121  0.0846  0.4802
   15SAPS  H17X 1990  -0.368   2.415   8.283 -0.6222  0.0174 -1.6262
   15SAPS  H17Y 1991  -0.424   2.551   8.193 -0.5022 -1.1606  0.8062
   15SAPS  C318 1992  -0.391   2.603   8.395 -0.0519  0.0438 -0.6574
   15SAPS  H18X 1993  -0.393   2.710   8.363  2.0680  0.1681 -0.5025
   15SAPS  H18Y 1994  -0.324   2.592   8.483 -0.5653 -1.0240 -0.3869
   15SAPS  H18Z 1995  -0.492   2.576   8.433 -0.4194  2.0636 -0.0534
   16SAPS     N 1996   2.805   4.672   6.249  0.4857  1.0956  0.1504
   16SAPS   HN1 1997   2.848   4.681   6.155  1.6657  1.7617  0.7263
   16SAPS   HN2 1998   2.825   4.758   6.304  1.7344 -0.2362  1.8764
   16SAPS   HN3 1999   2.854   4.592   6.293  0.8474  0.5169 -1.2620
   16SAPS   C12 2000   2.661   4.651   6.229  0.0422  0.1249  0.1291
   16SAPS  H12A 2001   2.637   4.723   6.152  2.3078 -0.4754 -1.2423
   16SAPS   C13 2002   2.615   4.510   6.178 -0.3429 -0.4702 -0.7651
   16SAPS  O13A 2003   2.700   4.420   6.163 -0.5558  0.0668  0.2029
   16SAPS  O13B 2004   2.496   4.493   6.146  0.6946 -0.0574  0.3538
   16SAPS   C11 2005   2.590   4.681   6.362 -0.4777  0.2779  0.0139
   16SAPS  H11A 2006   2.624   4.621   6.449  0.0615  2.9387  1.7453
   16SAPS  H11B 2007   2.483   4.653   6.358 -0.2580 -0.9436  1.6192
   16SAPS     P 2008   2.697   4.899   6.482 -0.3488 -0.1364 -0.1850
   16SAPS   O13 2009   2.831   4.852   6.451 -0.6744 -0.4436  0.4764
   16SAPS   O14 2010   2.668   5.041   6.466  0.1077 -0.8475 -0.2714
   16SAPS   O12 2011   2.593   4.821   6.392 -0.0078 -0.3304 -0.3546
   16SAPS   O11 2012   2.670   4.848   6.629 -0.1804 -0.6713  0.1169
   16SAPS    C1 2013   2.534   4.847   6.682  0.1084 -0.4960 -0.0991
   16SAPS    HA 2014   2.452   4.846   6.606  0.1588 -1.8245 -0.1580
   16SAPS    HB 2015   2.514   4.747   6.727 -1.8176 -0.6295 -1.1168
   16SAPS    C2 2016   2.494   4.949   6.790 -0.7054 -0.2269 -0.0451
   16SAPS    HS 2017   2.482   5.051   6.746  0.3002  0.6046  1.4947
   16SAPS   O21 2018   2.596   4.952   6.891 -0.2405  0.3154 -0.6056
   16SAPS   C21 2019   2.680   5.052   6.884 -0.0957  0.4628  0.7033
   16SAPS   O22 2020   2.675   5.143   6.803  0.2759 -0.3890  0.3608
   16SAPS   C22 2021   2.796   5.030   6.985  0.8638  0.0691  0.0700
   16SAPS   H2R 2022   2.776   4.952   7.061  0.2589  2.0429  2.0252
   16SAPS   H2S 2023   2.890   5.000   6.933  0.7876 -0.1451  0.0533
   16SAPS    C3 2024   2.358   4.921   6.854 -0.9919 -0.0841 -0.3978
   16SAPS    HX 2025   2.382   4.837   6.922 -0.1849 -0.1766 -0.7802
   16SAPS    HY 2026   2.295   4.871   6.777 -0.6780 -0.9993 -0.0680
   16SAPS   O31 2027   2.306   5.028   6.936 -0.0715 -0.2220 -0.4214
   16SAPS   C31 2028   2.234   5.115   6.865  0.4805 -0.0380  0.2157
   16SAPS   O32 2029   2.216   5.111   6.743  0.3068  0.3389 -1.1118
   16SAPS   C32 2030   2.168   5.209   6.968  0.4578  0.5953  0.0588
   16SAPS   H2X 2031   2.232   5.297   6.990  2.0200 -0.4474 -0.1927
   16SAPS   H2Y 2032   2.148   5.150   7.060  1.9527 -0.2402 -0.1268
   16SAPS   C23 2033   2.827   5.159   7.058 -0.3578  0.0796 -0.0605
   16SAPS   H3R 2034   2.851   5.242   6.988 -1.2123  1.6751  1.4488
   16SAPS   H3S 2035   2.912   5.129   7.123 -0.7174 -0.6134  0.0932
   16SAPS   C24 2036   2.711   5.208   7.156  0.0979 -0.0909 -0.0049
   16SAPS   H4R 2037   2.629   5.252   7.096 -1.0673 -2.7292 -0.4976
   16SAPS   H4S 2038   2.763   5.292   7.207  1.7511 -2.5078  2.5816
   16SAPS   C25 2039   2.644   5.117   7.259 -0.2685  0.4838 -0.4309
   16SAPS   H5R 2040   2.574   5.042   7.219 -1.3837  0.7005  1.0314
   16SAPS   C26 2041   2.659   5.120   7.397  0.1051 -0.2288  0.0199
   16SAPS   H6R 2042   2.590   5.060   7.458 -0.2769 -0.2790 -0.4528
   16SAPS   C27 2043   2.744   5.220   7.480 -0.3000  0.5832 -0.2042
   16SAPS   H7R 2044   2.690   5.238   7.575 -0.4356  0.8841 -0.3374
   16SAPS   H7S 2045   2.761   5.316   7.426 -0.1790  0.7470  0.1150
   16SAPS   C28 2046   2.873   5.163   7.523  0.1306 -0.1004  0.1520
   16SAPS   H8R 2047   2.928   5.119   7.438 -0.0101 -0.3054  0.1668
   16SAPS   C29 2048   2.930   5.164   7.644 -0.2479  0.5872  0.1109
   16SAPS   H9R 2049   3.031   5.123   7.659 -0.2094  0.4263 -0.5596
   16SAPS  C210 2050   2.873   5.218   7.768 -0.9029 -0.3042 -0.5684
   16SAPS  H10R 2051   2.808   5.305   7.747  0.0251  1.0390  1.8147
   16SAPS  H10S 2052   2.946   5.281   7.823 -0.9364 -0.6135 -0.1588
   16SAPS  C211 2053   2.807   5.120   7.862  0.2766 -0.2135 -0.1859
   16SAPS  H11R 2054   2.755   5.040   7.808 -0.4543  0.9422 -1.2640
   16SAPS  C212 2055   2.832   5.113   7.996  0.7795  0.0471 -0.2503
   16SAPS  H12R 2056   2.769   5.042   8.052  2.0921 -3.1547 -2.5787
   16SAPS  C213 2057   2.926   5.195   8.078 -0.0536 -0.0998 -0.2099
   16SAPS  H13R 2058   3.007   5.241   8.018 -0.1355 -1.1601 -1.1627
   16SAPS  H13S 2059   2.986   5.129   8.144  2.5711  1.1064 -1.2338
   16SAPS  C214 2060   2.838   5.291   8.158 -0.0129 -0.3804  0.3539
   16SAPS  H14R 2061   2.739   5.304   8.112 -0.0691  0.7294  0.7400
   16SAPS  C215 2062   2.871   5.327   8.285  0.0566  0.4884  0.5462
   16SAPS  H15R 2063   2.802   5.395   8.337 -0.4886 -0.2960  0.8721
   16SAPS  C216 2064   3.000   5.304   8.366  0.4905  0.9473  0.6066
   16SAPS  H16R 2065   3.051   5.398   8.394  2.2714 -0.3414  1.9626
   16SAPS  H16S 2066   3.082   5.260   8.305  0.1791  0.7838  0.3047
   16SAPS  C217 2067   2.993   5.206   8.487  0.1482 -0.5343  0.8979
   16SAPS  H17R 2068   3.094   5.188   8.529 -0.6305 -1.2425  2.5777
   16SAPS  H17S 2069   2.964   5.101   8.461  2.2898 -1.0228  0.2824
   16SAPS  C218 2070   2.898   5.246   8.603 -0.4439  0.4651 -0.3346
   16SAPS  H18R 2071   2.791   5.241   8.575 -0.2863 -0.1285 -0.8627
   16SAPS  H18S 2072   2.923   5.349   8.636 -1.4174  1.0089 -1.2191
   16SAPS  C219 2073   2.913   5.156   8.723  0.0107  0.1201 -0.3961
   16SAPS  H19R 2074   2.995   5.200   8.784  0.2246 -3.2385  2.0114
   16SAPS  H19S 2075   2.945   5.055   8.691 -2.2296  0.0199 -2.7051
   16SAPS  C220 2076   2.783   5.133   8.805  0.0919 -0.7079  0.4228
   16SAPS  H20R 2077   2.710   5.077   8.743  0.2002  0.3659 -0.7128
   16SAPS  H20S 2078   2.730   5.226   8.834 -1.6389 -1.6186  0.2954
   16SAPS  H20T 2079   2.808   5.076   8.897 -0.0692  1.2458  1.7363
   16SAPS   C33 2080   2.033   5.266   6.924  0.8779  0.6211 -0.1155
   16SAPS   H3X 2081   1.974   5.188   6.870  0.7226  1.6802 -1.5175
   16SAPS   H3Y 2082   2.047   5.347   6.850 -0.9549  0.8347 -0.2764
   16SAPS   C34 2083   1.953   5.323   7.043 -0.5738 -0.3147  0.4476
   16SAPS   H4X 2084   1.989   5.426   7.065 -3.1046  0.9423 -0.8207
   16SAPS   H4Y 2085   1.970   5.255   7.129 -2.2582  0.2476  1.2749
   16SAPS   C35 2086   1.800   5.327   7.011  0.1658 -0.5539  0.1882
   16SAPS   H5X 2087   1.757   5.226   7.028 -2.1187  0.4648  0.9025
   16SAPS   H5Y 2088   1.790   5.355   6.904 -0.4757  0.4281  0.4959
   16SAPS   C36 2089   1.736   5.432   7.106  0.0086  0.3875  0.5766
   16SAPS   H6X 2090   1.771   5.535   7.083 -1.3069  0.7452  0.0894
   16SAPS   H6Y 2091   1.760   5.414   7.213  2.0137  0.0090  0.1026
   16SAPS   C37 2092   1.581   5.432   7.091 -0.1976  0.1065 -0.2036
   16SAPS   H7X 2093   1.544   5.332   7.121 -0.5791  0.5661  0.8862
   16SAPS   H7Y 2094   1.555   5.451   6.984  1.4891  0.6499 -0.5473
   16SAPS   C38 2095   1.517   5.542   7.178  0.4851  0.1608 -0.0480
   16SAPS   H8X 2096   1.413   5.568   7.148  1.5690  2.3957 -2.1918
   16SAPS   H8Y 2097   1.566   5.641   7.170 -1.3558  1.0908 -0.5191
   16SAPS   C39 2098   1.523   5.500   7.324 -0.1082 -0.0062  0.0533
   16SAPS   H9X 2099   1.486   5.593   7.373  0.5277 -0.4932  1.5172
   16SAPS   H9Y 2100   1.626   5.480   7.360 -0.7756 -1.0683  1.4470
   16SAPS  C310 2101   1.421   5.392   7.367  0.2468  0.6413  0.6690
   16SAPS  H10X 2102   1.459   5.293   7.332 -1.2373  0.1728  0.2795
   16SAPS  H10Y 2103   1.329   5.399   7.305  0.9382  0.5831 -0.4007
   16SAPS  C311 2104   1.378   5.393   7.514  0.1538  0.5376  0.0035
   16SAPS  H11X 2105   1.300   5.319   7.544  0.6780  0.6174  1.7050
   16SAPS  H11Y 2106   1.332   5.491   7.537 -2.2040 -0.6599  0.6618
   16SAPS  C312 2107   1.490   5.373   7.614 -0.3069 -0.2036 -0.6277
   16SAPS  H12X 2108   1.565   5.454   7.611 -0.2160 -0.2930 -0.8960
   16SAPS  H12Y 2109   1.551   5.285   7.586  1.3773  0.4348  0.8979
   16SAPS  C313 2110   1.448   5.353   7.763  0.1648 -0.1399 -0.2150
   16SAPS  H13X 2111   1.390   5.260   7.781 -0.1521  0.4222  1.8769
   16SAPS  H13Y 2112   1.385   5.439   7.794 -0.6332 -0.1454 -1.7150
   16SAPS  C314 2113   1.576   5.347   7.846  0.6137  0.2455  0.2041
   16SAPS  H14X 2114   1.643   5.434   7.826  1.8155 -0.9617 -1.2604
   16SAPS  H14Y 2115   1.629   5.256   7.810 -1.3525 -0.9047  0.0973
   16SAPS  C315 2116   1.555   5.334   7.995  0.8647 -0.1753  0.1207
   16SAPS  H15X 2117   1.516   5.235   8.027 -0.0181  0.3887  0.8480
   16SAPS  H15Y 2118   1.475   5.405   8.022 -0.3083 -0.4074 -2.4994
   16SAPS  C316 2119   1.674   5.364   8.076  0.7651  0.3889  0.3277
   16SAPS  H16X 2120   1.727   5.451   8.032  1.2315  0.0756  0.2635
   16SAPS  H16Y 2121   1.743   5.278   8.068  0.6689  0.2815  0.6313
   16SAPS  C317 2122   1.630   5.412   8.213  0.0169  0.4734  0.3247
   16SAPS  H17X 2123   1.564   5.330   8.249  1.3892 -1.3789 -1.1446
   16SAPS  H17Y 2124   1.584   5.511   8.190  4.0614  2.1472 -1.4162
   16SAPS  C318 2125   1.744   5.428   8.319 -0.2103 -0.3069 -0.5512
   16SAPS  H18X 2126   1.824   5.485   8.267  1.4394 -1.4121  0.6401
   16SAPS  H18Y 2127   1.788   5.329   8.344  0.0371 -0.2509 -0.7576
   16SAPS  H18Z 2128   1.711   5.472   8.415 -1.2113 -0.6137 -0.7429
   17SAPC     N 2129   0.227   2.112  10.465 -0.4626 -0.0562 -0.2695
   17SAPC   C12 2130   0.262   1.963  10.483  0.5040 -0.5728 -0.0899
   17SAPC  H12A 2131   0.213   1.930  10.574  0.2052 -1.9994 -0.7426
   17SAPC  H12B 2132   0.363   1.960  10.521  1.1633 -0.5786 -1.7588
   17SAPC   C13 2133   0.084   2.138  10.455  0.4842  0.2644  0.3082
   17SAPC  H13A 2134   0.036   2.080  10.378  1.5048  1.9461 -1.6868
   17SAPC  H13B 2135   0.023   2.113  10.540 -3.2708  3.3617 -1.2057
   17SAPC  H13C 2136   0.058   2.238  10.426  2.4060  0.3386 -1.4085
   17SAPC   C14 2137   0.285   2.187  10.583  0.5097 -0.6328  0.0142
   17SAPC  H14A 2138   0.253   2.146  10.677 -2.1854 -0.0427 -0.5697
   17SAPC  H14B 2139   0.393   2.199  10.585  0.4875 -0.4731  1.7727
   17SAPC  H14C 2140   0.247   2.288  10.578 -0.1124 -0.6744  2.7008
   17SAPC   C15 2141   0.301   2.169  10.350  0.1639 -0.2950 -0.0091
   17SAPC  H15A 2142   0.258   2.128  10.259 -1.9917  0.9238  0.3891
   17SAPC  H15B 2143   0.287   2.275  10.340 -2.2703 -0.5073  0.5293
   17SAPC  H15C 2144   0.407   2.152  10.363 -0.3719 -2.1454  2.7366
   17SAPC   C11 2145   0.232   1.858  10.376  0.0927 -0.0661 -0.2843
   17SAPC  H11A 2146   0.267   1.758  10.412  1.3856  0.4752  0.0133
   17SAPC  H11B 2147   0.297   1.891  10.292  1.0526 -0.4574  0.2833
   17SAPC     P 2148  -0.011   1.786  10.435 -0.5471 -0.1450 -0.2054
   17SAPC   O13 2149   0.054   1.762  10.568  0.4651 -0.1762 -0.3049
   17SAPC   O14 2150  -0.136   1.875  10.440  0.1593 -0.1640  0.7154
   17SAPC   O12 2151   0.094   1.853  10.336  0.0960 -0.9200  0.1199
   17SAPC   O11 2152  -0.047   1.653  10.381 -0.1616  0.2857  0.7294
   17SAPC    C1 2153   0.044   1.541  10.365 -0.0389  0.0512 -0.0181
   17SAPC    HA 2154   0.147   1.565  10.401 -0.2785  2.2597 -0.6461
   17SAPC    HB 2155   0.001   1.453  10.416 -0.7557 -0.7643 -1.9419
   17SAPC    C2 2156   0.057   1.493  10.218  0.6518 -0.1204  0.1802
   17SAPC    HS 2157   0.100   1.390  10.224 -0.9148 -0.8801 -1.0171
   17SAPC   O21 2158   0.124   1.586  10.141 -0.9108 -0.3907  0.2320
   17SAPC   C21 2159   0.253   1.566  10.149 -0.7921  0.8325  0.2577
   17SAPC   O22 2160   0.311   1.486  10.221  0.0293 -0.0280 -0.3164
   17SAPC   C22 2161   0.322   1.652  10.042  0.3641  0.3412  0.6470
   17SAPC   H2R 2162   0.239   1.705   9.991 -0.9068 -0.3547  1.9070
   17SAPC   H2S 2163   0.384   1.729  10.093  1.5508 -0.1545 -0.0103
   17SAPC    C3 2164  -0.077   1.466  10.161 -0.4104 -0.3251 -0.6664
   17SAPC    HX 2165  -0.143   1.553  10.184 -2.5805 -2.0255 -0.1628
   17SAPC    HY 2166  -0.136   1.385  10.208 -2.1245  0.3969 -1.4926
   17SAPC   O31 2167  -0.071   1.428  10.024 -0.4519 -0.3342 -0.4481
   17SAPC   C31 2168  -0.080   1.526   9.929  0.1616 -0.3697 -0.5214
   17SAPC   O32 2169  -0.096   1.647   9.949  0.4668 -0.0931 -0.6235
   17SAPC   C32 2170  -0.058   1.448   9.795  0.1529 -0.0955 -0.2680
   17SAPC   H2X 2171  -0.130   1.364   9.796 -0.3416  0.3149  1.1776
   17SAPC   H2Y 2172   0.039   1.396   9.795  0.3707  0.3010  0.2390
   17SAPC   C23 2173   0.412   1.584   9.934  0.1964  0.3719 -0.5456
   17SAPC   H3R 2174   0.357   1.494   9.900 -0.3991  0.1817  0.8494
   17SAPC   H3S 2175   0.503   1.547   9.985  0.2056 -0.6204 -1.2646
   17SAPC   C24 2176   0.453   1.671   9.812  0.0181  0.3408 -0.4154
   17SAPC   H4R 2177   0.554   1.648   9.771  0.1911  0.9324 -0.3285
   17SAPC   H4S 2178   0.466   1.768   9.864 -0.0037 -0.2984  0.8344
   17SAPC   C25 2179   0.341   1.675   9.707  0.1636 -0.2297  0.2123
   17SAPC   H5R 2180   0.241   1.671   9.753  0.5525  0.6042  1.1760
   17SAPC   C26 2181   0.348   1.679   9.571  0.6049  0.0523  0.0456
   17SAPC   H6R 2182   0.251   1.679   9.518 -0.4389 -1.1585  1.8705
   17SAPC   C27 2183   0.472   1.669   9.489  0.4551  0.1959  1.1384
   17SAPC   H7R 2184   0.561   1.635   9.546  1.5134 -1.7082 -1.4658
   17SAPC   H7S 2185   0.500   1.773   9.459  1.2758 -0.1060  0.8503
   17SAPC   C28 2186   0.464   1.572   9.372 -0.1892  0.0521 -0.7853
   17SAPC   H8R 2187   0.434   1.473   9.409 -0.5882 -0.3340 -2.1096
   17SAPC   C29 2188   0.472   1.604   9.245 -0.0048  0.2775  0.5677
   17SAPC   H9R 2189   0.484   1.520   9.175  0.3868  0.3884  0.4985
   17SAPC  C210 2190   0.497   1.741   9.196  0.0906  0.2693 -0.1411
   17SAPC  H10R 2191   0.536   1.813   9.271  0.7966  1.0147 -1.2148
   17SAPC  H10S 2192   0.398   1.788   9.180  1.1785  1.8932 -2.6685
   17SAPC  C211 2193   0.561   1.748   9.060 -0.2420 -0.7248 -0.2764
   17SAPC  H11R 2194   0.649   1.813   9.049 -0.8911  0.0626 -0.8746
   17SAPC  C212 2195   0.512   1.692   8.948  0.2873  0.1892  0.0330
   17SAPC  H12R 2196   0.582   1.714   8.866  0.8257 -2.2364 -0.2407
   17SAPC  C213 2197   0.390   1.608   8.920  0.0919 -0.1431  0.5066
   17SAPC  H13R 2198   0.356   1.547   9.007 -3.3068  2.4719  1.2277
   17SAPC  H13S 2199   0.409   1.527   8.845  0.2477 -2.2053  2.6583
   17SAPC  C214 2200   0.278   1.703   8.884 -0.1120  0.1487  0.1530
   17SAPC  H14R 2201   0.219   1.748   8.965 -3.4451 -0.1213 -1.9099
   17SAPC  C215 2202   0.231   1.760   8.772 -0.0180 -0.0908 -0.0296
   17SAPC  H15R 2203   0.151   1.835   8.782  0.9389  1.0076 -0.3545
   17SAPC  C216 2204   0.295   1.747   8.633  0.5982  0.0297  0.4739
   17SAPC  H16R 2205   0.383   1.679   8.631  1.0137  0.5649 -1.5678
   17SAPC  H16S 2206   0.331   1.850   8.615  1.9474 -0.4663  0.2432
   17SAPC  C217 2207   0.213   1.711   8.498 -0.6164  0.5944 -0.6275
   17SAPC  H17R 2208   0.108   1.747   8.497 -0.9342 -0.2054  0.9811
   17SAPC  H17S 2209   0.215   1.601   8.488  4.1409  0.4572 -0.3982
   17SAPC  C218 2210   0.288   1.753   8.371 -0.4035  0.1825  0.7229
   17SAPC  H18R 2211   0.375   1.689   8.345 -0.4870  0.0740  0.7091
   17SAPC  H18S 2212   0.330   1.855   8.381  0.0458  0.0433  0.2830
   17SAPC  C219 2213   0.195   1.771   8.247 -0.1478 -0.3689 -1.1837
   17SAPC  H19R 2214   0.255   1.833   8.178  2.5759 -3.4383 -1.7891
   17SAPC  H19S 2215   0.094   1.815   8.260  0.2759  1.0975 -2.5170
   17SAPC  C220 2216   0.154   1.635   8.200  0.8978 -0.0506 -0.2837
   17SAPC  H20R 2217   0.243   1.569   8.192 -0.9066 -2.4489 -2.4581
   17SAPC  H20S 2218   0.114   1.634   8.096  1.6717 -2.1561 -0.6144
   17SAPC  H20T 2219   0.087   1.584   8.273  0.5487 -1.4491 -1.5193
   17SAPC   C33 2220  -0.053   1.520   9.663 -0.1517 -0.3813  0.1707
   17SAPC   H3X 2221   0.005   1.613   9.678 -1.4604  0.5380 -0.3194
   17SAPC   H3Y 2222  -0.152   1.557   9.629 -0.1789 -0.8528 -0.2830
   17SAPC   C34 2223   0.016   1.432   9.549  0.8183  0.5312  0.1877
   17SAPC   H4X 2224  -0.030   1.331   9.552  0.7531  0.5644  0.3497
   17SAPC   H4Y 2225   0.124   1.431   9.576  1.1148  0.7106 -0.9761
   17SAPC   C35 2226  -0.002   1.503   9.413 -0.3254  0.5493 -0.2647
   17SAPC   H5X 2227   0.089   1.493   9.350  0.9379  1.2088  1.3512
   17SAPC   H5Y 2228  -0.007   1.614   9.422  0.5797  0.5869 -0.1314
   17SAPC   C36 2229  -0.123   1.449   9.337 -0.0352 -0.1780  0.4344
   17SAPC   H6X 2230  -0.216   1.480   9.390 -0.0851  0.5304 -0.0567
   17SAPC   H6Y 2231  -0.121   1.338   9.330 -0.5518 -0.1361 -0.5495
   17SAPC   C37 2232  -0.133   1.509   9.192 -0.2195  0.5508 -0.2170
   17SAPC   H7X 2233  -0.208   1.455   9.131 -0.1842 -0.4650  0.6058
   17SAPC   H7Y 2234  -0.034   1.490   9.146 -0.7492 -1.6789 -0.5726
   17SAPC   C38 2235  -0.156   1.660   9.184 -1.1288  0.0455  0.2903
   17SAPC   H8X 2236  -0.073   1.717   9.232 -0.7540  1.3536 -1.7889
   17SAPC   H8Y 2237  -0.242   1.695   9.246  1.3286  2.7782  2.5016
   17SAPC   C39 2238  -0.178   1.720   9.036 -0.1649 -0.5065  0.0847
   17SAPC   H9X 2239  -0.085   1.698   8.981  0.4728 -0.3352  1.0680
   17SAPC   H9Y 2240  -0.168   1.830   9.053  0.3488 -0.4077 -0.8159
   17SAPC  C310 2241  -0.302   1.684   8.954  0.1113  0.4163 -0.7562
   17SAPC  H10X 2242  -0.380   1.742   9.008  0.2059  0.1056 -0.2740
   17SAPC  H10Y 2243  -0.310   1.573   8.948  1.5731  0.2986 -0.7836
   17SAPC  C311 2244  -0.297   1.729   8.808 -0.1204  0.3401 -0.7023
   17SAPC  H11X 2245  -0.224   1.812   8.792  0.0706  0.5984  1.2337
   17SAPC  H11Y 2246  -0.398   1.763   8.778  0.0027 -0.6918 -2.3764
   17SAPC  C312 2247  -0.259   1.615   8.703  1.1806 -0.0904  0.2246
   17SAPC  H12X 2248  -0.356   1.572   8.670  1.4272 -0.7747  0.3775
   17SAPC  H12Y 2249  -0.209   1.528   8.751  1.1988 -0.6568 -0.7937
   17SAPC  C313 2250  -0.180   1.662   8.574  0.1163 -0.1062 -0.1777
   17SAPC  H13X 2251  -0.077   1.674   8.614 -0.0311 -0.5822  0.3731
   17SAPC  H13Y 2252  -0.222   1.755   8.531  1.5632  1.3650  1.4396
   17SAPC  C314 2253  -0.165   1.550   8.475  0.6297  0.0597 -0.3152
   17SAPC  H14X 2254  -0.163   1.452   8.526  0.0048 -1.5751 -3.2395
   17SAPC  H14Y 2255  -0.068   1.559   8.420 -0.0149 -1.9188 -1.8999
   17SAPC  C315 2256  -0.282   1.547   8.372  0.0700  0.2237 -0.2697
   17SAPC  H15X 2257  -0.269   1.641   8.314  4.9605 -0.3942 -0.6430
   17SAPC  H15Y 2258  -0.374   1.538   8.434  0.6454  1.0543  0.7318
   17SAPC  C316 2259  -0.277   1.422   8.279 -0.3646 -0.0253  0.0916
   17SAPC  H16X 2260  -0.279   1.333   8.345 -4.3059 -0.7262 -0.7300
   17SAPC  H16Y 2261  -0.180   1.420   8.225  0.5967 -1.1975  1.7658
   17SAPC  C317 2262  -0.402   1.417   8.186  0.4879  0.2353  0.6280
   17SAPC  H17X 2263  -0.422   1.504   8.119 -0.0327 -2.2375 -2.6927
   17SAPC  H17Y 2264  -0.497   1.396   8.239 -0.1177 -0.5861 -0.7301
   17SAPC  C318 2265  -0.379   1.306   8.082 -0.0078 -0.4484  0.2951
   17SAPC  H18X 2266  -0.467   1.269   8.025 -0.7621  1.1990  0.3283
   17SAPC  H18Y 2267  -0.302   1.346   8.013  0.1887 -0.8209  0.2986
   17SAPC  H18Z 2268  -0.339   1.211   8.124  1.2939  0.6982  1.7821
   18SAPC     N 2269   6.826   0.026  10.728 -0.2839 -0.3481  0.3402
   18SAPC   C12 2270   6.981   0.040  10.733  0.0645  0.4550  0.1680
   18SAPC  H12A 2271   7.024  -0.059  10.725 -2.0188 -0.6087  1.2643
   18SAPC  H12B 2272   7.006   0.075  10.832  1.0641  0.8523 -0.2063
   18SAPC   C13 2273   6.769   0.162  10.753  0.2883  0.0014 -0.9348
   18SAPC  H13A 2274   6.662   0.151  10.756 -0.0000  2.0514 -2.1800
   18SAPC  H13B 2275   6.800   0.196  10.851  0.4373  0.0693 -1.0053
   18SAPC  H13C 2276   6.805   0.233  10.681  1.3468  1.6705  1.1042
   18SAPC   C14 2277   6.778  -0.007  10.591  0.9124  0.7483  0.3901
   18SAPC  H14A 2278   6.818  -0.100  10.553  3.3097  1.3776  1.1969
   18SAPC  H14B 2279   6.670  -0.016  10.596  1.0529 -0.1142  2.4038
   18SAPC  H14C 2280   6.805   0.068  10.518  3.0354 -0.0074  0.3391
   18SAPC   C15 2281   6.780  -0.066  10.831 -0.3732 -0.2492 -0.2589
   18SAPC  H15A 2282   6.683  -0.045  10.875  0.0544  0.0006  0.5809
   18SAPC  H15B 2283   6.808  -0.166  10.803  1.2657  0.0651  0.1914
   18SAPC  H15C 2284   6.844  -0.053  10.917 -1.1681  0.2052  0.2865
   18SAPC   C11 2285   7.046   0.127  10.634  0.0271 -0.1947  0.2617
   18SAPC  H11A 2286   7.022   0.235  10.633 -0.3837 -0.2863 -1.1751
   18SAPC  H11B 2287   7.007   0.101  10.533  0.4994 -0.7451  0.2143
   18SAPC     P 2288   7.287   0.154  10.543 -0.0792  0.0443 -0.2366
   18SAPC   O13 2289   7.328   0.294  10.570 -0.2372  0.2736  0.1739
   18SAPC   O14 2290   7.386   0.051  10.542 -0.5948  0.0788 -0.1895
   18SAPC   O12 2291   7.184   0.104  10.647  0.0327 -0.1418  0.0669
   18SAPC   O11 2292   7.213   0.142  10.399  0.7094  0.0661  0.3986
   18SAPC    C1 2293   7.253   0.080  10.279  0.2765 -0.2042 -0.5811
   18SAPC    HA 2294   7.321  -0.006  10.296 -0.1601 -0.3415  0.5371
   18SAPC    HB 2295   7.166   0.040  10.223 -0.1678  1.2812 -0.9833
   18SAPC    C2 2296   7.312   0.183  10.177 -0.1348 -0.2558  0.0857
   18SAPC    HS 2297   7.231   0.260  10.180  0.4430  0.3384  1.4055
   18SAPC   O21 2298   7.314   0.127  10.039  0.0959 -0.3958 -0.1855
   18SAPC   C21 2299   7.314   0.227   9.952 -0.1693  0.3048 -0.5415
   18SAPC   O22 2300   7.302   0.345   9.978 -0.5998  0.2051 -0.4790
   18SAPC   C22 2301   7.361   0.176   9.818 -0.1709 -0.2755  0.1265
   18SAPC   H2R 2302   7.457   0.121   9.828  0.4991  0.7309 -0.6116
   18SAPC   H2S 2303   7.282   0.099   9.801  0.0827 -0.3619 -0.7262
   18SAPC    C3 2304   7.456   0.237  10.222 -0.2427 -0.1902 -0.2308
   18SAPC    HX 2305   7.433   0.287  10.319 -0.1255  3.8583 -2.0649
   18SAPC    HY 2306   7.491   0.311  10.147 -1.8481  0.0911 -0.7561
   18SAPC   O31 2307   7.551   0.133  10.237  0.0246  0.5010  0.1665
   18SAPC   C31 2308   7.618   0.094  10.119 -0.1295 -0.0421 -0.6259
   18SAPC   O32 2309   7.614   0.161  10.017  0.5834 -0.1255 -0.2025
   18SAPC   C32 2310   7.700  -0.027  10.149 -0.1246  0.3968 -0.0597
   18SAPC   H2X 2311   7.619  -0.103  10.139  0.5404 -0.1306 -1.8186
   18SAPC   H2Y 2312   7.746  -0.022  10.250 -0.6410 -2.2334  0.3847
   18SAPC   C23 2313   7.370   0.286   9.711  0.6240  0.6202 -0.1266
   18SAPC   H3R 2314   7.436   0.367   9.749  1.8048  0.3894 -1.5592
   18SAPC   H3S 2315   7.262   0.312   9.707 -0.6129 -3.5795  1.0519
   18SAPC   C24 2316   7.429   0.215   9.586 -0.9552  0.4989  0.0131
   18SAPC   H4R 2317   7.372   0.120   9.573 -0.5407 -0.0610  2.0113
   18SAPC   H4S 2318   7.532   0.193   9.621 -1.4727 -4.2195 -0.6516
   18SAPC   C25 2319   7.436   0.300   9.464 -0.1224  0.5740  0.1365
   18SAPC   H5R 2320   7.535   0.344   9.444 -0.1228 -0.4828 -2.6192
   18SAPC   C26 2321   7.334   0.327   9.379 -0.2263  0.0695 -0.7113
   18SAPC   H6R 2322   7.350   0.394   9.293  3.8327 -1.0636 -1.0291
   18SAPC   C27 2323   7.194   0.262   9.395 -0.5374  0.1182 -0.3080
   18SAPC   H7R 2324   7.163   0.277   9.500  0.4169 -0.4734  0.0747
   18SAPC   H7S 2325   7.214   0.153   9.391 -0.6005  0.0974 -0.0767
   18SAPC   C28 2326   7.100   0.306   9.291  0.6511 -0.0689 -0.5710
   18SAPC   H8R 2327   7.044   0.394   9.325 -0.8741 -1.5695  0.9574
   18SAPC   C29 2328   7.085   0.253   9.171 -0.7125  0.0281 -0.4303
   18SAPC   H9R 2329   7.020   0.295   9.092  0.9047 -0.3319 -2.0256
   18SAPC  C210 2330   7.171   0.144   9.121 -0.1831  0.3772  0.8052
   18SAPC  H10R 2331   7.240   0.093   9.191 -0.9956 -1.5329  0.2932
   18SAPC  H10S 2332   7.248   0.184   9.052 -0.0321  0.5324  1.0658
   18SAPC  C211 2333   7.083   0.054   9.036  0.2688  1.3254 -0.3973
   18SAPC  H11R 2334   6.986   0.039   9.085  0.8234 -1.9770 -0.1063
   18SAPC  C212 2335   7.114  -0.000   8.918 -0.5174 -0.3440 -0.2005
   18SAPC  H12R 2336   7.035  -0.062   8.873  0.2684 -0.1908 -1.8457
   18SAPC  C213 2337   7.243   0.018   8.838  0.2450  0.6191 -0.4912
   18SAPC  H13R 2338   7.326  -0.051   8.866  1.4824  2.1964 -0.1557
   18SAPC  H13S 2339   7.283   0.119   8.859  1.1797 -0.0465  1.0929
   18SAPC  C214 2340   7.200  -0.004   8.691  0.3067  0.3533 -0.3836
   18SAPC  H14R 2341   7.202  -0.108   8.655  2.0639  0.1277  0.2822
   18SAPC  C215 2342   7.167   0.097   8.607  0.2136  0.5084  0.3702
   18SAPC  H15R 2343   7.141   0.071   8.503 -1.7972  1.7187  0.5159
   18SAPC  C216 2344   7.164   0.246   8.634  0.2457 -0.1561  0.3195
   18SAPC  H16R 2345   7.173   0.258   8.744 -0.6243 -3.1894  0.8025
   18SAPC  H16S 2346   7.073   0.296   8.594 -0.7023 -1.3940  0.8795
   18SAPC  C217 2347   7.267   0.312   8.549  0.2319 -0.2874  0.7712
   18SAPC  H17R 2348   7.241   0.285   8.445  0.8922 -2.1597  1.0479
   18SAPC  H17S 2349   7.369   0.272   8.569  0.9153  1.5464  1.2039
   18SAPC  C218 2350   7.270   0.463   8.552 -0.2793  0.2621 -0.3477
   18SAPC  H18R 2351   7.267   0.498   8.658 -0.9612 -0.1878 -0.2106
   18SAPC  H18S 2352   7.182   0.517   8.510 -0.0856  0.8257 -0.0465
   18SAPC  C219 2353   7.396   0.523   8.491  0.2529 -0.1326 -0.4078
   18SAPC  H19R 2354   7.430   0.450   8.415 -1.2311 -1.8038  0.4710
   18SAPC  H19S 2355   7.462   0.527   8.580 -3.9799 -0.8816  3.0742
   18SAPC  C220 2356   7.369   0.654   8.426 -0.1845  0.2398  0.1406
   18SAPC  H20R 2357   7.463   0.672   8.369 -0.3128  1.7661  0.3609
   18SAPC  H20S 2358   7.356   0.742   8.492  1.9879  1.2370 -0.6461
   18SAPC  H20T 2359   7.287   0.645   8.351 -0.6774  1.5453  0.4987
   18SAPC   C33 2360   7.810  -0.067  10.051 -0.0772 -0.1904  0.1803
   18SAPC   H3X 2361   7.861  -0.160  10.086  0.8010  0.7287  1.4213
   18SAPC   H3Y 2362   7.886   0.013  10.056  1.1465 -1.1124 -1.9431
   18SAPC   C34 2363   7.759  -0.072   9.906  0.1754  0.3572 -0.0038
   18SAPC   H4X 2364   7.699   0.015   9.873  0.2665  0.5252  0.2589
   18SAPC   H4Y 2365   7.689  -0.157   9.901 -0.3749  0.8849 -2.8984
   18SAPC   C35 2366   7.877  -0.092   9.807  0.0636 -0.3081 -0.0446
   18SAPC   H5X 2367   7.919  -0.192   9.830  1.3020  0.4554  1.1751
   18SAPC   H5Y 2368   7.957  -0.020   9.835 -1.7111  1.3576  0.9541
   18SAPC   C36 2369   7.847  -0.050   9.665  1.2340 -0.0948 -1.4877
   18SAPC   H6X 2370   7.840   0.061   9.669  0.4245 -0.1722  0.7025
   18SAPC   H6Y 2371   7.746  -0.091   9.642  0.6765 -0.2028  0.8876
   18SAPC   C37 2372   7.943  -0.106   9.563 -0.0461 -0.0315 -0.4582
   18SAPC   H7X 2373   7.966  -0.212   9.585 -0.8185 -0.6764 -2.4603
   18SAPC   H7Y 2374   8.039  -0.051   9.575  0.3538 -0.7599 -0.2371
   18SAPC   C38 2375   7.904  -0.074   9.415 -0.1109  0.0451  0.9167
   18SAPC   H8X 2376   7.893   0.035   9.396 -0.2151 -0.1808 -0.4170
   18SAPC   H8Y 2377   7.807  -0.122   9.393 -0.2835  1.5296 -2.0471
   18SAPC   C39 2378   8.013  -0.123   9.318  0.7446  1.0539  0.1443
   18SAPC   H9X 2379   8.046  -0.227   9.336  1.6961  1.5694  1.5489
   18SAPC   H9Y 2380   8.093  -0.045   9.311  0.5122  1.1272 -3.3135
   18SAPC  C310 2381   7.950  -0.132   9.176  0.8418 -0.3071 -0.6449
   18SAPC  H10X 2382   7.908  -0.033   9.150  0.5929 -0.4583 -0.8338
   18SAPC  H10Y 2383   7.871  -0.210   9.179  0.9500 -0.3883  2.0710
   18SAPC  C311 2384   8.056  -0.162   9.067  0.3778  0.4235  0.7526
   18SAPC  H11X 2385   8.111  -0.255   9.094 -0.4466 -0.6532 -1.1304
   18SAPC  H11Y 2386   8.122  -0.073   9.058  0.3122  0.5446  1.3864
   18SAPC  C312 2387   7.989  -0.193   8.933  0.7902 -0.4172  0.2327
   18SAPC  H12X 2388   7.915  -0.116   8.904 -0.4717 -1.9520 -0.7973
   18SAPC  H12Y 2389   7.919  -0.275   8.957  0.5003  0.0628  1.0724
   18SAPC  C313 2390   8.095  -0.200   8.825 -0.7053  0.2863  0.4495
   18SAPC  H13X 2391   8.174  -0.271   8.853  0.7092  1.6521  0.0741
   18SAPC  H13Y 2392   8.144  -0.101   8.812 -0.8096 -0.0108 -3.5195
   18SAPC  C314 2393   8.054  -0.238   8.683  0.1979 -0.3152  0.5082
   18SAPC  H14X 2394   8.149  -0.234   8.625  0.9401 -2.4936  1.4380
   18SAPC  H14Y 2395   7.979  -0.168   8.640  2.0465  1.3557 -0.1572
   18SAPC  C315 2396   7.996  -0.378   8.669 -0.9143  0.0130 -0.1182
   18SAPC  H15X 2397   7.924  -0.387   8.754  0.2898  0.1097  0.9384
   18SAPC  H15Y 2398   8.066  -0.463   8.681  0.3923  0.8093 -1.7393
   18SAPC  C316 2399   7.926  -0.404   8.532  0.3248  0.4825 -0.0326
   18SAPC  H16X 2400   7.845  -0.331   8.510  0.4147  0.9165  1.0134
   18SAPC  H16Y 2401   7.875  -0.500   8.554  2.8240 -0.8493  0.2572
   18SAPC  C317 2402   8.031  -0.404   8.426 -0.0880  0.0159 -0.2260
   18SAPC  H17X 2403   8.121  -0.467   8.441 -0.3312 -1.0181 -2.7080
   18SAPC  H17Y 2404   8.074  -0.302   8.416 -0.6856  0.1157 -2.0710
   18SAPC  C318 2405   7.978  -0.429   8.291  0.4611 -0.3331  0.3084
   18SAPC  H18X 2406   7.947  -0.535   8.277  0.6431 -0.6959  2.3115
   18SAPC  H18Y 2407   8.053  -0.409   8.212 -0.2339  0.3613 -0.1881
   18SAPC  H18Z 2408   7.898  -0.357   8.266  1.8878  0.5904 -1.9792
   19SAPC     N 2409   5.465   2.610  10.855 -0.7517 -0.0244 -1.0374
   19SAPC   C12 2410   5.589   2.670  10.795 -0.1722  0.2511  0.4263
   19SAPC  H12A 2411   5.668   2.610  10.840  0.2381 -0.0714 -0.6867
   19SAPC  H12B 2412   5.590   2.772  10.830 -2.3714 -0.2447  2.1554
   19SAPC   C13 2413   5.476   2.613  11.007 -0.0501 -0.0799  0.2062
   19SAPC  H13A 2414   5.569   2.567  11.035 -0.3020  0.6150  2.3645
   19SAPC  H13B 2415   5.475   2.715  11.043  0.7640  0.3994 -1.0381
   19SAPC  H13C 2416   5.397   2.560  11.058 -0.4734  0.9264  0.6101
   19SAPC   C14 2417   5.347   2.685  10.813  0.3632 -0.2994 -0.3086
   19SAPC  H14A 2418   5.354   2.778  10.866  1.5141 -2.0783  2.9158
   19SAPC  H14B 2419   5.348   2.703  10.706 -1.3399  1.0235 -0.1466
   19SAPC  H14C 2420   5.258   2.628  10.836  1.0307 -1.0804  0.4210
   19SAPC   C15 2421   5.444   2.472  10.816 -0.1762 -0.1873 -0.2934
   19SAPC  H15A 2422   5.538   2.418  10.818  0.1611  0.4040  0.5533
   19SAPC  H15B 2423   5.363   2.436  10.878  1.2168 -0.9267  1.2056
   19SAPC  H15C 2424   5.417   2.458  10.713  0.0386  1.1623 -0.5533
   19SAPC   C11 2425   5.605   2.662  10.639  0.0495 -0.5449  0.2483
   19SAPC  H11A 2426   5.603   2.560  10.596 -0.6170 -0.4238 -0.0355
   19SAPC  H11B 2427   5.705   2.700  10.609  0.3327 -0.8206  0.8531
   19SAPC     P 2428   5.507   2.890  10.555  0.6132  0.0379  0.5421
   19SAPC   O13 2429   5.378   2.950  10.597 -0.0953  0.0582 -0.5007
   19SAPC   O14 2430   5.632   2.948  10.610  0.5216 -0.3679 -0.6718
   19SAPC   O12 2431   5.498   2.730  10.569  0.1440 -0.3433  0.7220
   19SAPC   O11 2432   5.517   2.894  10.398  0.1236 -0.5732 -0.2062
   19SAPC    C1 2433   5.423   2.821  10.318  0.4398  0.4252  0.1925
   19SAPC    HA 2434   5.475   2.737  10.268 -0.1406  0.3720 -0.3291
   19SAPC    HB 2435   5.339   2.771  10.370 -0.3025  0.8998 -0.5386
   19SAPC    C2 2436   5.357   2.918  10.221  0.5460 -0.1042  0.5210
   19SAPC    HS 2437   5.295   2.859  10.149 -0.2405 -1.4358  2.2144
   19SAPC   O21 2438   5.454   2.994  10.148  0.0663 -0.0903 -0.2130
   19SAPC   C21 2439   5.521   2.933  10.054  0.5907  0.6087 -0.6922
   19SAPC   O22 2440   5.507   2.817  10.011  0.0766  0.3438  0.5274
   19SAPC   C22 2441   5.623   3.034  10.000  0.1297 -0.2389 -0.2558
   19SAPC   H2R 2442   5.574   3.133   9.985 -0.9317 -1.1572 -3.5611
   19SAPC   H2S 2443   5.701   3.036  10.080 -0.3774 -1.1462  0.2858
   19SAPC    C3 2444   5.254   3.020  10.287 -0.2861 -0.1082 -0.3175
   19SAPC    HX 2445   5.313   3.049  10.377  0.1478 -1.2002 -0.2296
   19SAPC    HY 2446   5.164   2.979  10.339  0.3842 -0.3794  0.6610
   19SAPC   O31 2447   5.219   3.131  10.203  0.1759  0.1170  0.0682
   19SAPC   C31 2448   5.130   3.097  10.111 -0.4892  0.4334  0.0320
   19SAPC   O32 2449   5.085   2.984  10.104 -0.1701 -0.3300  0.4484
   19SAPC   C32 2450   5.102   3.224  10.023  0.1595 -0.7442 -0.7344
   19SAPC   H2X 2451   5.203   3.263   9.998  0.0541 -0.2349 -0.3688
   19SAPC   H2Y 2452   5.042   3.299  10.078  1.0159 -0.3176 -0.3580
   19SAPC   C23 2453   5.698   2.994   9.870  0.0412  0.4966  0.7340
   19SAPC   H3R 2454   5.730   2.888   9.883 -1.2055  0.2303  1.8510
   19SAPC   H3S 2455   5.802   3.034   9.875  1.1614 -2.1928  0.9955
   19SAPC   C24 2456   5.641   3.023   9.734  0.5775 -0.0294  0.1107
   19SAPC   H4R 2457   5.713   2.986   9.658 -1.3720  0.7882 -2.2327
   19SAPC   H4S 2458   5.619   3.131   9.721 -1.6645 -0.6328 -1.7518
   19SAPC   C25 2459   5.505   2.956   9.712 -0.4710 -0.2650 -0.0258
   19SAPC   H5R 2460   5.492   2.863   9.770  0.9289 -0.0162  0.7308
   19SAPC   C26 2461   5.410   2.999   9.627  0.0493  0.3077 -0.1690
   19SAPC   H6R 2462   5.319   2.939   9.615 -0.0466  0.4442 -0.1176
   19SAPC   C27 2463   5.411   3.121   9.540  0.0356 -0.0090  0.1669
   19SAPC   H7R 2464   5.390   3.087   9.437 -1.0351 -1.1262  0.7350
   19SAPC   H7S 2465   5.517   3.151   9.526  0.2712 -1.4656 -1.5449
   19SAPC   C28 2466   5.318   3.238   9.560  0.5992 -0.2651  0.8732
   19SAPC   H8R 2467   5.288   3.248   9.665  2.6012  0.2514  1.4353
   19SAPC   C29 2468   5.260   3.310   9.461  0.0459  0.3365  0.0674
   19SAPC   H9R 2469   5.189   3.385   9.498  1.8759  1.5123  1.3317
   19SAPC  C210 2470   5.286   3.299   9.317  0.3221 -0.0524  0.3846
   19SAPC  H10R 2471   5.265   3.197   9.277 -0.9731  0.2353  0.2732
   19SAPC  H10S 2472   5.390   3.334   9.301  0.3340  0.4878  1.5976
   19SAPC  C211 2473   5.193   3.388   9.232  0.0160  0.2301 -0.1437
   19SAPC  H11R 2474   5.091   3.384   9.273  0.8804  0.5766  2.2258
   19SAPC  C212 2475   5.226   3.463   9.127  0.2359 -0.4561  0.5871
   19SAPC  H12R 2476   5.148   3.531   9.089 -1.1946 -2.1183  0.4716
   19SAPC  C213 2477   5.365   3.470   9.061  0.1681  0.2693  0.4490
   19SAPC  H13R 2478   5.359   3.416   8.964 -0.2470 -1.8488  1.5911
   19SAPC  H13S 2479   5.433   3.402   9.117  0.1174  0.5101  0.8013
   19SAPC  C214 2480   5.402   3.609   9.041 -0.2594  0.3454  0.0167
   19SAPC  H14R 2481   5.384   3.668   9.132  0.1081  1.0647 -0.3712
   19SAPC  C215 2482   5.458   3.668   8.933 -0.6364  0.3384 -0.0607
   19SAPC  H15R 2483   5.473   3.777   8.929 -2.0764  0.5052 -2.0387
   19SAPC  C216 2484   5.488   3.601   8.798 -0.5454 -0.0005 -0.5059
   19SAPC  H16R 2485   5.417   3.632   8.719 -2.3121  0.7228  1.2723
   19SAPC  H16S 2486   5.476   3.490   8.801  1.1679 -0.2051  2.1776
   19SAPC  C217 2487   5.631   3.627   8.743  0.4500 -0.2068  0.2158
   19SAPC  H17R 2488   5.695   3.565   8.809 -1.2820 -0.8450  1.3950
   19SAPC  H17S 2489   5.661   3.732   8.762 -0.3133 -0.1739  1.3706
   19SAPC  C218 2490   5.649   3.591   8.596 -0.2491  0.4838 -0.0953
   19SAPC  H18R 2491   5.610   3.489   8.573  0.0468  0.5160 -0.7501
   19SAPC  H18S 2492   5.759   3.589   8.582 -0.1273  0.4470  0.7765
   19SAPC  C219 2493   5.586   3.689   8.493  1.2641 -0.1898  0.0823
   19SAPC  H19R 2494   5.620   3.792   8.516 -0.9183  0.5793  0.1401
   19SAPC  H19S 2495   5.475   3.683   8.502  1.3762 -3.4021  0.5566
   19SAPC  C220 2496   5.608   3.663   8.339  0.1143  0.2387 -0.1902
   19SAPC  H20R 2497   5.583   3.558   8.315 -0.9159  0.4406 -0.0707
   19SAPC  H20S 2498   5.718   3.659   8.325  0.3494  1.8366  0.9305
   19SAPC  H20T 2499   5.585   3.745   8.267  0.1878  0.3302 -0.1100
   19SAPC   C33 2500   5.038   3.189   9.888 -0.2112  0.0061  0.5217
   19SAPC   H3X 2501   4.959   3.112   9.894 -1.1617  0.9601  0.6862
   19SAPC   H3Y 2502   5.109   3.136   9.822 -1.5882  1.1803 -2.0292
   19SAPC   C34 2503   4.987   3.314   9.825  0.4244  0.1841 -0.0099
   19SAPC   H4X 2504   5.066   3.392   9.819 -1.2471  1.9448 -0.4055
   19SAPC   H4Y 2505   4.905   3.359   9.886 -1.9359  1.1053 -3.5720
   19SAPC   C35 2506   4.931   3.285   9.690  0.2840  0.0449  0.4919
   19SAPC   H5X 2507   4.862   3.198   9.685  0.1258  0.1322  1.1003
   19SAPC   H5Y 2508   5.018   3.273   9.621 -1.1852  0.3764 -1.5124
   19SAPC   C36 2509   4.860   3.415   9.644 -0.4705  0.7828  0.2117
   19SAPC   H6X 2510   4.921   3.505   9.666 -0.0838 -0.0023  2.6775
   19SAPC   H6Y 2511   4.774   3.431   9.713 -0.6109 -0.2479  0.2964
   19SAPC   C37 2512   4.819   3.414   9.497  0.1620 -0.7188 -0.0062
   19SAPC   H7X 2513   4.902   3.380   9.432  1.0244 -0.6808  1.0371
   19SAPC   H7Y 2514   4.783   3.515   9.469  0.1477 -1.3664 -2.5947
   19SAPC   C38 2515   4.709   3.318   9.474  0.1999 -0.0213  0.0788
   19SAPC   H8X 2516   4.645   3.317   9.565  0.4390  0.5278  0.2582
   19SAPC   H8Y 2517   4.762   3.222   9.457  1.6503  0.9850 -1.4480
   19SAPC   C39 2518   4.617   3.338   9.348 -0.4000  0.2940 -0.0444
   19SAPC   H9X 2519   4.651   3.437   9.310 -2.1989  1.3575  0.9675
   19SAPC   H9Y 2520   4.516   3.362   9.387 -0.0727 -1.0164  1.7102
   19SAPC  C310 2521   4.613   3.227   9.244  0.7452 -0.1117  0.5183
   19SAPC  H10X 2522   4.531   3.162   9.279 -0.4207  1.9436  1.7304
   19SAPC  H10Y 2523   4.702   3.161   9.231  0.4617 -0.9376  2.4282
   19SAPC  C311 2524   4.572   3.261   9.098  0.1843 -0.3115 -0.2927
   19SAPC  H11X 2525   4.479   3.321   9.098 -0.9760 -2.0333  0.2682
   19SAPC  H11Y 2526   4.550   3.163   9.051  2.6373 -1.5601  0.9411
   19SAPC  C312 2527   4.677   3.331   9.016 -0.9112  0.3861 -0.3608
   19SAPC  H12X 2528   4.768   3.267   9.014 -1.2388 -0.0999 -0.0351
   19SAPC  H12Y 2529   4.703   3.424   9.070  0.1598 -0.3309  0.4153
   19SAPC  C313 2530   4.626   3.368   8.874  0.0805 -0.8074  0.0854
   19SAPC  H13X 2531   4.538   3.435   8.868  1.2778  0.6776 -1.7247
   19SAPC  H13Y 2532   4.589   3.275   8.826 -2.3647 -0.2874  0.8308
   19SAPC  C314 2533   4.742   3.421   8.787 -0.9581 -0.0517 -0.3768
   19SAPC  H14X 2534   4.708   3.413   8.681 -1.3390 -0.2779 -0.2413
   19SAPC  H14Y 2535   4.836   3.362   8.796 -0.4866  0.4833 -1.5970
   19SAPC  C315 2536   4.774   3.571   8.814 -0.7871 -0.6063 -0.0789
   19SAPC  H15X 2537   4.796   3.582   8.922  1.5639  0.2630 -0.5776
   19SAPC  H15Y 2538   4.678   3.625   8.803  0.0662  1.4129  1.7499
   19SAPC  C316 2539   4.886   3.643   8.732  1.0038 -0.3363  0.2651
   19SAPC  H16X 2540   4.860   3.641   8.624 -0.6934  0.2522  0.6386
   19SAPC  H16Y 2541   4.980   3.587   8.750  0.4001 -0.6147  2.9131
   19SAPC  C317 2542   4.898   3.784   8.781 -0.0929 -0.0896 -0.0047
   19SAPC  H17X 2543   4.921   3.796   8.889  1.8177  0.1366 -0.3998
   19SAPC  H17Y 2544   4.809   3.847   8.762  2.1534  2.9277 -1.4752
   19SAPC  C318 2545   5.016   3.848   8.705 -0.5780  0.1178  0.6164
   19SAPC  H18X 2546   5.107   3.790   8.730  0.6321  1.5887 -0.2315
   19SAPC  H18Y 2547   5.032   3.953   8.736 -0.0479  0.3280 -0.3376
   19SAPC  H18Z 2548   5.002   3.840   8.595  0.6450  0.1746  0.4495
   20SAPC     N 2549   6.761   5.195  10.681 -0.5378  0.3655 -1.0881
   20SAPC   C12 2550   6.668   5.312  10.706  0.6274 -0.0684  0.0444
   20SAPC  H12A 2551   6.722   5.404  10.692 -0.1668  0.4608  0.4091
   20SAPC  H12B 2552   6.638   5.309  10.810 -1.8361  1.0908 -0.5583
   20SAPC   C13 2553   6.870   5.215  10.778 -0.0706 -0.8540  0.0473
   20SAPC  H13A 2554   6.927   5.303  10.754 -0.5157 -0.2436  1.1654
   20SAPC  H13B 2555   6.832   5.231  10.878  2.3435  0.0469  0.9064
   20SAPC  H13C 2556   6.934   5.127  10.780 -0.9193 -1.5191 -1.1856
   20SAPC   C14 2557   6.687   5.063  10.693  0.2331  0.0615  0.1486
   20SAPC  H14A 2558   6.755   4.982  10.673  0.5592  0.8394 -2.0827
   20SAPC  H14B 2559   6.641   5.061  10.791 -0.4352 -1.1885 -0.1717
   20SAPC  H14C 2560   6.599   5.057  10.630  1.1174  0.0307 -1.1045
   20SAPC   C15 2561   6.810   5.205  10.537  0.0406 -0.2346 -0.2371
   20SAPC  H15A 2562   6.879   5.125  10.511 -0.3889 -1.0194  0.9532
   20SAPC  H15B 2563   6.725   5.184  10.473 -1.3355  2.3076  0.6078
   20SAPC  H15C 2564   6.847   5.300  10.501  1.5209 -0.0432  1.6236
   20SAPC   C11 2565   6.533   5.319  10.633 -1.5894  0.9420  0.6789
   20SAPC  H11A 2566   6.553   5.297  10.527 -2.1620  0.0937  0.7442
   20SAPC  H11B 2567   6.502   5.426  10.635 -0.8013  1.2565 -1.3669
   20SAPC     P 2568   6.352   5.252  10.807 -0.2433  0.0773 -0.0621
   20SAPC   O13 2569   6.298   5.126  10.846 -0.0076  0.9867 -1.0088
   20SAPC   O14 2570   6.435   5.322  10.910  0.5275 -0.0390  0.0280
   20SAPC   O12 2571   6.437   5.226  10.682 -0.0802 -0.2036 -0.4368
   20SAPC   O11 2572   6.243   5.353  10.754  0.0073  0.2437  0.4808
   20SAPC    C1 2573   6.181   5.325  10.626 -0.8162  0.1359  0.2208
   20SAPC    HA 2574   6.208   5.224  10.589  0.6472  0.3183  0.7204
   20SAPC    HB 2575   6.070   5.320  10.631 -0.8488 -2.6087 -1.1177
   20SAPC    C2 2576   6.214   5.438  10.526 -0.1008  0.0458 -0.2414
   20SAPC    HS 2577   6.319   5.474  10.530 -0.4908  1.2455 -0.4382
   20SAPC   O21 2578   6.117   5.549  10.538 -0.2411  0.4358  0.1223
   20SAPC   C21 2579   6.157   5.665  10.578 -0.2759  0.0419  0.5504
   20SAPC   O22 2580   6.272   5.698  10.592  0.8912  0.2190  0.2795
   20SAPC   C22 2581   6.039   5.769  10.596 -0.2626  0.1122 -0.0153
   20SAPC   H2R 2582   5.956   5.715  10.546  1.1548 -3.2660  1.0394
   20SAPC   H2S 2583   6.004   5.763  10.701 -0.2737 -2.2281 -0.1090
   20SAPC    C3 2584   6.199   5.379  10.384  0.4393  0.1378  0.0962
   20SAPC    HX 2585   6.092   5.354  10.368  0.3006 -0.4539  1.7544
   20SAPC    HY 2586   6.253   5.282  10.378 -3.0783 -1.9084 -2.6269
   20SAPC   O31 2587   6.241   5.472  10.281  0.4850 -0.2330  0.1377
   20SAPC   C31 2588   6.177   5.496  10.169 -0.0637  0.8253  0.7756
   20SAPC   O32 2589   6.070   5.447  10.138  0.5636  0.3683  0.1761
   20SAPC   C32 2590   6.247   5.611  10.090  0.4401 -0.4539  0.7883
   20SAPC   H2X 2591   6.321   5.653  10.161 -2.0871  0.4930  3.0417
   20SAPC   H2Y 2592   6.175   5.694  10.081  2.3577  1.1216 -0.8507
   20SAPC   C23 2593   6.068   5.917  10.548  1.1196 -0.0507  0.2596
   20SAPC   H3R 2594   6.160   5.963  10.590  1.2104  2.1455 -2.1367
   20SAPC   H3S 2595   5.984   5.980  10.584 -1.6033 -2.3108 -1.7135
   20SAPC   C24 2596   6.052   5.936  10.393  0.3120  0.2531 -0.2785
   20SAPC   H4R 2597   6.028   6.044  10.383 -1.8911 -0.0973  0.6668
   20SAPC   H4S 2598   5.964   5.879  10.355 -0.1157  1.2362 -0.8210
   20SAPC   C25 2599   6.182   5.895  10.326  0.3468  0.2090 -0.1503
   20SAPC   H5R 2600   6.212   5.794  10.357 -1.8244 -0.8954 -1.4221
   20SAPC   C26 2601   6.263   5.964  10.247 -0.2298 -1.0115  0.5549
   20SAPC   H6R 2602   6.340   5.902  10.200 -0.7551 -2.3201  1.3677
   20SAPC   C27 2603   6.246   6.105  10.190  0.6710 -0.1394 -0.3477
   20SAPC   H7R 2604   6.305   6.183  10.241  1.2490 -1.0831  0.4780
   20SAPC   H7S 2605   6.141   6.137  10.203 -0.5180 -2.5072 -2.8681
   20SAPC   C28 2606   6.271   6.104  10.044 -0.3926 -0.7345 -0.6790
   20SAPC   H8R 2607   6.376   6.127  10.019  0.5085 -3.1471  0.5857
   20SAPC   C29 2608   6.180   6.087   9.945  0.0001 -0.2844 -0.1030
   20SAPC   H9R 2609   6.210   6.096   9.839 -1.0040  0.8983 -0.3249
   20SAPC  C210 2610   6.029   6.075   9.961  0.1448  0.4352 -0.1178
   20SAPC  H10R 2611   5.984   6.132   9.877  1.1445 -0.4489 -1.3019
   20SAPC  H10S 2612   5.992   6.124  10.053  0.3367  0.8315 -0.2508
   20SAPC  C211 2613   5.993   5.932   9.980 -0.5106 -0.0335  0.5259
   20SAPC  H11R 2614   6.033   5.889  10.074  1.8804 -0.7857 -0.7525
   20SAPC  C212 2615   5.908   5.862   9.899  0.7276 -0.6307 -0.1002
   20SAPC  H12R 2616   5.870   5.764   9.932 -2.0820 -0.1072 -1.4909
   20SAPC  C213 2617   5.840   5.902   9.775  0.1878  0.1043 -0.1291
   20SAPC  H13R 2618   5.905   5.860   9.696  1.5893  1.1539  0.4298
   20SAPC  H13S 2619   5.848   6.012   9.760  0.1925  0.2533  0.8642
   20SAPC  C214 2620   5.694   5.852   9.774  0.6039  0.6776  0.1648
   20SAPC  H14R 2621   5.648   5.863   9.873 -0.5183 -0.5423 -0.1976
   20SAPC  C215 2622   5.619   5.828   9.666 -0.2705 -0.0680 -0.9970
   20SAPC  H15R 2623   5.516   5.793   9.683 -0.5938  1.7999  1.5122
   20SAPC  C216 2624   5.660   5.833   9.523  0.0899 -0.6279  0.2581
   20SAPC  H16R 2625   5.643   5.737   9.470  2.9954 -2.3026  2.0813
   20SAPC  H16S 2626   5.770   5.844   9.513 -0.0864 -0.4033 -1.8030
   20SAPC  C217 2627   5.595   5.948   9.441  0.4537 -0.1234 -0.6666
   20SAPC  H17R 2628   5.634   6.043   9.484 -0.6776 -0.5813  1.5107
   20SAPC  H17S 2629   5.484   5.946   9.454  0.2403  4.5276  0.0955
   20SAPC  C218 2630   5.620   5.941   9.290  0.4549 -0.2137 -0.7121
   20SAPC  H18R 2631   5.564   5.853   9.251  2.0557 -1.1777 -0.9300
   20SAPC  H18S 2632   5.728   5.914   9.283  0.3305 -1.2871  0.8707
   20SAPC  C219 2633   5.598   6.066   9.204  0.2199  0.5065  0.5549
   20SAPC  H19R 2634   5.628   6.034   9.102  2.8658 -1.2285  1.7517
   20SAPC  H19S 2635   5.661   6.151   9.238  1.2512  0.5604 -1.3526
   20SAPC  C220 2636   5.453   6.115   9.210 -0.8649  1.5588 -0.2005
   20SAPC  H20R 2637   5.439   6.191   9.131  1.2577  1.4057 -0.7991
   20SAPC  H20S 2638   5.441   6.155   9.313 -0.3129 -0.3687  0.6714
   20SAPC  H20T 2639   5.382   6.032   9.191  0.8165 -0.5113  1.9153
   20SAPC   C33 2640   6.307   5.577   9.951 -0.2608  0.2182 -0.0414
   20SAPC   H3X 2641   6.244   5.520   9.879 -2.8033  4.1769 -1.2925
   20SAPC   H3Y 2642   6.408   5.532   9.950  0.1788  1.1599  0.6362
   20SAPC   C34 2643   6.322   5.712   9.866  0.3556 -0.0357  0.0035
   20SAPC   H4X 2644   6.389   5.784   9.917 -0.4996  0.4309  0.4840
   20SAPC   H4Y 2645   6.221   5.753   9.845 -0.5699 -2.2762 -0.2321
   20SAPC   C35 2646   6.384   5.674   9.731  0.1623 -0.2317  0.3448
   20SAPC   H5X 2647   6.305   5.628   9.668  0.4429  0.1355 -0.2868
   20SAPC   H5Y 2648   6.452   5.589   9.753  2.0743  1.4085  1.0843
   20SAPC   C36 2649   6.456   5.791   9.657  1.2026 -0.2969 -0.1796
   20SAPC   H6X 2650   6.503   5.758   9.562 -0.2621  1.3165 -1.5225
   20SAPC   H6Y 2651   6.536   5.820   9.728  0.2533  0.9440  0.4381
   20SAPC   C37 2652   6.376   5.921   9.631  0.4998 -0.2741 -0.3243
   20SAPC   H7X 2653   6.437   6.012   9.614  0.6116 -0.6922 -2.4552
   20SAPC   H7Y 2654   6.322   5.943   9.726  0.0531  0.4328 -0.7400
   20SAPC   C38 2655   6.268   5.908   9.519  0.1438 -0.7884  0.2116
   20SAPC   H8X 2656   6.232   5.803   9.520 -0.5137 -0.6026 -1.3477
   20SAPC   H8Y 2657   6.317   5.927   9.421 -1.6591  0.0574 -0.5562
   20SAPC   C39 2658   6.166   6.015   9.539  0.1283 -0.2209 -0.4539
   20SAPC   H9X 2659   6.205   6.119   9.538  0.9649 -0.5042  0.6103
   20SAPC   H9Y 2660   6.126   6.005   9.643 -2.7638  4.0233 -0.8787
   20SAPC  C310 2661   6.042   6.003   9.441 -0.0475  0.5645 -0.0634
   20SAPC  H10X 2662   5.952   6.049   9.485 -0.5235 -1.4529  1.1948
   20SAPC  H10Y 2663   6.014   5.896   9.450 -1.5367  0.9495  0.0781
   20SAPC  C311 2664   6.077   6.049   9.299  0.4475 -0.2134 -0.0660
   20SAPC  H11X 2665   6.172   5.996   9.275  1.0628  0.0749  1.5548
   20SAPC  H11Y 2666   6.109   6.155   9.297  1.3667 -0.4592  0.5477
   20SAPC  C312 2667   5.970   6.030   9.199 -0.7287 -0.6370  0.1849
   20SAPC  H12X 2668   5.886   6.097   9.228 -0.5295 -0.6103  0.7103
   20SAPC  H12Y 2669   5.944   5.922   9.200 -0.7260 -0.6450 -0.4620
   20SAPC  C313 2670   6.008   6.080   9.062 -0.1743 -0.7430 -0.1561
   20SAPC  H13X 2671   6.041   6.185   9.068 -0.7104 -0.6419  1.5512
   20SAPC  H13Y 2672   5.917   6.076   8.998  0.3247  0.9332 -1.0024
   20SAPC  C314 2673   6.117   5.997   8.988  0.5499 -0.0077 -0.5041
   20SAPC  H14X 2674   6.215   6.020   9.036  1.4583 -2.3136 -1.0897
   20SAPC  H14Y 2675   6.115   6.034   8.883  1.1405 -0.6415 -0.7470
   20SAPC  C315 2676   6.102   5.843   8.994  0.2460  0.2885  0.0942
   20SAPC  H15X 2677   5.996   5.811   8.996  0.6570 -1.0951  0.4146
   20SAPC  H15Y 2678   6.135   5.812   9.095  0.3995 -0.6617 -0.2446
   20SAPC  C316 2679   6.202   5.779   8.889  0.0851 -0.0349  0.0480
   20SAPC  H16X 2680   6.234   5.860   8.820  0.0688  2.6240  2.9364
   20SAPC  H16Y 2681   6.158   5.705   8.819  0.1527 -2.3179  2.2808
   20SAPC  C317 2682   6.311   5.699   8.963 -0.0189 -0.1750 -0.0020
   20SAPC  H17X 2683   6.345   5.627   8.887 -1.9653  0.2099 -1.2926
   20SAPC  H17Y 2684   6.275   5.636   9.047  2.2200 -1.0182  0.4075
   20SAPC  C318 2685   6.425   5.780   9.018  0.3614  0.0512 -0.0265
   20SAPC  H18X 2686   6.388   5.856   9.089 -0.3334 -0.9032  0.6596
   20SAPC  H18Y 2687   6.480   5.835   8.938  2.0169  2.3332  2.5065
   20SAPC  H18Z 2688   6.504   5.717   9.066 -0.7337 -2.4781 -1.3265
   21SAPC     N 2689   6.385   4.229  10.843 -0.6296 -0.4076 -0.9547
   21SAPC   C12 2690   6.496   4.156  10.777 -0.0172 -0.5052 -0.1159
   21SAPC  H12A 2691   6.494   4.168  10.669  1.1557 -1.0857 -0.2217
   21SAPC  H12B 2692   6.483   4.048  10.782  0.3136 -0.6036 -1.0442
   21SAPC   C13 2693   6.389   4.369  10.799  0.1696  0.0712  0.0356
   21SAPC  H13A 2694   6.485   4.414  10.819  0.4441 -1.2811  1.9369
   21SAPC  H13B 2695   6.364   4.390  10.696  0.6844  3.1667  0.4625
   21SAPC  H13C 2696   6.324   4.432  10.857 -1.3534 -2.8187  1.6557
   21SAPC   C14 2697   6.257   4.173  10.792 -0.3113  0.3775  0.6350
   21SAPC  H14A 2698   6.241   4.199  10.689 -2.2703 -2.0724  0.2494
   21SAPC  H14B 2699   6.252   4.067  10.807  1.9661  0.3977  2.1118
   21SAPC  H14C 2700   6.179   4.221  10.850  0.9803  0.6216  2.2632
   21SAPC   C15 2701   6.397   4.219  10.995 -0.1281  0.3035  0.2175
   21SAPC  H15A 2702   6.494   4.258  11.024 -0.3262  0.4617  0.6703
   21SAPC  H15B 2703   6.317   4.257  11.056  0.7588 -1.0862  2.3910
   21SAPC  H15C 2704   6.395   4.115  11.025 -2.5008  0.8967  2.4275
   21SAPC   C11 2705   6.642   4.177  10.827 -0.5691 -0.1237  0.6425
   21SAPC  H11A 2706   6.695   4.113  10.754 -2.0579  0.3292 -0.8940
   21SAPC  H11B 2707   6.673   4.142  10.928  1.1129  0.3474  0.3151
   21SAPC     P 2708   6.768   4.382  10.706  0.3644  0.3467 -0.2452
   21SAPC   O13 2709   6.732   4.520  10.701 -0.2238  0.0702 -0.1352
   21SAPC   O14 2710   6.912   4.348  10.731  0.2951  0.1603  0.7412
   21SAPC   O12 2711   6.686   4.315  10.824  0.0626 -0.0099 -0.3436
   21SAPC   O11 2712   6.710   4.305  10.583 -0.0837 -0.5732 -0.6835
   21SAPC    C1 2713   6.788   4.279  10.471 -0.9494  0.9875 -0.0548
   21SAPC    HA 2714   6.883   4.224  10.494 -0.6353  1.1185 -0.9812
   21SAPC    HB 2715   6.731   4.203  10.413  0.5009  0.7840 -1.3025
   21SAPC    C2 2716   6.808   4.407  10.378  0.0085 -0.0768  0.9277
   21SAPC    HS 2717   6.862   4.479  10.442  0.9102 -0.6856  0.8645
   21SAPC   O21 2718   6.676   4.450  10.335  0.5793 -0.5436  0.3488
   21SAPC   C21 2719   6.679   4.575  10.281 -0.1507  0.1629  0.1663
   21SAPC   O22 2720   6.777   4.646  10.278  0.0119  0.1183 -0.0476
   21SAPC   C22 2721   6.547   4.596  10.198  0.3611 -0.6038 -0.0959
   21SAPC   H2R 2722   6.526   4.502  10.145 -0.9701 -0.6875  0.5544
   21SAPC   H2S 2723   6.465   4.620  10.269  0.1333  1.5916 -1.0066
   21SAPC    C3 2724   6.919   4.386  10.270 -0.4056 -0.5249  0.2325
   21SAPC    HX 2725   7.006   4.346  10.327  1.2899 -0.1880 -1.9766
   21SAPC    HY 2726   6.943   4.489  10.235 -3.9221 -0.8278 -3.7618
   21SAPC   O31 2727   6.895   4.295  10.159  0.3272 -0.3057  0.2340
   21SAPC   C31 2728   6.884   4.359  10.036  0.0940 -0.6043 -0.2946
   21SAPC   O32 2729   6.903   4.481  10.028 -0.1912 -0.2515  0.2644
   21SAPC   C32 2730   6.847   4.272   9.924 -0.3591  0.1558 -0.0465
   21SAPC   H2X 2731   6.761   4.211   9.959 -0.4402  0.7938  0.8778
   21SAPC   H2Y 2732   6.933   4.204   9.902 -0.6042  0.1057 -0.9236
   21SAPC   C23 2733   6.569   4.711  10.090  0.1688 -0.2392  0.0849
   21SAPC   H3R 2734   6.658   4.693  10.027  0.2693 -1.6734  0.5916
   21SAPC   H3S 2735   6.589   4.809  10.138  2.9771 -0.8237  0.2410
   21SAPC   C24 2736   6.449   4.736   9.994  0.4182  0.2957 -0.2931
   21SAPC   H4R 2737   6.356   4.768  10.045  0.0389 -1.1655 -0.0438
   21SAPC   H4S 2738   6.428   4.636   9.952  2.5807 -0.3247 -0.0355
   21SAPC   C25 2739   6.471   4.837   9.883 -0.2093  0.2977  0.3251
   21SAPC   H5R 2740   6.496   4.936   9.924 -1.0761  1.4435 -1.7804
   21SAPC   C26 2741   6.462   4.820   9.748 -0.0564 -0.1219  0.2975
   21SAPC   H6R 2742   6.482   4.906   9.682 -0.1949 -1.1471 -1.1272
   21SAPC   C27 2743   6.425   4.696   9.677  0.3780  0.2360 -0.1539
   21SAPC   H7R 2744   6.351   4.637   9.736 -0.1498 -0.1345 -1.1571
   21SAPC   H7S 2745   6.514   4.629   9.673  0.9378  0.8114  1.7753
   21SAPC   C28 2746   6.385   4.695   9.534  0.4123  0.6341  0.2466
   21SAPC   H8R 2747   6.449   4.635   9.469  0.4216  0.2447  0.6096
   21SAPC   C29 2748   6.264   4.730   9.487 -1.1805 -0.0079  0.5430
   21SAPC   H9R 2749   6.256   4.723   9.377  0.3723  0.7585  0.3441
   21SAPC  C210 2750   6.153   4.782   9.571 -0.2007 -0.0033 -0.9404
   21SAPC  H10R 2751   6.131   4.884   9.532  1.2784 -0.1086 -2.1097
   21SAPC  H10S 2752   6.170   4.788   9.681 -1.9176  2.3149 -0.7103
   21SAPC  C211 2753   6.036   4.687   9.554 -0.2251  0.5088  0.3054
   21SAPC  H11R 2754   6.052   4.586   9.596 -0.3543 -0.8170 -2.5722
   21SAPC  C212 2755   5.939   4.703   9.462 -0.4261 -0.1658  1.0618
   21SAPC  H12R 2756   5.873   4.619   9.435  1.0653 -0.5568 -1.7724
   21SAPC  C213 2757   5.918   4.822   9.367  0.1680 -0.0729  0.1480
   21SAPC  H13R 2758   5.944   4.810   9.260  0.8818  0.7564  0.2159
   21SAPC  H13S 2759   5.985   4.905   9.399 -1.2315  1.0680  0.2655
   21SAPC  C214 2760   5.770   4.862   9.372  0.6600 -0.3871 -0.7298
   21SAPC  H14R 2761   5.720   4.847   9.469  2.7447 -2.6937  0.1064
   21SAPC  C215 2762   5.700   4.913   9.269  0.5970  1.0670  0.2450
   21SAPC  H15R 2763   5.590   4.923   9.275  0.2652 -1.2327 -0.6014
   21SAPC  C216 2764   5.753   4.944   9.127 -0.5508 -0.3724  0.0304
   21SAPC  H16R 2765   5.862   4.959   9.141 -0.5777  1.4093 -1.3557
   21SAPC  H16S 2766   5.715   5.040   9.087 -0.7357  1.2548  3.7667
   21SAPC  C217 2767   5.721   4.818   9.041  0.1451 -0.8133 -0.0481
   21SAPC  H17R 2768   5.611   4.804   9.050 -0.0192 -0.6905 -1.5174
   21SAPC  H17S 2769   5.769   4.727   9.081  1.8588  0.5173  1.0791
   21SAPC  C218 2770   5.756   4.837   8.892 -0.4022  0.7744 -0.2191
   21SAPC  H18R 2771   5.866   4.848   8.896 -0.0522 -2.0242 -0.4122
   21SAPC  H18S 2772   5.719   4.935   8.854 -0.7106  1.1237  0.9368
   21SAPC  C219 2773   5.708   4.724   8.812  0.2721  0.8288  1.0302
   21SAPC  H19R 2774   5.598   4.718   8.823  0.3051 -2.5360  0.5244
   21SAPC  H19S 2775   5.749   4.631   8.855 -0.3356 -0.2637 -0.6661
   21SAPC  C220 2776   5.768   4.724   8.670  0.5893 -0.0628 -0.4227
   21SAPC  H20R 2777   5.878   4.741   8.668  0.4492  0.8641 -1.7256
   21SAPC  H20S 2778   5.710   4.798   8.611  1.6025  0.6361 -0.5824
   21SAPC  H20T 2779   5.745   4.621   8.633  0.9149  0.1251 -1.1809
   21SAPC   C33 2780   6.798   4.342   9.795  0.4343  0.0659 -0.5485
   21SAPC   H3X 2781   6.871   4.408   9.743  1.7233 -0.3615  0.6501
   21SAPC   H3Y 2782   6.715   4.408   9.830  0.9114 -0.0800  0.9290
   21SAPC   C34 2783   6.732   4.243   9.695  0.4650 -0.4213 -0.6107
   21SAPC   H4X 2784   6.657   4.186   9.753  0.8978  0.1704  0.5736
   21SAPC   H4Y 2785   6.802   4.171   9.647 -0.3379 -0.1045 -2.3373
   21SAPC   C35 2786   6.659   4.318   9.584 -0.3777 -0.0483  0.6267
   21SAPC   H5X 2787   6.707   4.418   9.572 -1.3654  0.2527 -1.0956
   21SAPC   H5Y 2788   6.555   4.341   9.615 -0.7493  2.4260 -2.0689
   21SAPC   C36 2789   6.653   4.243   9.449 -0.1282  0.4484 -0.1197
   21SAPC   H6X 2790   6.618   4.138   9.465 -0.1443  0.3978 -0.4645
   21SAPC   H6Y 2791   6.757   4.223   9.416 -1.4023 -1.6583 -3.5392
   21SAPC   C37 2792   6.552   4.316   9.360  0.0152 -0.1386  0.5461
   21SAPC   H7X 2793   6.552   4.424   9.384  1.4659 -0.1120  0.5379
   21SAPC   H7Y 2794   6.456   4.272   9.395  0.7399 -1.8473  0.5235
   21SAPC   C38 2795   6.557   4.282   9.209  0.7719 -0.2719 -0.2300
   21SAPC   H8X 2796   6.546   4.172   9.198 -0.4354 -0.3156  1.0893
   21SAPC   H8Y 2797   6.653   4.324   9.172  0.8856  0.0673  0.4252
   21SAPC   C39 2798   6.437   4.339   9.121 -0.3709  0.1889 -0.2672
   21SAPC   H9X 2799   6.422   4.448   9.137 -0.9556  0.0669  0.0457
   21SAPC   H9Y 2800   6.347   4.278   9.144  1.8679 -2.1532  2.9748
   21SAPC  C310 2801   6.473   4.321   8.969 -0.4673  0.0547  0.4813
   21SAPC  H10X 2802   6.488   4.218   8.930 -2.1473 -0.4289  1.0106
   21SAPC  H10Y 2803   6.563   4.381   8.943 -1.0818  1.1263  0.7781
   21SAPC  C311 2804   6.371   4.396   8.884 -0.1911  0.3913  0.4981
   21SAPC  H11X 2805   6.345   4.490   8.938  1.5795  0.6518  0.9866
   21SAPC  H11Y 2806   6.282   4.330   8.875 -0.0046  0.3652 -1.5246
   21SAPC  C312 2807   6.413   4.400   8.740  0.1361 -0.2666 -0.0206
   21SAPC  H12X 2808   6.428   4.302   8.691 -3.6483 -0.5071 -1.0467
   21SAPC  H12Y 2809   6.514   4.446   8.735  0.5726 -1.3222 -1.5013
   21SAPC  C313 2810   6.309   4.477   8.651  0.4266  0.0775  0.7479
   21SAPC  H13X 2811   6.363   4.501   8.557 -1.6209 -0.9904 -0.7722
   21SAPC  H13Y 2812   6.274   4.566   8.708 -0.6667  0.4477 -0.4484
   21SAPC  C314 2813   6.195   4.386   8.623  0.4978 -0.8386  0.7200
   21SAPC  H14X 2814   6.145   4.357   8.717  2.3437  0.6059  2.2291
   21SAPC  H14Y 2815   6.222   4.291   8.572  0.3698 -0.7289  0.4435
   21SAPC  C315 2816   6.085   4.452   8.532  0.0548 -0.8005  0.1241
   21SAPC  H15X 2817   6.125   4.504   8.443 -0.5247  0.5075  0.6031
   21SAPC  H15Y 2818   6.022   4.525   8.588 -2.7101 -1.0521 -2.4172
   21SAPC  C316 2819   5.985   4.346   8.469 -0.5448  0.2473  0.6472
   21SAPC  H16X 2820   6.044   4.271   8.413 -1.8629 -0.7640  0.5418
   21SAPC  H16Y 2821   5.913   4.399   8.402 -2.5464 -2.1843  0.7179
   21SAPC  C317 2822   5.894   4.272   8.569  0.4297 -0.0701  0.0995
   21SAPC  H17X 2823   5.943   4.192   8.628 -2.8906 -1.0814  1.7779
   21SAPC  H17Y 2824   5.821   4.206   8.517  1.2817 -1.7157  0.9106
   21SAPC  C318 2825   5.810   4.357   8.656 -0.2206 -0.4122  0.1756
   21SAPC  H18X 2826   5.862   4.431   8.720 -0.8902  1.0265 -0.8887
   21SAPC  H18Y 2827   5.746   4.308   8.732 -1.1388 -0.4178 -0.5824
   21SAPC  H18Z 2828   5.759   4.423   8.583  3.1363  0.5586 -1.5117
   22SAPC     N 2829   3.848   1.908  10.882 -0.0221 -0.1124 -0.5548
   22SAPC   C12 2830   3.846   1.931  10.740  0.3157  0.4159  0.5516
   22SAPC  H12A 2831   3.743   1.944  10.710  0.0597 -3.9047 -1.1071
   22SAPC  H12B 2832   3.866   1.839  10.687 -0.2242 -0.2233  1.4276
   22SAPC   C13 2833   3.725   1.831  10.924 -0.6141 -0.0537  0.9242
   22SAPC  H13A 2834   3.628   1.876  10.906 -0.9852 -1.0675  0.3050
   22SAPC  H13B 2835   3.718   1.740  10.867  3.1964  0.0519 -0.0161
   22SAPC  H13C 2836   3.735   1.806  11.029 -3.3237 -0.3761  1.1690
   22SAPC   C14 2837   3.967   1.823  10.927  0.3984  0.2195  0.2551
   22SAPC  H14A 2838   3.977   1.735  10.865  0.1635  0.0374  0.4781
   22SAPC  H14B 2839   4.053   1.887  10.912  0.0577  0.5688 -0.2375
   22SAPC  H14C 2840   3.948   1.800  11.031 -0.0995  1.1239  0.3767
   22SAPC   C15 2841   3.840   2.033  10.969 -0.2749 -0.0603  1.0409
   22SAPC  H15A 2842   3.739   2.072  10.966  0.2328  1.2781 -0.0939
   22SAPC  H15B 2843   3.864   2.003  11.070  2.6195  1.7945  1.0363
   22SAPC  H15C 2844   3.924   2.095  10.942  0.0905 -1.4029 -1.2138
   22SAPC   C11 2845   3.942   2.040  10.688 -0.9138  0.4147  0.0602
   22SAPC  H11A 2846   3.958   2.030  10.578  1.4271  1.7681  0.2176
   22SAPC  H11B 2847   4.044   2.011  10.721 -0.5187 -0.4490 -1.7983
   22SAPC     P 2848   4.004   2.296  10.729 -0.2030 -0.0255  0.1257
   22SAPC   O13 2849   3.944   2.402  10.814 -0.0505 -0.3910  0.4977
   22SAPC   O14 2850   4.138   2.241  10.772  0.7762  0.1533 -0.0590
   22SAPC   O12 2851   3.903   2.176  10.724 -0.2818  0.1289  0.0655
   22SAPC   O11 2852   4.020   2.353  10.583  0.2485 -0.3277  0.2709
   22SAPC    C1 2853   3.985   2.282  10.461 -0.4906  0.3024  0.0334
   22SAPC    HA 2854   4.042   2.186  10.455  1.2010  1.1853  1.1134
   22SAPC    HB 2855   3.877   2.259  10.450 -0.6481  1.9243 -2.8352
   22SAPC    C2 2856   4.018   2.369  10.335 -0.4361  0.2033  0.6183
   22SAPC    HS 2857   3.950   2.337  10.254  2.2658 -3.1664 -0.5431
   22SAPC   O21 2858   4.153   2.347  10.297  0.3283  0.6708 -0.1242
   22SAPC   C21 2859   4.178   2.238  10.222 -0.9943 -1.4547 -0.6673
   22SAPC   O22 2860   4.092   2.161  10.193  0.4356  0.6237 -0.1410
   22SAPC   C22 2861   4.321   2.222  10.184 -0.0317  0.0995 -0.6457
   22SAPC   H2R 2862   4.370   2.317  10.154 -1.4633  0.8853 -0.5738
   22SAPC   H2S 2863   4.373   2.173  10.269 -1.1223 -0.7523 -0.4441
   22SAPC    C3 2864   3.984   2.522  10.366 -0.1618  0.1435  0.9533
   22SAPC    HX 2865   4.029   2.552  10.463  0.2345 -1.0033  1.1479
   22SAPC    HY 2866   3.876   2.539  10.386  0.0510  1.9270  0.6983
   22SAPC   O31 2867   4.044   2.618  10.269  0.3815  0.6792  0.0742
   22SAPC   C31 2868   3.970   2.602  10.155  0.5218 -0.2027 -0.0781
   22SAPC   O32 2869   3.856   2.569  10.145 -0.0689  0.2811 -0.1221
   22SAPC   C32 2870   4.060   2.654  10.033 -0.2384  0.2410 -0.1815
   22SAPC   H2X 2871   4.160   2.607  10.045 -0.0824  0.7331  0.5063
   22SAPC   H2Y 2872   4.059   2.764  10.053 -0.6243  0.4309 -1.1820
   22SAPC   C23 2873   4.341   2.130  10.060 -0.5524  0.3007 -0.0937
   22SAPC   H3R 2874   4.289   2.035  10.085  0.2092  0.1122  0.7905
   22SAPC   H3S 2875   4.449   2.107  10.059 -0.7158 -0.6086  0.9842
   22SAPC   C24 2876   4.288   2.195   9.933  0.2913 -0.5293  0.4852
   22SAPC   H4R 2877   4.326   2.298   9.917  0.4560 -1.0298 -3.3908
   22SAPC   H4S 2878   4.178   2.194   9.951  0.5064  0.3033  1.9961
   22SAPC   C25 2879   4.329   2.118   9.816  0.1519 -0.0132  0.3972
   22SAPC   H5R 2880   4.375   2.025   9.852 -0.1679 -1.1432 -1.9073
   22SAPC   C26 2881   4.307   2.156   9.686  0.3939 -0.2808  0.6552
   22SAPC   H6R 2882   4.351   2.105   9.600  1.9837  0.8314  0.7726
   22SAPC   C27 2883   4.235   2.278   9.632 -0.5098  0.1692 -0.3087
   22SAPC   H7R 2884   4.206   2.340   9.719  0.5829 -2.1137  1.8184
   22SAPC   H7S 2885   4.141   2.249   9.581 -1.1835 -1.2894  1.6297
   22SAPC   C28 2886   4.332   2.360   9.548  0.2115  0.3577  0.1708
   22SAPC   H8R 2887   4.417   2.412   9.595  1.1054 -1.1215  0.2740
   22SAPC   C29 2888   4.325   2.374   9.417  0.3669 -0.0378 -0.3240
   22SAPC   H9R 2889   4.398   2.447   9.377 -0.2292  1.7434  1.6464
   22SAPC  C210 2890   4.218   2.319   9.319  0.3299 -0.3397  0.3209
   22SAPC  H10R 2891   4.165   2.235   9.370  0.6725  0.2263  1.6563
   22SAPC  H10S 2892   4.275   2.275   9.234  0.4971 -0.5921  0.5608
   22SAPC  C211 2893   4.115   2.420   9.284  0.4180  0.2099  0.0394
   22SAPC  H11R 2894   4.055   2.468   9.363  1.2213  1.9451 -0.3630
   22SAPC  C212 2895   4.067   2.444   9.159  0.5215 -0.0676 -0.5131
   22SAPC  H12R 2896   3.977   2.506   9.146  0.9520  0.3586 -1.5227
   22SAPC  C213 2897   4.124   2.385   9.031 -0.2584 -0.0549 -0.0592
   22SAPC  H13R 2898   4.234   2.373   9.041 -0.0125 -1.0162 -3.0301
   22SAPC  H13S 2899   4.103   2.450   8.944 -0.8202  0.7869  0.6874
   22SAPC  C214 2900   4.067   2.250   8.980 -0.5549 -0.0387  0.1439
   22SAPC  H14R 2901   3.960   2.237   9.002 -1.1155  3.3177 -0.0239
   22SAPC  C215 2902   4.136   2.141   8.935  0.2135 -0.0191  0.0424
   22SAPC  H15R 2903   4.076   2.053   8.910  1.0430 -1.6392  3.2086
   22SAPC  C216 2904   4.289   2.125   8.928 -0.3436 -0.3964 -0.1509
   22SAPC  H16R 2905   4.330   2.150   9.028 -0.7455 -1.7806  0.3917
   22SAPC  H16S 2906   4.345   2.207   8.880 -0.6279 -0.0864  0.0430
   22SAPC  C217 2907   4.334   1.987   8.882 -0.4806 -0.3343 -0.2256
   22SAPC  H17R 2908   4.271   1.912   8.933 -0.8190  0.8394  1.1437
   22SAPC  H17S 2909   4.442   1.986   8.909 -0.4267  1.0134 -0.2945
   22SAPC  C218 2910   4.328   1.963   8.734  0.3245  0.6528  0.2051
   22SAPC  H18R 2911   4.379   2.048   8.683  0.0658  0.8040  0.1924
   22SAPC  H18S 2912   4.221   1.967   8.702  0.0023 -0.1088  1.1439
   22SAPC  C219 2913   4.371   1.818   8.703 -1.0287 -0.1670  0.5695
   22SAPC  H19R 2914   4.310   1.748   8.763 -1.8173 -0.1659 -0.2051
   22SAPC  H19S 2915   4.480   1.808   8.726 -0.7028  1.1708 -0.2243
   22SAPC  C220 2916   4.341   1.775   8.556 -0.3244  0.5587 -0.3630
   22SAPC  H20R 2917   4.405   1.691   8.520  0.8828  1.7489 -1.0963
   22SAPC  H20S 2918   4.354   1.857   8.482 -0.4704  0.1573 -0.8445
   22SAPC  H20T 2919   4.232   1.754   8.546 -0.0960 -3.0873  2.6543
   22SAPC   C33 2920   4.000   2.632   9.892  0.4093  0.2824 -0.9896
   22SAPC   H3X 2921   3.903   2.688   9.892 -0.2681 -0.8443 -0.1766
   22SAPC   H3Y 2922   3.978   2.526   9.868 -1.0770  0.5195 -0.7770
   22SAPC   C34 2923   4.099   2.687   9.786  0.1431 -0.9578  0.4495
   22SAPC   H4X 2924   4.200   2.648   9.808  0.1393 -0.6091  1.0930
   22SAPC   H4Y 2925   4.111   2.797   9.780  3.2327 -1.2360  0.1025
   22SAPC   C35 2926   4.056   2.649   9.641 -0.0942 -0.1064 -0.1353
   22SAPC   H5X 2927   4.062   2.538   9.631 -0.9670 -0.2009  0.2634
   22SAPC   H5Y 2928   4.125   2.693   9.566  1.1273  0.1139  1.0824
   22SAPC   C36 2929   3.911   2.685   9.608 -0.4465  0.7202  0.1801
   22SAPC   H6X 2930   3.900   2.793   9.632 -1.1176  0.8852 -0.8356
   22SAPC   H6Y 2931   3.837   2.628   9.667 -0.1952  0.7669  0.5494
   22SAPC   C37 2932   3.880   2.669   9.455  0.4663 -0.7451  0.0295
   22SAPC   H7X 2933   3.877   2.561   9.430  1.1920 -0.9187  0.6647
   22SAPC   H7Y 2934   3.956   2.715   9.388  1.1980  0.0482  1.3637
   22SAPC   C38 2935   3.741   2.721   9.427 -0.0765  0.1692  0.4980
   22SAPC   H8X 2936   3.738   2.830   9.446 -1.0220 -0.1202  2.2379
   22SAPC   H8Y 2937   3.673   2.683   9.505 -1.2324  2.5033  0.6929
   22SAPC   C39 2938   3.691   2.690   9.283  0.4027  0.5077  0.6260
   22SAPC   H9X 2939   3.712   2.585   9.251 -1.1740  0.8177 -1.6653
   22SAPC   H9Y 2940   3.748   2.756   9.215 -1.6667  2.1095  0.3428
   22SAPC  C310 2941   3.539   2.719   9.263 -0.0898  0.4815 -0.7431
   22SAPC  H10X 2942   3.521   2.820   9.303 -0.7996 -0.6013  1.8672
   22SAPC  H10Y 2943   3.482   2.643   9.321  1.4622 -0.1840 -0.0201
   22SAPC  C311 2944   3.491   2.714   9.124 -0.1449  0.1760 -0.0048
   22SAPC  H11X 2945   3.496   2.609   9.090 -1.1288 -1.2888  3.8453
   22SAPC  H11Y 2946   3.564   2.777   9.070  0.9375  1.0161  2.2764
   22SAPC  C312 2947   3.346   2.766   9.108 -0.1369  0.7937  0.3963
   22SAPC  H12X 2948   3.342   2.871   9.145  0.8867  0.7053  0.8106
   22SAPC  H12Y 2949   3.273   2.703   9.163 -0.6764  2.6085  1.9040
   22SAPC  C313 2950   3.303   2.762   8.964  0.3866 -0.1708 -0.1554
   22SAPC  H13X 2951   3.392   2.780   8.900  0.4180 -1.1542 -0.4130
   22SAPC  H13Y 2952   3.221   2.836   8.953 -0.5330 -1.1029  0.2430
   22SAPC  C314 2953   3.266   2.619   8.916  0.2493  0.3970  0.1352
   22SAPC  H14X 2954   3.181   2.581   8.976 -0.8547  0.2513 -1.4460
   22SAPC  H14Y 2955   3.350   2.547   8.923  0.8501  1.1841  1.2815
   22SAPC  C315 2956   3.215   2.622   8.767  0.8225  0.3928 -0.0985
   22SAPC  H15X 2957   3.295   2.654   8.696 -0.9075  0.5521 -2.0795
   22SAPC  H15Y 2958   3.132   2.696   8.767  0.5965  0.1750 -1.5783
   22SAPC  C316 2959   3.145   2.492   8.737  0.0744 -0.3183 -0.6069
   22SAPC  H16X 2960   3.084   2.518   8.648  0.0249  3.0524  0.2490
   22SAPC  H16Y 2961   3.079   2.456   8.819  1.3962  0.5540  0.9119
   22SAPC  C317 2962   3.238   2.377   8.701 -1.1993  0.4469  0.2983
   22SAPC  H17X 2963   3.263   2.329   8.798 -1.8410 -0.7785 -0.1135
   22SAPC  H17Y 2964   3.326   2.417   8.647 -2.2213 -0.1318 -1.9175
   22SAPC  C318 2965   3.184   2.267   8.608  0.1125 -0.2953 -0.2790
   22SAPC  H18X 2966   3.106   2.219   8.670  0.2503  0.0199  0.1488
   22SAPC  H18Y 2967   3.265   2.194   8.589  1.0868  0.7152 -0.1407
   22SAPC  H18Z 2968   3.160   2.324   8.516  0.4179  1.3971  0.6352
   23SAPC     N 2969   0.884   4.415  10.964 -0.0505  0.8316 -0.1054
   23SAPC   C12 2970   0.752   4.355  10.910 -0.3990 -0.2424  0.1949
   23SAPC  H12A 2971   0.671   4.425  10.926 -0.3744 -0.3443  0.7733
   23SAPC  H12B 2972   0.727   4.269  10.970 -1.0095  0.8607  1.5603
   23SAPC   C13 2973   0.999   4.323  10.943  0.3504 -0.9588  0.2182
   23SAPC  H13A 2974   1.010   4.298  10.839 -0.4289 -0.4456  0.0049
   23SAPC  H13B 2975   1.089   4.374  10.974  0.3689 -0.7696 -0.1408
   23SAPC  H13C 2976   0.994   4.229  10.997 -1.0484 -1.0074  0.0486
   23SAPC   C14 2977   0.915   4.538  10.884 -0.5041  0.2350 -1.0568
   23SAPC  H14A 2978   0.907   4.524  10.777  0.5484  0.6471 -1.2013
   23SAPC  H14B 2979   0.841   4.614  10.900 -1.8102 -0.8290 -1.7907
   23SAPC  H14C 2980   1.011   4.581  10.906 -0.2034 -1.6470  1.8250
   23SAPC   C15 2981   0.881   4.451  11.113  0.0245  0.8127 -0.5648
   23SAPC  H15A 2982   0.818   4.539  11.126 -0.5535  0.4306 -0.7367
   23SAPC  H15B 2983   0.840   4.366  11.165 -0.0585  1.3750  0.3068
   23SAPC  H15C 2984   0.975   4.460  11.165  0.6259 -0.4645 -1.4012
   23SAPC   C11 2985   0.766   4.317  10.760 -0.2018 -0.4105 -0.6954
   23SAPC  H11A 2986   0.671   4.266  10.733 -0.8736  1.2188 -1.5446
   23SAPC  H11B 2987   0.847   4.242  10.750  0.3420  0.3987 -3.0993
   23SAPC     P 2988   0.673   4.526  10.639  0.5354  0.2648 -0.2742
   23SAPC   O13 2989   0.586   4.473  10.529  0.2734 -0.3457 -0.4618
   23SAPC   O14 2990   0.610   4.577  10.764  0.7853  0.0594 -0.0723
   23SAPC   O12 2991   0.791   4.422  10.671 -0.0746  0.1953  0.3561
   23SAPC   O11 2992   0.747   4.644  10.580  0.2009 -0.2904  0.2117
   23SAPC    C1 2993   0.838   4.653  10.474  0.0978 -0.2035  0.8245
   23SAPC    HA 2994   0.930   4.700  10.516  0.3043 -0.1271  0.3042
   23SAPC    HB 2995   0.860   4.557  10.422 -1.8330 -0.8235  1.0673
   23SAPC    C2 2996   0.785   4.748  10.359  0.1997  0.3030 -0.7060
   23SAPC    HS 2997   0.686   4.707  10.330  0.9992 -4.4653  2.1684
   23SAPC   O21 2998   0.875   4.734  10.242 -0.3157  0.3898  0.1097
   23SAPC   C21 2999   0.840   4.644  10.151  0.1466 -0.5021  0.1799
   23SAPC   O22 3000   0.742   4.572  10.156 -0.1336 -0.6202  0.6460
   23SAPC   C22 3001   0.950   4.638  10.052 -0.0216 -0.2817 -0.4258
   23SAPC   H2R 3002   0.980   4.738  10.017 -0.4235  0.1576  0.4551
   23SAPC   H2S 3003   1.040   4.603  10.108 -0.8425  0.8440  1.7386
   23SAPC    C3 3004   0.759   4.897  10.405  0.3184 -0.5031 -0.2012
   23SAPC    HX 3005   0.849   4.934  10.459  1.2900 -0.9484 -1.4635
   23SAPC    HY 3006   0.682   4.890  10.485 -2.0710  2.1759 -2.0563
   23SAPC   O31 3007   0.716   4.979  10.301 -0.8691 -0.4816 -0.0102
   23SAPC   C31 3008   0.814   5.052  10.239 -0.3809  0.0049 -0.6368
   23SAPC   O32 3009   0.933   5.027  10.254  0.7282 -0.3781 -0.4615
   23SAPC   C32 3010   0.751   5.165  10.154  0.3124  0.2411  0.0436
   23SAPC   H2X 3011   0.782   5.260  10.202  1.1597  0.5296 -1.0426
   23SAPC   H2Y 3012   0.640   5.155  10.147  0.2671  1.3732 -1.4651
   23SAPC   C23 3013   0.930   4.542   9.941  0.2956  0.0120  0.2609
   23SAPC   H3R 3014   0.896   4.448   9.990 -0.9236  1.1403  1.6894
   23SAPC   H3S 3015   1.032   4.525   9.902 -0.8014 -0.8160 -2.5092
   23SAPC   C24 3016   0.836   4.576   9.827 -0.3362  0.0434  0.6009
   23SAPC   H4R 3017   0.739   4.617   9.864  1.1902  0.6798  4.4609
   23SAPC   H4S 3018   0.815   4.478   9.780 -0.8341  0.4258  0.0161
   23SAPC   C25 3019   0.888   4.685   9.740  0.0699 -0.6879  0.5690
   23SAPC   H5R 3020   0.907   4.777   9.797 -0.1425 -0.6683  0.6095
   23SAPC   C26 3021   0.889   4.675   9.609  0.2548 -0.0947  0.3660
   23SAPC   H6R 3022   0.934   4.760   9.555 -0.3610  0.3153  0.4931
   23SAPC   C27 3023   0.849   4.567   9.514 -1.0018 -0.3454 -0.5661
   23SAPC   H7R 3024   0.757   4.595   9.457  0.8822  0.5578 -3.4095
   23SAPC   H7S 3025   0.836   4.475   9.576  0.6336 -0.6975 -0.7063
   23SAPC   C28 3026   0.961   4.540   9.418 -0.1569  0.7987  0.6580
   23SAPC   H8R 3027   1.039   4.475   9.461  0.2520  2.4812  2.6522
   23SAPC   C29 3028   0.962   4.567   9.285 -0.7931  0.5947  0.2417
   23SAPC   H9R 3029   1.044   4.531   9.221  1.1233  1.8202  1.8616
   23SAPC  C210 3030   0.877   4.648   9.197  0.0641 -0.0128  0.0074
   23SAPC  H10R 3031   0.939   4.733   9.161  0.1250  1.0802  2.4478
   23SAPC  H10S 3032   0.798   4.705   9.251 -0.2399  1.5691 -1.9674
   23SAPC  C211 3033   0.797   4.565   9.094 -0.1062  0.1362  0.4914
   23SAPC  H11R 3034   0.747   4.476   9.135  1.2602 -1.1997 -0.6033
   23SAPC  C212 3035   0.790   4.588   8.956 -0.0158  0.2582 -0.2726
   23SAPC  H12R 3036   0.727   4.516   8.903 -1.3343  0.8430  0.4655
   23SAPC  C213 3037   0.850   4.697   8.868 -1.2497  0.8712  0.7671
   23SAPC  H13R 3038   0.860   4.791   8.926 -2.1363 -0.1059  2.5969
   23SAPC  H13S 3039   0.785   4.724   8.782  2.2926 -0.9577 -2.8094
   23SAPC  C214 3040   0.988   4.648   8.831 -0.2214  0.2116 -0.2255
   23SAPC  H14R 3041   1.054   4.595   8.900 -1.0277 -1.4419 -0.6773
   23SAPC  C215 3042   1.046   4.674   8.711  0.0488 -0.0654 -0.1399
   23SAPC  H15R 3043   1.146   4.640   8.680 -0.8224 -0.9398 -2.1263
   23SAPC  C216 3044   0.983   4.766   8.602 -0.3293  0.0604  0.7774
   23SAPC  H16R 3045   0.953   4.868   8.635  0.1932  0.2365  0.7167
   23SAPC  H16S 3046   0.887   4.711   8.597 -0.5428  0.4338  0.7556
   23SAPC  C217 3047   1.066   4.766   8.470 -0.0039 -0.3080 -0.4070
   23SAPC  H17R 3048   1.061   4.661   8.435 -0.7601 -0.6337  0.6239
   23SAPC  H17S 3049   1.169   4.802   8.489 -0.4443  0.4261  0.6609
   23SAPC  C218 3050   1.009   4.842   8.355 -0.3110 -0.3777 -0.4413
   23SAPC  H18R 3051   0.925   4.906   8.390  0.3425  0.3760 -0.2239
   23SAPC  H18S 3052   0.952   4.784   8.279 -1.1693  0.5355 -0.5215
   23SAPC  C219 3053   1.109   4.920   8.279 -0.0544 -0.1030 -0.1600
   23SAPC  H19R 3054   1.200   4.857   8.269  0.2094  0.2601 -0.0225
   23SAPC  H19S 3055   1.133   5.013   8.334 -0.0550  0.6730 -1.4418
   23SAPC  C220 3056   1.056   4.962   8.149  0.0591 -0.3970  0.2662
   23SAPC  H20R 3057   0.975   5.038   8.162 -1.2038 -1.2339 -2.2046
   23SAPC  H20S 3058   1.019   4.880   8.083 -1.6988 -0.7751  1.6154
   23SAPC  H20T 3059   1.140   5.010   8.094  1.1144 -0.5470  1.6889
   23SAPC   C33 3060   0.796   5.175  10.007 -0.8963 -0.8492  0.1321
   23SAPC   H3X 3061   0.747   5.271   9.983  0.2355  0.1667  1.6666
   23SAPC   H3Y 3062   0.760   5.092   9.942 -0.1724  0.5632 -2.2146
   23SAPC   C34 3063   0.953   5.191   9.995  0.4815 -0.3057  0.2123
   23SAPC   H4X 3064   1.005   5.094  10.006 -2.9827 -2.1757  1.5450
   23SAPC   H4Y 3065   0.984   5.259  10.079 -0.3148  0.5327 -0.1534
   23SAPC   C35 3066   0.996   5.266   9.865  0.4365  0.3398  0.4635
   23SAPC   H5X 3067   1.107   5.267   9.870  0.4220 -1.1070  1.9377
   23SAPC   H5Y 3068   0.961   5.371   9.872 -0.5071  0.2517 -2.1434
   23SAPC   C36 3069   0.941   5.201   9.737 -0.0760  0.0431 -0.4496
   23SAPC   H6X 3070   0.844   5.244   9.705  0.2702  1.6589  0.5586
   23SAPC   H6Y 3071   0.929   5.091   9.746 -1.0783  0.2603  1.2978
   23SAPC   C37 3072   1.031   5.234   9.621 -0.7726  0.1723  0.5580
   23SAPC   H7X 3073   1.136   5.202   9.643 -0.0046  1.7136 -0.6678
   23SAPC   H7Y 3074   1.053   5.343   9.631 -1.4626  0.4583 -0.8996
   23SAPC   C38 3075   0.987   5.178   9.483 -0.6388  0.2002  0.3859
   23SAPC   H8X 3076   0.984   5.067   9.488  0.5838  0.1208 -0.1161
   23SAPC   H8Y 3077   1.062   5.187   9.401  0.3367 -2.2212  0.9144
   23SAPC   C39 3078   0.858   5.232   9.423 -0.0101  0.0953 -0.9369
   23SAPC   H9X 3079   0.875   5.337   9.392  0.7196 -0.1177 -1.2841
   23SAPC   H9Y 3080   0.791   5.218   9.510  1.7024 -2.0915  0.1388
   23SAPC  C310 3081   0.811   5.159   9.292  0.1918 -0.1692  0.9182
   23SAPC  H10X 3082   0.700   5.160   9.294  0.1484 -0.4152 -0.3001
   23SAPC  H10Y 3083   0.842   5.052   9.290 -2.5349 -1.0314 -0.8257
   23SAPC  C311 3084   0.859   5.227   9.164 -0.1288 -0.2208 -1.2202
   23SAPC  H11X 3085   0.882   5.335   9.179 -2.2349  0.2764 -1.2549
   23SAPC  H11Y 3086   0.778   5.236   9.089 -0.3416 -0.2039 -0.9913
   23SAPC  C312 3087   0.966   5.151   9.101 -0.6540 -0.4033  0.1804
   23SAPC  H12X 3088   0.929   5.051   9.071 -1.6780 -1.1567  3.4900
   23SAPC  H12Y 3089   1.051   5.137   9.171 -0.9501  0.0016  0.6267
   23SAPC  C313 3090   1.018   5.224   8.980  0.1942  0.2539  0.2418
   23SAPC  H13X 3091   1.123   5.199   8.951  0.4653  2.2916 -0.7419
   23SAPC  H13Y 3092   1.027   5.330   9.013 -1.6871 -0.0170  1.7917
   23SAPC  C314 3093   0.923   5.220   8.856 -0.4347  0.1254 -1.0062
   23SAPC  H14X 3094   0.861   5.312   8.859  0.4882  0.7480  0.6676
   23SAPC  H14Y 3095   0.846   5.141   8.858 -1.0193  0.6531  1.8146
   23SAPC  C315 3096   0.997   5.237   8.724 -0.0431 -0.4423 -0.7958
   23SAPC  H15X 3097   0.927   5.250   8.638 -0.3258 -0.5302 -0.5799
   23SAPC  H15Y 3098   1.050   5.141   8.704  1.1761  0.4891 -2.2246
   23SAPC  C316 3099   1.101   5.356   8.720 -1.1640  0.6010 -0.0746
   23SAPC  H16X 3100   1.171   5.347   8.634 -0.5982 -0.7685  0.4938
   23SAPC  H16Y 3101   1.171   5.353   8.806 -1.4355  2.3752  0.2548
   23SAPC  C317 3102   1.041   5.497   8.719  0.1156  0.2909 -0.0338
   23SAPC  H17X 3103   0.984   5.509   8.813  0.6228 -0.4534  0.3758
   23SAPC  H17Y 3104   0.970   5.508   8.634 -1.4213  1.8159  1.3874
   23SAPC  C318 3105   1.135   5.620   8.718  0.2041 -0.1547 -0.3067
   23SAPC  H18X 3106   1.202   5.623   8.807 -0.3734 -2.1307  0.2376
   23SAPC  H18Y 3107   1.067   5.707   8.724 -0.8487 -1.0589  1.8142
   23SAPC  H18Z 3108   1.191   5.610   8.623  0.7833 -1.7581  0.1703
   24SAPC     N 3109   2.550   4.420  11.108 -0.2173 -0.3217 -0.5787
   24SAPC   C12 3110   2.534   4.412  10.957  0.0845  0.5997  0.0485
   24SAPC  H12A 3111   2.434   4.377  10.937  0.0599  0.1614  0.8819
   24SAPC  H12B 3112   2.598   4.331  10.925  0.3718 -0.0430  2.1154
   24SAPC   C13 3113   2.520   4.284  11.170 -0.4339 -0.6427  0.1238
   24SAPC  H13A 3114   2.571   4.205  11.117 -0.1461 -0.8569  0.7063
   24SAPC  H13B 3115   2.560   4.280  11.271  1.0789  0.7489 -0.3917
   24SAPC  H13C 3116   2.413   4.273  11.178 -0.8589  2.1475 -0.7271
   24SAPC   C14 3117   2.690   4.457  11.149 -0.0318 -1.0801  0.5602
   24SAPC  H14A 3118   2.714   4.558  11.118 -0.9296 -1.1991 -0.5675
   24SAPC  H14B 3119   2.683   4.465  11.257 -0.8895  0.1147  0.4350
   24SAPC  H14C 3120   2.770   4.388  11.127  0.7144 -0.5129  1.3808
   24SAPC   C15 3121   2.457   4.518  11.173 -0.5939  0.3957 -0.2147
   24SAPC  H15A 3122   2.486   4.621  11.161 -2.5773  0.8894 -1.1199
   24SAPC  H15B 3123   2.359   4.509  11.130 -0.6123 -2.4002  0.2026
   24SAPC  H15C 3124   2.444   4.490  11.277 -0.5199  0.1765 -0.2648
   24SAPC   C11 3125   2.557   4.535  10.878 -0.0705  0.2533  0.0937
   24SAPC  H11A 3126   2.548   4.504  10.772 -0.6769  0.0817  0.1883
   24SAPC  H11B 3127   2.663   4.567  10.889  0.0126 -0.3442  1.2809
   24SAPC     P 3128   2.331   4.661  10.841 -0.1028  0.6451  0.3458
   24SAPC   O13 3129   2.273   4.525  10.837 -0.6355  0.4575 -0.2879
   24SAPC   O14 3130   2.257   4.769  10.901  0.0474  0.1515  0.1813
   24SAPC   O12 3131   2.475   4.644  10.916  0.2824 -0.3849 -0.2148
   24SAPC   O11 3132   2.381   4.699  10.696  0.1081 -0.1390  0.1490
   24SAPC    C1 3133   2.427   4.832  10.667 -0.3047 -0.6005 -0.6641
   24SAPC    HA 3134   2.335   4.891  10.645  1.0079  1.5860 -0.5999
   24SAPC    HB 3135   2.480   4.873  10.755 -2.5705 -0.5384  0.7618
   24SAPC    C2 3136   2.510   4.823  10.543 -0.1473  0.3447  0.0625
   24SAPC    HS 3137   2.549   4.926  10.529  1.0313 -0.1993 -0.8338
   24SAPC   O21 3138   2.428   4.784  10.436  0.2760 -0.3138 -0.3126
   24SAPC   C21 3139   2.463   4.839  10.324 -0.2800 -0.4970  0.2412
   24SAPC   O22 3140   2.543   4.932  10.311 -0.4272  0.3687  0.3226
   24SAPC   C22 3141   2.388   4.776  10.207 -0.1459  0.0472  1.0955
   24SAPC   H2R 3142   2.332   4.686  10.240 -0.3908 -0.1131  0.2824
   24SAPC   H2S 3143   2.316   4.859  10.189 -0.2534 -0.0200  1.2208
   24SAPC    C3 3144   2.626   4.725  10.551  0.1633 -0.5829 -0.3746
   24SAPC    HX 3145   2.584   4.623  10.559  0.1705 -0.5153  0.7490
   24SAPC    HY 3146   2.684   4.745  10.644 -0.2622  0.8914 -0.4049
   24SAPC   O31 3147   2.709   4.728  10.432  0.2984 -0.2842 -0.5134
   24SAPC   C31 3148   2.799   4.828  10.439  0.7529  0.4078  0.1243
   24SAPC   O32 3149   2.816   4.898  10.535 -0.6225  0.2538  0.5772
   24SAPC   C32 3150   2.877   4.816  10.308 -0.8116 -0.2832  0.8071
   24SAPC   H2X 3151   2.798   4.859  10.241 -2.4188 -0.6098  2.4140
   24SAPC   H2Y 3152   2.907   4.713  10.283  1.4058  0.4297  0.3271
   24SAPC   C23 3153   2.486   4.740  10.090 -0.7050  0.8620  0.0026
   24SAPC   H3R 3154   2.566   4.678  10.136  0.2721  1.1458 -1.2712
   24SAPC   H3S 3155   2.546   4.825  10.051 -1.5373  0.0027 -3.4740
   24SAPC   C24 3156   2.414   4.684   9.970  0.1975  0.4285  0.3273
   24SAPC   H4R 3157   2.498   4.674   9.898 -0.4131 -3.0917 -0.0771
   24SAPC   H4S 3158   2.342   4.753   9.922 -1.9007 -3.1083 -2.0488
   24SAPC   C25 3159   2.346   4.553   9.974 -0.7873  0.2150  0.3519
   24SAPC   H5R 3160   2.248   4.557  10.024 -0.6213 -1.0135  0.8225
   24SAPC   C26 3161   2.391   4.437   9.913  0.2397 -0.4160 -0.7396
   24SAPC   H6R 3162   2.325   4.349   9.915 -0.7195  0.1664 -3.1704
   24SAPC   C27 3163   2.521   4.413   9.833  0.0444 -0.4941 -1.0166
   24SAPC   H7R 3164   2.606   4.448   9.895 -0.8085 -1.3147  0.6866
   24SAPC   H7S 3165   2.520   4.479   9.744 -0.9466  1.5731  0.4268
   24SAPC   C28 3166   2.530   4.270   9.815  0.6261 -0.2826 -0.8204
   24SAPC   H8R 3167   2.582   4.209   9.891  0.0283 -1.3060 -1.2127
   24SAPC   C29 3168   2.490   4.196   9.710  0.4437 -0.2839 -0.2022
   24SAPC   H9R 3169   2.519   4.090   9.717  0.0365 -0.4681 -1.2152
   24SAPC  C210 3170   2.407   4.251   9.595 -0.3417  0.1408 -0.5348
   24SAPC  H10R 3171   2.452   4.228   9.496 -2.9406  0.6246 -1.8958
   24SAPC  H10S 3172   2.397   4.361   9.598 -2.4512 -0.0265  1.4772
   24SAPC  C211 3173   2.265   4.204   9.614 -0.0225 -0.3933 -0.0731
   24SAPC  H11R 3174   2.210   4.243   9.701  0.8679  0.9369 -0.0753
   24SAPC  C212 3175   2.200   4.126   9.523 -0.0029 -0.3133 -0.2391
   24SAPC  H12R 3176   2.100   4.089   9.552  1.0525 -3.4681 -0.2332
   24SAPC  C213 3177   2.257   4.077   9.385  0.5621 -0.1421 -0.3495
   24SAPC  H13R 3178   2.245   3.967   9.388  0.2107 -0.1122 -0.6566
   24SAPC  H13S 3179   2.368   4.085   9.378  0.5502  0.5687  0.1693
   24SAPC  C214 3180   2.192   4.135   9.270  0.5893  0.1205 -0.3202
   24SAPC  H14R 3181   2.083   4.118   9.271  0.7826 -1.2276  1.4426
   24SAPC  C215 3182   2.242   4.192   9.160 -0.8954 -0.0440  0.5401
   24SAPC  H15R 3183   2.177   4.212   9.074  1.9357  1.0059 -1.5134
   24SAPC  C216 3184   2.387   4.225   9.127 -0.8888 -0.1759 -0.1401
   24SAPC  H16R 3185   2.441   4.234   9.224  0.7487 -1.2177 -0.9204
   24SAPC  H16S 3186   2.395   4.323   9.075 -2.3233 -0.4686 -0.9324
   24SAPC  C217 3187   2.454   4.131   9.025  0.4556 -0.3068  0.0885
   24SAPC  H17R 3188   2.398   4.111   8.931  0.2499 -2.3584  0.5898
   24SAPC  H17S 3189   2.468   4.036   9.081  0.1070 -0.6029 -0.3235
   24SAPC  C218 3190   2.595   4.170   8.988 -0.3748 -0.1003  0.8370
   24SAPC  H18R 3191   2.643   4.186   9.087 -1.2389  0.7280  1.1379
   24SAPC  H18S 3192   2.594   4.260   8.924 -1.7854 -1.3767 -1.0434
   24SAPC  C219 3193   2.683   4.064   8.918  0.4327  0.4201  0.0006
   24SAPC  H19R 3194   2.639   4.043   8.818 -2.5091 -0.9825  1.4530
   24SAPC  H19S 3195   2.672   3.971   8.977  2.6521 -0.7132 -1.2528
   24SAPC  C220 3196   2.839   4.091   8.930 -0.2069 -0.4559  0.7149
   24SAPC  H20R 3197   2.860   4.185   8.875 -2.5346 -0.2788 -0.0009
   24SAPC  H20S 3198   2.908   4.011   8.896  0.4795  0.3835  0.0988
   24SAPC  H20T 3199   2.858   4.121   9.035 -1.2025 -3.0377  1.7261
   24SAPC   C33 3200   3.009   4.900  10.307  0.3488  0.0057 -0.4976
   24SAPC   H3X 3201   3.082   4.844  10.370 -1.3308 -0.0026  1.5550
   24SAPC   H3Y 3202   2.976   5.000  10.342 -2.5673 -0.4384 -1.7654
   24SAPC   C34 3203   3.069   4.920  10.168  0.0336  0.1645  0.1917
   24SAPC   H4X 3204   3.096   4.820  10.129  0.7190  0.3766  0.1048
   24SAPC   H4Y 3205   3.172   4.960  10.174 -0.3147  1.0207  0.7438
   24SAPC   C35 3206   2.980   4.987  10.059  0.2645  0.5380  0.0465
   24SAPC   H5X 3207   2.962   5.091  10.093  2.1950  0.3867  1.7409
   24SAPC   H5Y 3208   2.880   4.939  10.056  0.2431  0.4357  1.5163
   24SAPC   C36 3209   3.045   4.996   9.921  0.1705  0.1925  0.2727
   24SAPC   H6X 3210   3.104   4.906   9.894 -0.0954  0.5964 -1.8700
   24SAPC   H6Y 3211   3.121   5.077   9.929 -0.0023  0.2794  1.1247
   24SAPC   C37 3212   2.945   5.034   9.810  0.0753  0.3098  0.0206
   24SAPC   H7X 3213   2.902   5.136   9.825  1.3079  0.7947  0.4486
   24SAPC   H7Y 3214   2.866   4.956   9.808  0.3276  0.0660 -0.6007
   24SAPC   C38 3215   3.006   5.040   9.665 -0.6508  0.4716  0.3509
   24SAPC   H8X 3216   3.099   5.101   9.658 -0.8240  0.7974  0.7915
   24SAPC   H8Y 3217   2.930   5.089   9.600 -0.6771 -0.1983 -0.1341
   24SAPC   C39 3218   3.039   4.898   9.609 -0.0870 -0.3499  0.2846
   24SAPC   H9X 3219   2.944   4.840   9.611 -1.1507  1.3576  1.4253
   24SAPC   H9Y 3220   3.112   4.836   9.665  0.9246  0.3098 -0.2818
   24SAPC  C310 3221   3.105   4.914   9.473  0.4548 -0.0090  0.0147
   24SAPC  H10X 3222   3.215   4.929   9.485  0.6546 -1.8668  0.9504
   24SAPC  H10Y 3223   3.055   4.999   9.423  0.1617  0.2576  0.7453
   24SAPC  C311 3224   3.067   4.782   9.406 -0.0070 -0.1580  0.0560
   24SAPC  H11X 3225   2.957   4.765   9.409 -0.1263  0.4515  3.8908
   24SAPC  H11Y 3226   3.120   4.697   9.454  0.5122 -0.1986 -0.5730
   24SAPC  C312 3227   3.112   4.776   9.258 -0.4404  0.4732  0.2567
   24SAPC  H12X 3228   3.056   4.855   9.204 -0.9105 -0.1717 -0.2137
   24SAPC  H12Y 3229   3.081   4.678   9.216  2.8838  0.2104 -1.9965
   24SAPC  C313 3230   3.254   4.797   9.230  0.6430 -0.2373 -0.1619
   24SAPC  H13X 3231   3.312   4.748   9.311 -1.4234 -0.5351  1.2452
   24SAPC  H13Y 3232   3.286   4.903   9.237 -1.5535  0.6042 -1.5400
   24SAPC  C314 3233   3.310   4.753   9.089 -0.1009 -0.1487  0.1337
   24SAPC  H14X 3234   3.250   4.674   9.040 -1.3936  1.5719 -1.1780
   24SAPC  H14Y 3235   3.410   4.711   9.110  0.7813  2.1977  0.9457
   24SAPC  C315 3236   3.308   4.874   8.988  0.1040  0.3583 -0.0286
   24SAPC  H15X 3237   3.369   4.960   9.025  0.9895  0.0635 -0.7696
   24SAPC  H15Y 3238   3.205   4.912   8.974  0.3633  0.3225 -2.2805
   24SAPC  C316 3239   3.347   4.834   8.847  1.1690  0.3586  0.2195
   24SAPC  H16X 3240   3.292   4.744   8.810  1.6022 -1.2999  3.3078
   24SAPC  H16Y 3241   3.453   4.803   8.860  0.2196 -4.0161 -0.6103
   24SAPC  C317 3242   3.346   4.949   8.753 -0.2866 -0.7021 -0.2341
   24SAPC  H17X 3243   3.401   4.919   8.662  1.4056  0.3288  0.3972
   24SAPC  H17Y 3244   3.400   5.039   8.789  0.8832 -1.3838 -0.2216
   24SAPC  C318 3245   3.211   5.003   8.719 -0.2771 -0.2224  0.2942
   24SAPC  H18X 3246   3.151   4.920   8.676 -0.8837  0.1933  0.3088
   24SAPC  H18Y 3247   3.221   5.088   8.649 -0.3887 -0.0257  0.5121
   24SAPC  H18Z 3248   3.155   5.025   8.813 -0.0928 -0.8704  0.5626
   25SAPC     N 3249   5.390   1.307   6.209 -0.7916  0.5134 -0.0114
   25SAPC   C12 3250   5.483   1.289   6.083 -0.6004 -0.3389  0.0025
   25SAPC  H12A 3251   5.430   1.226   6.013 -1.1133 -0.5481  0.5733
   25SAPC  H12B 3252   5.572   1.240   6.118  0.3723  2.1689  1.3097
   25SAPC   C13 3253   5.453   1.379   6.318  0.2509 -0.5394 -0.4191
   25SAPC  H13A 3254   5.490   1.474   6.283  1.7450 -1.5718 -1.8076
   25SAPC  H13B 3255   5.385   1.390   6.401  0.9166 -1.8714  0.3530
   25SAPC  H13C 3256   5.534   1.323   6.364 -1.4030 -3.0262 -0.3662
   25SAPC   C14 3257   5.257   1.365   6.169 -0.4843 -0.3101 -0.5177
   25SAPC  H14A 3258   5.200   1.286   6.123 -2.1110  1.0170 -0.9080
   25SAPC  H14B 3259   5.194   1.396   6.251 -0.5036  0.0456 -0.6607
   25SAPC  H14C 3260   5.274   1.454   6.109  3.1889 -0.2964  0.3599
   25SAPC   C15 3261   5.359   1.174   6.272 -0.3682  0.4958  0.6118
   25SAPC  H15A 3262   5.287   1.197   6.349  0.9803 -1.1898  2.4663
   25SAPC  H15B 3263   5.316   1.109   6.197 -2.1432 -0.1580  2.1299
   25SAPC  H15C 3264   5.442   1.124   6.320  0.7548  0.7704 -0.9531
   25SAPC   C11 3265   5.531   1.413   6.002  0.2874  0.3243  0.3383
   25SAPC  H11A 3266   5.600   1.375   5.923 -2.3088  2.7171 -3.4503
   25SAPC  H11B 3267   5.591   1.480   6.066 -0.6873  1.7214 -0.1523
   25SAPC     P 3268   5.409   1.632   5.927  0.3098  0.0234 -0.2555
   25SAPC   O13 3269   5.511   1.670   5.825  0.0444 -0.7374 -0.6870
   25SAPC   O14 3270   5.269   1.678   5.902  0.2094  0.0589 -0.3191
   25SAPC   O12 3271   5.417   1.478   5.948  0.5268 -0.0677  0.0263
   25SAPC   O11 3272   5.464   1.701   6.058  0.1376 -0.4428 -0.1872
   25SAPC    C1 3273   5.413   1.825   6.101 -0.0974 -0.2071 -0.4542
   25SAPC    HA 3274   5.499   1.890   6.129 -2.1734  3.4297 -1.8059
   25SAPC    HB 3275   5.363   1.882   6.019  0.6060  1.8110  0.4508
   25SAPC    C2 3276   5.327   1.805   6.230 -0.0080 -0.1097 -0.1077
   25SAPC    HS 3277   5.316   1.909   6.268  0.2830  0.3603 -1.2717
   25SAPC   O21 3278   5.403   1.723   6.319  0.3938  0.6970 -0.7083
   25SAPC   C21 3279   5.397   1.757   6.444 -0.8865 -0.1141 -0.1980
   25SAPC   O22 3280   5.338   1.854   6.492  0.3332 -0.0989  0.1265
   25SAPC   C22 3281   5.511   1.675   6.521 -0.1460 -0.5056  0.1367
   25SAPC   H2R 3282   5.531   1.583   6.461  0.6203  0.0605 -0.5014
   25SAPC   H2S 3283   5.602   1.739   6.522 -0.7152  0.3157  0.3524
   25SAPC    C3 3284   5.182   1.749   6.218  0.5955  0.1596  0.4392
   25SAPC    HX 3285   5.180   1.638   6.205  0.2079  0.2525 -0.3543
   25SAPC    HY 3286   5.145   1.790   6.122  3.4880 -0.7426 -1.2075
   25SAPC   O31 3287   5.095   1.804   6.320  0.3468 -0.3910 -0.0773
   25SAPC   C31 3288   5.084   1.729   6.428  0.4514  0.0050  0.7025
   25SAPC   O32 3289   5.133   1.621   6.437  0.0434  0.1152 -0.1488
   25SAPC   C32 3290   4.975   1.791   6.521  0.0423  1.5263 -0.0628
   25SAPC   H2X 3291   4.915   1.700   6.544 -0.0506  1.5390 -0.2484
   25SAPC   H2Y 3292   4.905   1.852   6.459 -0.9427 -0.9885 -1.6146
   25SAPC   C23 3293   5.478   1.633   6.665 -0.7092  0.5551 -0.2946
   25SAPC   H3R 3294   5.378   1.585   6.672 -0.3959  0.1106  2.1960
   25SAPC   H3S 3295   5.472   1.717   6.738 -1.0086  0.6494 -0.4264
   25SAPC   C24 3296   5.587   1.535   6.711  0.0030  1.2305  0.2910
   25SAPC   H4R 3297   5.672   1.595   6.748 -0.0892 -0.4791  3.6237
   25SAPC   H4S 3298   5.626   1.471   6.629  0.5429  2.7194 -0.6629
   25SAPC   C25 3299   5.520   1.463   6.824  0.1720 -0.1614  0.2038
   25SAPC   H5R 3300   5.440   1.390   6.804  0.9011 -0.7428 -0.6574
   25SAPC   C26 3301   5.558   1.472   6.950  0.0438  0.3931  0.4275
   25SAPC   H6R 3302   5.503   1.418   7.029 -0.2049  0.9268  0.6238
   25SAPC   C27 3303   5.672   1.554   7.009 -0.2014  0.3992  0.0849
   25SAPC   H7R 3304   5.665   1.549   7.120 -0.0863  2.1619  0.2011
   25SAPC   H7S 3305   5.660   1.660   6.977  1.6009  0.5028 -0.3293
   25SAPC   C28 3306   5.809   1.499   6.956 -0.1873  0.1818  0.5983
   25SAPC   H8R 3307   5.817   1.479   6.848 -3.3010  0.0646  0.3130
   25SAPC   C29 3308   5.926   1.469   7.016 -0.2330 -0.4562  0.9364
   25SAPC   H9R 3309   6.008   1.444   6.947 -2.0376  1.0326 -1.9345
   25SAPC  C210 3310   5.961   1.480   7.160  0.4059  0.1769  0.3355
   25SAPC  H10R 3311   5.946   1.381   7.207 -0.9565  0.8621  1.4480
   25SAPC  H10S 3312   5.891   1.549   7.212 -0.6401  0.2553 -1.1290
   25SAPC  C211 3313   6.111   1.507   7.167 -0.2636  0.2278 -0.0414
   25SAPC  H11R 3314   6.159   1.566   7.088 -1.4264  3.5184  1.5308
   25SAPC  C212 3315   6.196   1.449   7.253 -0.1183 -0.0876 -0.7629
   25SAPC  H12R 3316   6.300   1.481   7.244  0.2115 -0.1700  1.8770
   25SAPC  C213 3317   6.170   1.354   7.368 -0.2023 -0.4262 -0.3084
   25SAPC  H13R 3318   6.067   1.314   7.363 -1.1383  1.9276 -1.6934
   25SAPC  H13S 3319   6.181   1.420   7.458 -0.8340  1.1207 -1.3193
   25SAPC  C214 3320   6.258   1.235   7.366  0.4756  0.0127  0.0288
   25SAPC  H14R 3321   6.277   1.182   7.271  1.2468  0.4355 -0.0626
   25SAPC  C215 3322   6.341   1.197   7.464 -0.0718 -0.8506 -0.7491
   25SAPC  H15R 3323   6.407   1.112   7.441  0.7263 -1.3194  2.6949
   25SAPC  C216 3324   6.363   1.255   7.600 -0.2163  0.3020 -0.1976
   25SAPC  H16R 3325   6.354   1.366   7.603  1.0504  0.4318 -0.6492
   25SAPC  H16S 3326   6.469   1.232   7.624 -0.9898 -3.0749  0.4271
   25SAPC  C217 3327   6.281   1.200   7.717  0.8476  0.0701 -0.5488
   25SAPC  H17R 3328   6.172   1.212   7.699  1.0780 -1.4132 -3.5577
   25SAPC  H17S 3329   6.313   1.252   7.810 -1.7128 -0.2959  0.6164
   25SAPC  C218 3330   6.297   1.058   7.740 -0.0079 -0.4355 -0.2315
   25SAPC  H18R 3331   6.401   1.040   7.773  0.2912  0.5091 -0.6240
   25SAPC  H18S 3332   6.281   1.004   7.644 -0.1662 -0.3500 -0.2537
   25SAPC  C219 3333   6.195   1.008   7.843 -0.2757  0.7101 -0.1655
   25SAPC  H19R 3334   6.094   1.006   7.796 -0.4528  0.4244  0.2139
   25SAPC  H19S 3335   6.196   1.071   7.935 -0.3568  2.2386 -1.1802
   25SAPC  C220 3336   6.225   0.866   7.880 -0.2941 -0.3750  0.2080
   25SAPC  H20R 3337   6.230   0.792   7.798  0.4446  1.2001 -1.2146
   25SAPC  H20S 3338   6.138   0.839   7.944  0.2841 -0.4207  1.0022
   25SAPC  H20T 3339   6.320   0.846   7.935  0.3677 -0.0306 -0.7915
   25SAPC   C33 3340   5.039   1.883   6.626 -0.1595  0.0980  0.1077
   25SAPC   H3X 3341   4.949   1.926   6.674  0.3726  1.0184  0.3088
   25SAPC   H3Y 3342   5.105   1.960   6.581 -0.2492  0.0733 -0.0658
   25SAPC   C34 3343   5.101   1.796   6.732  0.1902 -0.0176 -0.1308
   25SAPC   H4X 3344   5.188   1.741   6.689  0.7810  0.8823 -0.1293
   25SAPC   H4Y 3345   5.021   1.737   6.781 -0.1181  1.5164  1.3220
   25SAPC   C35 3346   5.152   1.885   6.849 -0.2254  0.0061  0.3941
   25SAPC   H5X 3347   5.067   1.952   6.870 -1.0033  0.0199 -2.3496
   25SAPC   H5Y 3348   5.240   1.938   6.806  0.1171 -2.7419 -2.8157
   25SAPC   C36 3349   5.192   1.802   6.977 -0.1513 -0.2111 -0.1232
   25SAPC   H6X 3350   5.225   1.887   7.040  1.0327  0.9755 -2.2337
   25SAPC   H6Y 3351   5.282   1.739   6.961  1.3101  1.8925 -0.6341
   25SAPC   C37 3352   5.088   1.721   7.054 -0.7485  0.5276  0.2731
   25SAPC   H7X 3353   5.077   1.629   6.992  0.4930  1.9621 -2.2544
   25SAPC   H7Y 3354   4.996   1.781   7.072 -1.6940 -1.1819  1.3839
   25SAPC   C38 3355   5.141   1.681   7.189 -0.3730  0.4048  0.5790
   25SAPC   H8X 3356   5.239   1.636   7.162 -1.1967 -0.7928 -0.5608
   25SAPC   H8Y 3357   5.081   1.603   7.241  2.5156 -0.4073  2.9609
   25SAPC   C39 3358   5.127   1.798   7.294 -0.4400 -0.0618  0.2965
   25SAPC   H9X 3359   5.018   1.809   7.307 -0.9396 -0.9599 -2.5237
   25SAPC   H9Y 3360   5.159   1.890   7.241  0.3593 -0.6058 -0.1953
   25SAPC  C310 3361   5.189   1.784   7.433 -0.2669  0.8934  0.4147
   25SAPC  H10X 3362   5.215   1.879   7.485  2.4919  0.6428 -0.3373
   25SAPC  H10Y 3363   5.284   1.727   7.420 -1.0975 -0.1456 -1.3991
   25SAPC  C311 3364   5.127   1.691   7.533  0.2933  0.4576  0.1090
   25SAPC  H11X 3365   5.111   1.588   7.495 -0.5790  0.3612  0.6927
   25SAPC  H11Y 3366   5.026   1.731   7.559  0.3953  0.9123 -0.1789
   25SAPC  C312 3367   5.201   1.680   7.661 -0.1739 -0.2098  0.2439
   25SAPC  H12X 3368   5.196   1.778   7.714  1.1351  0.5267 -0.9171
   25SAPC  H12Y 3369   5.309   1.656   7.654  0.0740  0.5935  1.1098
   25SAPC  C313 3370   5.136   1.572   7.745  0.2895 -0.2846 -0.1976
   25SAPC  H13X 3371   5.140   1.471   7.700  2.4638 -0.2805 -0.0933
   25SAPC  H13Y 3372   5.025   1.584   7.749  0.1714 -1.5618  1.1440
   25SAPC  C314 3373   5.188   1.582   7.890  1.4907  0.3513 -0.1915
   25SAPC  H14X 3374   5.194   1.691   7.908 -0.6773  0.3674  0.6794
   25SAPC  H14Y 3375   5.292   1.542   7.898  1.0854 -0.4270  1.8135
   25SAPC  C315 3376   5.100   1.502   7.997  0.1854 -0.0711  0.4250
   25SAPC  H15X 3377   5.106   1.393   7.973 -0.7845 -0.5416  2.1578
   25SAPC  H15Y 3378   4.998   1.544   7.995 -0.1426 -0.7831 -2.0867
   25SAPC  C316 3379   5.165   1.516   8.139 -0.6454  0.3647  0.1555
   25SAPC  H16X 3380   5.269   1.480   8.127  0.0031  1.8110  1.0892
   25SAPC  H16Y 3381   5.113   1.449   8.210 -0.0879  1.0628  1.2631
   25SAPC  C317 3382   5.159   1.655   8.203 -0.1318 -0.0580  0.2831
   25SAPC  H17X 3383   5.055   1.673   8.240 -0.0199  1.6932 -0.1558
   25SAPC  H17Y 3384   5.183   1.728   8.122 -2.6810 -0.3177 -0.8403
   25SAPC  C318 3385   5.252   1.669   8.322 -0.1712 -0.0989 -0.2651
   25SAPC  H18X 3386   5.224   1.591   8.397  1.7760 -0.3099  0.3137
   25SAPC  H18Y 3387   5.244   1.773   8.360  0.6358 -0.6589  1.5863
   25SAPC  H18Z 3388   5.356   1.638   8.297  0.1413 -0.9794  1.8825
   26SAPC     N 3389   5.589   2.925   6.085 -0.2662 -0.0928  0.9443
   26SAPC   C12 3390   5.439   2.904   6.064  0.1078 -0.1688  0.3615
   26SAPC  H12A 3391   5.418   2.798   6.063  2.2363 -0.6304 -1.6302
   26SAPC  H12B 3392   5.424   2.943   5.964  0.4932 -0.2161  0.2863
   26SAPC   C13 3393   5.628   2.877   6.217 -0.3225 -0.0614 -0.5318
   26SAPC  H13A 3394   5.556   2.905   6.293  1.2745 -1.3901  1.5918
   26SAPC  H13B 3395   5.619   2.770   6.233  0.3838 -0.2595 -1.4028
   26SAPC  H13C 3396   5.727   2.906   6.246  0.2948 -1.3464 -1.2852
   26SAPC   C14 3397   5.663   2.847   5.979 -0.2724 -0.4452 -0.2829
   26SAPC  H14A 3398   5.654   2.887   5.879 -0.8835 -1.5954 -0.7142
   26SAPC  H14B 3399   5.770   2.848   5.989 -0.3820  0.3958  0.9403
   26SAPC  H14C 3400   5.632   2.744   5.970  2.0400 -1.3459  1.2355
   26SAPC   C15 3401   5.625   3.064   6.072  0.3284  0.0673  0.0670
   26SAPC  H15A 3402   5.565   3.125   6.138  0.3269  0.0901  0.0445
   26SAPC  H15B 3403   5.727   3.079   6.105 -0.0318  2.3888  0.3245
   26SAPC  H15C 3404   5.611   3.098   5.970  2.8504 -1.5591 -0.9193
   26SAPC   C11 3405   5.334   2.962   6.168 -1.0276 -0.0338  0.1356
   26SAPC  H11A 3406   5.360   2.910   6.263  0.9413  0.8907  0.1470
   26SAPC  H11B 3407   5.229   2.941   6.137 -1.5496  2.4581  0.0094
   26SAPC     P 3408   5.384   3.179   6.310  0.3245 -0.2089 -0.1864
   26SAPC   O13 3409   5.455   3.091   6.408  0.2715  0.3459 -0.1556
   26SAPC   O14 3410   5.456   3.308   6.282 -0.4261 -0.1807 -0.1417
   26SAPC   O12 3411   5.358   3.109   6.172 -0.3625 -0.9008 -0.2145
   26SAPC   O11 3412   5.242   3.212   6.363  0.0708  0.3926 -0.0455
   26SAPC    C1 3413   5.162   3.101   6.416  0.0077 -0.2300 -0.7239
   26SAPC    HA 3414   5.071   3.087   6.355 -1.3694  3.1812  0.3432
   26SAPC    HB 3415   5.217   3.004   6.425  1.0933  0.3779 -0.5517
   26SAPC    C2 3416   5.119   3.137   6.566 -0.4605  0.2791  0.7353
   26SAPC    HS 3417   5.045   3.219   6.559 -0.2436  0.3665 -1.3354
   26SAPC   O21 3418   5.235   3.171   6.642 -0.6716  0.4878  0.8229
   26SAPC   C21 3419   5.243   3.301   6.672  0.6772  0.6110 -0.1616
   26SAPC   O22 3420   5.162   3.386   6.638 -0.3454 -0.4669 -0.1045
   26SAPC   C22 3421   5.351   3.320   6.774  0.1563 -0.0928 -0.1417
   26SAPC   H2R 3422   5.436   3.259   6.737  0.8556  1.6713 -1.5890
   26SAPC   H2S 3423   5.398   3.421   6.771  1.6743 -0.7792 -0.6483
   26SAPC    C3 3424   5.041   3.018   6.639 -0.1375 -0.3463  0.1589
   26SAPC    HX 3425   5.114   2.934   6.649 -1.5198 -1.7586 -1.0135
   26SAPC    HY 3426   4.963   2.988   6.566 -0.2913  1.3216 -0.3930
   26SAPC   O31 3427   4.987   3.057   6.763  0.0732  0.0958  0.0961
   26SAPC   C31 3428   4.864   3.103   6.769  0.7106 -0.2246  0.5275
   26SAPC   O32 3429   4.782   3.099   6.676 -0.0837 -0.1459 -0.3209
   26SAPC   C32 3430   4.831   3.141   6.917  0.4007 -0.9244  0.0252
   26SAPC   H2X 3431   4.725   3.119   6.941 -0.5405  0.6155 -2.2854
   26SAPC   H2Y 3432   4.852   3.250   6.919  1.7553 -1.1225 -1.4129
   26SAPC   C23 3433   5.310   3.265   6.911 -0.2165  0.2753 -0.4436
   26SAPC   H3R 3434   5.250   3.172   6.906  2.1568 -1.3559 -0.5510
   26SAPC   H3S 3435   5.240   3.338   6.957  3.4686  3.0806  1.3415
   26SAPC   C24 3436   5.429   3.225   6.995 -0.3409 -0.4613  0.2907
   26SAPC   H4R 3437   5.489   3.154   6.933 -0.3459  0.6167 -1.0028
   26SAPC   H4S 3438   5.398   3.166   7.083  0.9889 -0.9365  0.4585
   26SAPC   C25 3439   5.511   3.341   7.042 -0.0229 -0.3520  0.1530
   26SAPC   H5R 3440   5.562   3.383   6.953  0.6424 -1.3371  0.0486
   26SAPC   C26 3441   5.516   3.407   7.156  0.2932  0.3202  0.3010
   26SAPC   H6R 3442   5.571   3.502   7.162 -1.4022  1.2714  2.3548
   26SAPC   C27 3443   5.464   3.361   7.288 -0.0089  0.0479  0.1221
   26SAPC   H7R 3444   5.545   3.374   7.364  1.4554 -1.9150 -0.9921
   26SAPC   H7S 3445   5.437   3.254   7.281  0.6014 -0.0847 -0.3377
   26SAPC   C28 3446   5.337   3.435   7.319 -0.2880  0.0173 -0.3653
   26SAPC   H8R 3447   5.256   3.423   7.246 -0.8601  0.3337  0.2067
   26SAPC   C29 3448   5.311   3.513   7.427 -0.5615 -0.9547  0.4184
   26SAPC   H9R 3449   5.211   3.558   7.421  0.6396  1.8280 -0.0882
   26SAPC  C210 3450   5.398   3.550   7.544 -0.3913  0.4165  0.2443
   26SAPC  H10R 3451   5.354   3.634   7.603 -2.4506 -0.9256  0.7262
   26SAPC  H10S 3452   5.496   3.593   7.514 -0.3320  2.7127  3.2280
   26SAPC  C211 3453   5.406   3.428   7.635  0.1859 -0.1059  0.6991
   26SAPC  H11R 3454   5.479   3.357   7.594 -1.9123 -2.5990  1.0058
   26SAPC  C212 3455   5.337   3.406   7.750  0.4416  0.2532  0.1527
   26SAPC  H12R 3456   5.349   3.315   7.809 -0.9889 -0.0685 -0.0126
   26SAPC  C213 3457   5.231   3.493   7.812  0.2302 -0.2198  0.5711
   26SAPC  H13R 3458   5.161   3.534   7.736 -0.6709 -0.4329  1.2822
   26SAPC  H13S 3459   5.269   3.573   7.879  0.8235  0.1790 -0.2098
   26SAPC  C214 3460   5.152   3.412   7.906 -0.4548 -0.3888  0.0939
   26SAPC  H14R 3461   5.047   3.408   7.875 -0.5977 -2.3533  0.6803
   26SAPC  C215 3462   5.186   3.362   8.031  0.0883  0.3036  0.6759
   26SAPC  H15R 3463   5.119   3.301   8.094 -0.6308  1.0697  0.6752
   26SAPC  C216 3464   5.322   3.372   8.092 -0.1856 -0.5483  0.3566
   26SAPC  H16R 3465   5.315   3.424   8.190  1.5266  2.8309 -1.1177
   26SAPC  H16S 3466   5.401   3.426   8.034  0.6785 -0.9697  1.1137
   26SAPC  C217 3467   5.383   3.237   8.109  0.0240 -0.2789 -0.1363
   26SAPC  H17R 3468   5.384   3.162   8.027 -0.6236 -0.5696  0.1178
   26SAPC  H17S 3469   5.328   3.186   8.191 -0.4432 -0.0646 -0.3133
   26SAPC  C218 3470   5.538   3.241   8.142 -0.0396 -0.9473  0.3348
   26SAPC  H18R 3471   5.554   3.297   8.237 -0.1778  1.3265 -0.9031
   26SAPC  H18S 3472   5.586   3.309   8.069 -0.7632 -0.1006  0.6231
   26SAPC  C219 3473   5.601   3.102   8.145 -0.1470 -0.2944  0.7008
   26SAPC  H19R 3474   5.585   3.047   8.050 -1.1288 -0.4840  0.9628
   26SAPC  H19S 3475   5.540   3.046   8.219 -0.6045 -1.4060 -0.4789
   26SAPC  C220 3476   5.746   3.090   8.189 -0.0568 -0.6770 -0.4223
   26SAPC  H20R 3477   5.749   3.165   8.271  1.5561  0.9512 -1.8814
   26SAPC  H20S 3478   5.816   3.130   8.113  0.3304 -0.2171  0.1602
   26SAPC  H20T 3479   5.779   2.987   8.214  1.9264  0.4569  2.1591
   26SAPC   C33 3480   4.918   3.061   7.023  0.3460  0.2899  0.5340
   26SAPC   H3X 3481   5.025   3.078   6.996  0.4323  2.8119  2.1439
   26SAPC   H3Y 3482   4.884   2.956   7.013 -0.0141  0.5491 -1.3113
   26SAPC   C34 3483   4.897   3.105   7.169 -0.5050 -0.4527 -0.3769
   26SAPC   H4X 3484   4.811   3.054   7.217  0.1320 -1.6080 -0.4278
   26SAPC   H4Y 3485   4.873   3.214   7.176  2.8065  0.3486  0.6365
   26SAPC   C35 3486   5.016   3.089   7.262  0.1612  0.1266 -0.3641
   26SAPC   H5X 3487   5.106   3.131   7.213 -0.7214  1.1673 -1.1645
   26SAPC   H5Y 3488   5.027   2.982   7.292 -1.4381 -0.2663 -1.0633
   26SAPC   C36 3489   5.006   3.166   7.395  0.1448  0.0526  0.7620
   26SAPC   H6X 3490   4.973   3.269   7.372 -1.5797 -0.8471 -1.2061
   26SAPC   H6Y 3491   5.107   3.156   7.440  1.2552  0.1413 -1.5622
   26SAPC   C37 3492   4.915   3.103   7.501  0.5214 -0.1523  0.6711
   26SAPC   H7X 3493   4.957   3.003   7.527 -0.9496 -1.1030 -0.3970
   26SAPC   H7Y 3494   4.817   3.096   7.450  0.4797  0.5848  0.6388
   26SAPC   C38 3495   4.895   3.184   7.631  0.1832  0.5648 -0.1089
   26SAPC   H8X 3496   4.849   3.283   7.608 -2.5973 -0.4169  0.7480
   26SAPC   H8Y 3497   4.986   3.200   7.692 -0.3383  3.4897  0.0833
   26SAPC   C39 3498   4.804   3.119   7.721 -0.4188  0.3626 -0.2290
   26SAPC   H9X 3499   4.846   3.017   7.730 -3.0642 -0.7087  1.1748
   26SAPC   H9Y 3500   4.701   3.097   7.687 -0.0686 -0.8788 -0.5082
   26SAPC  C310 3501   4.793   3.188   7.859  0.3071  0.8566  0.2002
   26SAPC  H10X 3502   4.702   3.251   7.850  0.1561  0.6007 -0.0741
   26SAPC  H10Y 3503   4.880   3.255   7.876  1.2585 -0.4241  0.4687
   26SAPC  C311 3504   4.765   3.097   7.977  0.4045 -0.2004  0.1416
   26SAPC  H11X 3505   4.826   3.006   7.962 -0.3310 -0.4717 -1.4003
   26SAPC  H11Y 3506   4.657   3.069   7.977 -1.0994  4.6117 -1.4819
   26SAPC  C312 3507   4.798   3.165   8.108 -0.2473  0.0563  0.6559
   26SAPC  H12X 3508   4.747   3.262   8.125 -0.2700  0.5033 -1.6269
   26SAPC  H12Y 3509   4.905   3.193   8.106  0.4745 -2.4917  0.5291
   26SAPC  C313 3510   4.779   3.065   8.225 -0.5627 -0.1300 -0.5313
   26SAPC  H13X 3511   4.835   2.972   8.203 -1.6066 -0.7956 -0.4586
   26SAPC  H13Y 3512   4.673   3.031   8.225  0.0961 -2.3646 -0.9936
   26SAPC  C314 3513   4.825   3.127   8.365  0.1638 -0.3827 -0.7659
   26SAPC  H14X 3514   4.782   3.229   8.372  0.1407 -0.4627  0.7255
   26SAPC  H14Y 3515   4.936   3.128   8.369  0.2075 -0.5789  4.1370
   26SAPC  C315 3516   4.772   3.056   8.497  0.3914  0.4845  0.1228
   26SAPC  H15X 3517   4.822   3.101   8.585 -0.7538  0.8046  0.6258
   26SAPC  H15Y 3518   4.795   2.947   8.499 -0.9492  0.1485 -0.9534
   26SAPC  C316 3519   4.620   3.058   8.532  0.5619  0.6451  0.2055
   26SAPC  H16X 3520   4.550   3.005   8.464  0.4445  1.6754 -0.5008
   26SAPC  H16Y 3521   4.587   3.162   8.551 -0.0806  0.2829  1.2145
   26SAPC  C317 3522   4.599   2.990   8.672 -0.1596 -0.4590  0.1972
   26SAPC  H17X 3523   4.669   3.040   8.741  1.1565 -0.2100 -1.2576
   26SAPC  H17Y 3524   4.624   2.884   8.649 -1.1886 -0.9616  1.2915
   26SAPC  C318 3525   4.466   3.008   8.730  0.1344  0.2510  0.1704
   26SAPC  H18X 3526   4.450   3.118   8.741 -0.6323  0.3412 -1.6088
   26SAPC  H18Y 3527   4.461   2.955   8.827  1.9246  1.2592  0.8800
   26SAPC  H18Z 3528   4.386   2.967   8.665 -0.9435 -2.3491  2.9124
   27SAPC     N 3529   3.203   4.761   6.682 -0.3018  0.3754  0.2866
   27SAPC   C12 3530   3.285   4.861   6.769  0.0426  0.6545  0.5013
   27SAPC  H12A 3531   3.329   4.937   6.706 -0.7195 -0.2829 -1.2402
   27SAPC  H12B 3532   3.366   4.815   6.824 -0.4768 -0.2631  0.5057
   27SAPC   C13 3533   3.289   4.713   6.567 -0.1462  0.6035  0.2832
   27SAPC  H13A 3534   3.339   4.800   6.525 -0.9578  1.1969  0.5325
   27SAPC  H13B 3535   3.371   4.659   6.612 -0.1050  0.8709  0.5321
   27SAPC  H13C 3536   3.240   4.653   6.492 -1.4016  1.1192  0.6611
   27SAPC   C14 3537   3.159   4.646   6.766  0.1993  0.7962 -0.2971
   27SAPC  H14A 3538   3.109   4.579   6.698 -0.1160  1.6369 -0.9127
   27SAPC  H14B 3539   3.243   4.588   6.803 -0.8525 -1.3915 -1.2100
   27SAPC  H14C 3540   3.098   4.684   6.847  0.8155 -2.2812  1.7861
   27SAPC   C15 3541   3.089   4.828   6.608  0.1713  1.3569 -0.4362
   27SAPC  H15A 3542   3.047   4.765   6.531 -1.3382  0.6881  0.8968
   27SAPC  H15B 3543   3.012   4.871   6.670  0.6804  2.4242 -0.5069
   27SAPC  H15C 3544   3.130   4.913   6.554  0.4352  1.2991 -0.3304
   27SAPC   C11 3545   3.194   4.940   6.873  0.8074 -0.3531  0.1671
   27SAPC  H11A 3546   3.257   4.979   6.956 -1.1976  1.3577  1.0048
   27SAPC  H11B 3547   3.126   4.866   6.922 -0.0582  1.2085  1.4311
   27SAPC     P 3548   3.160   5.175   6.761 -0.2058 -0.4046 -0.2666
   27SAPC   O13 3549   3.261   5.146   6.661 -0.6264  0.1136  0.6865
   27SAPC   O14 3550   3.044   5.267   6.727 -0.7551 -0.3386 -0.4666
   27SAPC   O12 3551   3.108   5.040   6.813 -0.2418  0.7218  0.5045
   27SAPC   O11 3552   3.235   5.228   6.889 -0.0159  0.6516  0.3938
   27SAPC    C1 3553   3.172   5.278   7.004  0.2403 -0.3100  0.0271
   27SAPC    HA 3554   3.106   5.363   6.975 -2.2297 -1.9518  0.5257
   27SAPC    HB 3555   3.096   5.206   7.043 -1.5820  2.0699  1.1176
   27SAPC    C2 3556   3.264   5.329   7.117 -0.2713  0.0642 -0.1342
   27SAPC    HS 3557   3.321   5.416   7.078  0.1159  0.3680  1.0701
   27SAPC   O21 3558   3.361   5.222   7.158 -0.1004  0.0994 -0.0624
   27SAPC   C21 3559   3.476   5.277   7.215 -0.0319  0.1793 -0.2495
   27SAPC   O22 3560   3.507   5.396   7.200 -0.4324  0.3729  0.1940
   27SAPC   C22 3561   3.553   5.166   7.285  0.5159 -0.4181 -0.2883
   27SAPC   H2R 3562   3.492   5.113   7.361  2.4209  0.6234  2.0929
   27SAPC   H2S 3563   3.586   5.083   7.219  0.0922  0.2450 -1.3528
   27SAPC    C3 3564   3.184   5.378   7.237  0.3945  0.2412 -0.6344
   27SAPC    HX 3565   3.141   5.287   7.285  0.5644 -1.3571 -3.3012
   27SAPC    HY 3566   3.105   5.449   7.206  0.6726  0.6035 -0.5170
   27SAPC   O31 3567   3.269   5.461   7.325 -0.3169 -0.2163 -0.2147
   27SAPC   C31 3568   3.273   5.419   7.457  0.4072 -0.0673  0.0808
   27SAPC   O32 3569   3.228   5.314   7.502  0.5154 -0.2930 -0.3087
   27SAPC   C32 3570   3.355   5.513   7.544 -0.5550  0.0020  0.3084
   27SAPC   H2X 3571   3.290   5.603   7.552 -0.9172 -0.0191 -1.8026
   27SAPC   H2Y 3572   3.449   5.546   7.496 -0.6158  1.7208  1.2857
   27SAPC   C23 3573   3.695   5.216   7.334  0.1796 -0.3757 -0.2867
   27SAPC   H3R 3574   3.746   5.286   7.265  1.2614 -2.1838 -1.4016
   27SAPC   H3S 3575   3.764   5.130   7.346 -0.9283 -1.3771 -0.8350
   27SAPC   C24 3576   3.666   5.284   7.460  0.3342 -0.0910  0.2921
   27SAPC   H4R 3577   3.597   5.223   7.522 -0.9171 -1.3518 -2.1738
   27SAPC   H4S 3578   3.607   5.378   7.447 -0.8158 -0.7685  0.4996
   27SAPC   C25 3579   3.793   5.330   7.529 -0.1569 -0.0608  0.4248
   27SAPC   H5R 3580   3.857   5.399   7.473  0.3308 -1.3135 -0.6239
   27SAPC   C26 3581   3.845   5.277   7.639  0.0868  0.8318 -0.4455
   27SAPC   H6R 3582   3.936   5.327   7.674  0.5256  0.5459 -1.1558
   27SAPC   C27 3583   3.795   5.162   7.723 -0.3017 -0.0288  0.4002
   27SAPC   H7R 3584   3.889   5.106   7.741 -1.0669 -0.7180  2.6209
   27SAPC   H7S 3585   3.722   5.097   7.671 -0.3949 -0.4060  0.9916
   27SAPC   C28 3586   3.723   5.200   7.852 -0.0590 -0.2407 -0.4307
   27SAPC   H8R 3587   3.669   5.295   7.854  0.5175  0.0828  0.5356
   27SAPC   C29 3588   3.710   5.124   7.965 -0.7345 -0.3740  0.1312
   27SAPC   H9R 3589   3.663   5.174   8.050  0.7104 -0.0485  0.7641
   27SAPC  C210 3590   3.768   4.992   7.986 -0.1943  0.7794  0.8207
   27SAPC  H10R 3591   3.879   4.987   7.979 -0.3197 -1.0528 -4.9491
   27SAPC  H10S 3592   3.746   4.937   7.892  3.2452 -1.7196  1.2630
   27SAPC  C211 3593   3.736   4.904   8.095  0.2280  0.6369  0.8288
   27SAPC  H11R 3594   3.670   4.826   8.052  0.9691  1.9176 -3.0373
   27SAPC  C212 3595   3.756   4.914   8.225 -0.4148 -0.1149  0.0447
   27SAPC  H12R 3596   3.711   4.841   8.294 -1.6791  1.3784  0.8652
   27SAPC  C213 3597   3.818   5.032   8.298 -0.2143  0.8683 -0.0949
   27SAPC  H13R 3598   3.815   5.121   8.232 -1.0596 -0.2930 -1.6889
   27SAPC  H13S 3599   3.923   5.007   8.324 -1.0501 -1.4349  1.4468
   27SAPC  C214 3600   3.736   5.054   8.424 -0.1990 -0.0345 -0.1861
   27SAPC  H14R 3601   3.755   4.966   8.487 -0.2623 -0.8892 -1.3287
   27SAPC  C215 3602   3.659   5.162   8.452 -0.0385  0.3484  0.3462
   27SAPC  H15R 3603   3.612   5.146   8.550 -0.7181 -3.4155 -0.4499
   27SAPC  C216 3604   3.638   5.281   8.362  0.0472  0.4668  0.1078
   27SAPC  H16R 3605   3.726   5.282   8.295  2.0381  0.3084  2.5551
   27SAPC  H16S 3606   3.628   5.382   8.408 -1.9205  0.7086 -0.7205
   27SAPC  C217 3607   3.501   5.290   8.285  0.5861  0.1665  0.3055
   27SAPC  H17R 3608   3.423   5.285   8.365  0.3653 -0.4139  0.0566
   27SAPC  H17S 3609   3.501   5.203   8.217  0.3495 -0.7710  1.4757
   27SAPC  C218 3610   3.487   5.422   8.209  0.7013 -0.5440 -0.2259
   27SAPC  H18R 3611   3.577   5.441   8.147 -0.4077  3.0456 -0.9553
   27SAPC  H18S 3612   3.479   5.507   8.280 -0.6546 -0.9499  0.1451
   27SAPC  C219 3613   3.360   5.437   8.120  0.0073 -0.5331 -0.3214
   27SAPC  H19R 3614   3.359   5.541   8.082  2.6177 -0.0426  0.7160
   27SAPC  H19S 3615   3.269   5.424   8.182  0.6657  0.3438  0.8710
   27SAPC  C220 3616   3.345   5.329   8.015  0.1708  0.2959  0.2359
   27SAPC  H20R 3617   3.427   5.338   7.941  0.5199 -0.0547  0.5758
   27SAPC  H20S 3618   3.250   5.336   7.957  1.8522 -2.4352 -3.1910
   27SAPC  H20T 3619   3.358   5.234   8.071  0.8486 -0.5709 -1.3328
   27SAPC   C33 3620   3.403   5.454   7.680  0.2746  0.4120 -0.0294
   27SAPC   H3X 3621   3.427   5.346   7.674 -0.2925  0.3274 -1.1452
   27SAPC   H3Y 3622   3.320   5.470   7.752 -1.9475 -0.8046 -2.1566
   27SAPC   C34 3623   3.516   5.531   7.739 -0.1114 -0.0849 -0.2978
   27SAPC   H4X 3624   3.603   5.541   7.670 -0.2273  1.5828 -0.2486
   27SAPC   H4Y 3625   3.558   5.472   7.823  0.4134  2.0982  1.0765
   27SAPC   C35 3626   3.474   5.672   7.780 -0.0652  0.5010  0.5858
   27SAPC   H5X 3627   3.369   5.669   7.817 -0.3673  1.4460 -0.1543
   27SAPC   H5Y 3628   3.471   5.739   7.691 -0.1396 -2.1847 -1.6053
   27SAPC   C36 3629   3.551   5.716   7.900 -0.5440  0.8642 -0.0824
   27SAPC   H6X 3630   3.645   5.772   7.883 -0.3949  0.3821 -0.9200
   27SAPC   H6Y 3631   3.576   5.623   7.955 -2.1005 -0.0743 -0.8778
   27SAPC   C37 3632   3.467   5.795   7.994  0.6151 -0.9871  0.6359
   27SAPC   H7X 3633   3.365   5.758   8.020 -0.8045  2.1567 -0.0568
   27SAPC   H7Y 3634   3.444   5.891   7.944 -2.6422 -1.0200  1.8328
   27SAPC   C38 3635   3.544   5.802   8.126  0.2297  0.0533 -0.3057
   27SAPC   H8X 3636   3.645   5.838   8.097 -0.1533  0.9029 -0.6244
   27SAPC   H8Y 3637   3.552   5.699   8.167 -1.7860 -0.5129 -1.2172
   27SAPC   C39 3638   3.479   5.893   8.227  0.5692  0.1465 -0.1396
   27SAPC   H9X 3639   3.376   5.853   8.233  1.8117 -3.9917 -2.3846
   27SAPC   H9Y 3640   3.469   6.002   8.203  0.1730  0.4636  1.3874
   27SAPC  C310 3641   3.546   5.893   8.369  0.7930 -0.5270 -0.1630
   27SAPC  H10X 3642   3.643   5.949   8.367  1.6851 -2.0501 -1.1267
   27SAPC  H10Y 3643   3.566   5.787   8.393 -1.4837 -0.9841 -0.1444
   27SAPC  C311 3644   3.461   5.953   8.479  0.0996 -0.3113 -0.3067
   27SAPC  H11X 3645   3.365   5.897   8.482 -1.3133  2.0203  0.7605
   27SAPC  H11Y 3646   3.434   6.058   8.453  0.0408  0.0153  1.0073
   27SAPC  C312 3647   3.523   5.959   8.621 -0.8348 -0.2593  0.0735
   27SAPC  H12X 3648   3.457   6.035   8.669 -0.8871  1.2086 -2.2097
   27SAPC  H12Y 3649   3.627   5.999   8.623  0.0318 -2.2790  2.5775
   27SAPC  C313 3650   3.525   5.819   8.684  0.7841  0.0365 -0.3898
   27SAPC  H13X 3651   3.602   5.750   8.642 -0.2877 -2.0559  0.9002
   27SAPC  H13Y 3652   3.420   5.786   8.673  0.1798  1.4331  0.7991
   27SAPC  C314 3653   3.555   5.838   8.831 -0.0956  0.5033 -1.1764
   27SAPC  H14X 3654   3.546   5.742   8.886  1.2738  2.3061  2.5048
   27SAPC  H14Y 3655   3.487   5.912   8.879  0.4324 -0.5345  1.3280
   27SAPC  C315 3656   3.700   5.880   8.857 -0.5877 -0.1146 -0.7132
   27SAPC  H15X 3657   3.710   5.971   8.794 -3.0113  0.7315  0.0318
   27SAPC  H15Y 3658   3.773   5.803   8.822  1.3028  0.5786  1.4637
   27SAPC  C316 3659   3.718   5.916   9.007  0.4871  0.0035 -0.6919
   27SAPC  H16X 3660   3.715   5.819   9.061 -0.7227  1.2882  1.6938
   27SAPC  H16Y 3661   3.638   5.980   9.050 -1.3591 -1.2592 -2.0687
   27SAPC  C317 3662   3.852   5.980   9.048  0.1559  0.0036 -0.3970
   27SAPC  H17X 3663   3.845   6.085   9.014 -2.2499  0.2499  0.6433
   27SAPC  H17Y 3664   3.931   5.932   8.986  1.2454  1.3902 -0.1339
   27SAPC  C318 3665   3.877   5.968   9.194 -0.1725 -0.6013 -0.1876
   27SAPC  H18X 3666   3.965   6.032   9.215 -1.2110  0.6645  0.4425
   27SAPC  H18Y 3667   3.890   5.863   9.228 -0.7144 -0.2588  1.1314
   27SAPC  H18Z 3668   3.795   6.008   9.257  0.6941  0.8137  0.0607
   28SAPC     N 3669   3.964   1.441   5.868 -0.2858 -0.1178  0.2831
   28SAPC   C12 3670   3.850   1.463   5.952  0.1248 -0.5930 -0.0579
   28SAPC  H12A 3671   3.792   1.374   5.935  1.7011 -1.5726 -0.5979
   28SAPC  H12B 3672   3.797   1.544   5.904  1.6805 -0.1560 -1.1322
   28SAPC   C13 3673   3.929   1.374   5.743 -0.4138 -0.4987 -0.6494
   28SAPC  H13A 3674   4.015   1.347   5.685  0.6899  1.0166  0.1827
   28SAPC  H13B 3675   3.880   1.282   5.770 -0.1252  0.0054  1.9376
   28SAPC  H13C 3676   3.858   1.425   5.680 -2.4532 -2.6767 -0.2675
   28SAPC   C14 3677   4.036   1.578   5.840  0.0558 -0.1619 -0.0129
   28SAPC  H14A 3678   4.142   1.566   5.826 -0.1834 -1.0147 -1.3440
   28SAPC  H14B 3679   3.993   1.625   5.753  0.7865 -1.8269 -1.3420
   28SAPC  H14C 3680   4.020   1.633   5.931 -3.0998  0.7851 -1.0055
   28SAPC   C15 3681   4.070   1.354   5.934 -0.1348 -0.2428  0.1091
   28SAPC  H15A 3682   4.158   1.352   5.872 -1.6651  0.0071 -2.1666
   28SAPC  H15B 3683   4.094   1.392   6.033  2.0903 -0.6328 -0.2486
   28SAPC  H15C 3684   4.036   1.254   5.957 -0.6384 -0.7713 -2.6710
   28SAPC   C11 3685   3.863   1.509   6.101  0.0558 -0.5993 -0.1565
   28SAPC  H11A 3686   3.884   1.417   6.159  1.5430 -0.9832 -1.2449
   28SAPC  H11B 3687   3.757   1.536   6.122 -0.0532 -1.7176  0.7928
   28SAPC     P 3688   4.065   1.600   6.234  0.1870 -0.4325  0.0851
   28SAPC   O13 3689   4.175   1.530   6.165  0.1627  0.1033  0.3239
   28SAPC   O14 3690   4.102   1.726   6.302  0.2069 -0.3935 -0.5671
   28SAPC   O12 3691   3.951   1.623   6.133 -0.0245 -0.3389 -0.0212
   28SAPC   O11 3692   4.013   1.501   6.347  0.0997 -0.4032 -0.3085
   28SAPC    C1 3693   3.911   1.534   6.436  0.6282 -0.2310  0.8019
   28SAPC    HA 3694   3.877   1.640   6.439  0.9144 -0.0642 -0.7405
   28SAPC    HB 3695   3.825   1.472   6.404 -0.2402  0.6681  1.3461
   28SAPC    C2 3696   3.942   1.498   6.584  0.6818  0.4560  0.1021
   28SAPC    HS 3697   3.849   1.501   6.646  0.1292 -4.7846 -0.0034
   28SAPC   O21 3698   4.038   1.591   6.634 -0.5401  0.4180  0.4780
   28SAPC   C21 3699   3.997   1.712   6.657 -0.3539 -0.0278  0.1850
   28SAPC   O22 3700   3.882   1.758   6.652 -0.1269 -0.4872 -0.1242
   28SAPC   C22 3701   4.123   1.778   6.710 -0.8481  0.1713  0.5125
   28SAPC   H2R 3702   4.210   1.710   6.721 -1.8681 -1.3275 -0.2898
   28SAPC   H2S 3703   4.153   1.846   6.628  0.1848  0.5485  1.1934
   28SAPC    C3 3704   3.992   1.356   6.604  0.0105  0.0213 -0.5140
   28SAPC    HX 3705   4.086   1.330   6.551  0.9890  1.7232  0.2918
   28SAPC    HY 3706   3.919   1.285   6.558  1.5455 -2.2879  0.4102
   28SAPC   O31 3707   4.002   1.322   6.744  0.3514 -0.1695 -0.5446
   28SAPC   C31 3708   4.116   1.366   6.800 -0.4545  0.0170  0.5752
   28SAPC   O32 3709   4.210   1.413   6.742 -0.4828  1.0314  0.7440
   28SAPC   C32 3710   4.103   1.353   6.952  0.3559  0.0875  0.5206
   28SAPC   H2X 3711   4.064   1.250   6.969  1.5039  0.0444  3.4469
   28SAPC   H2Y 3712   4.033   1.432   6.986 -1.1218 -1.6137  1.6380
   28SAPC   C23 3713   4.099   1.873   6.832 -0.3234 -0.3632  0.1446
   28SAPC   H3R 3714   4.016   1.942   6.807 -0.0663 -0.5146 -1.2167
   28SAPC   H3S 3715   4.188   1.940   6.839 -0.5901 -0.0386  0.4732
   28SAPC   C24 3716   4.076   1.787   6.959 -0.4336  0.1944  0.1452
   28SAPC   H4R 3717   3.995   1.717   6.929 -0.7418  1.1212 -1.2682
   28SAPC   H4S 3718   4.163   1.721   6.981 -0.1309  0.7422  0.6217
   28SAPC   C25 3719   4.037   1.870   7.076  0.3866  0.1700 -0.2269
   28SAPC   H5R 3720   3.964   1.951   7.062  1.1312  0.9203  0.1234
   28SAPC   C26 3721   4.092   1.867   7.208  1.2428 -0.6560 -0.6779
   28SAPC   H6R 3722   4.032   1.924   7.280 -1.9025  0.2734 -3.7684
   28SAPC   C27 3723   4.193   1.768   7.262  0.3090 -0.4635 -0.5078
   28SAPC   H7R 3724   4.210   1.693   7.181  2.0012  1.0014 -1.5893
   28SAPC   H7S 3725   4.158   1.718   7.355 -1.3055 -0.7634 -1.2401
   28SAPC   C28 3726   4.332   1.834   7.268  0.6146  0.0010  0.6290
   28SAPC   H8R 3727   4.400   1.829   7.181  1.4119 -1.6685  1.3140
   28SAPC   C29 3728   4.381   1.899   7.375  0.1021 -0.7958 -0.1736
   28SAPC   H9R 3729   4.481   1.945   7.370  1.2466 -3.1485 -0.4193
   28SAPC  C210 3730   4.312   1.916   7.507  0.5574 -0.6841 -0.1919
   28SAPC  H10R 3731   4.354   1.860   7.593 -0.6589 -0.0034  0.8762
   28SAPC  H10S 3732   4.207   1.882   7.512  0.1806  0.1027 -1.9500
   28SAPC  C211 3733   4.302   2.064   7.531 -0.0146 -0.2032 -0.5366
   28SAPC  H11R 3734   4.271   2.120   7.440 -1.5487 -0.1008  0.0109
   28SAPC  C212 3735   4.334   2.136   7.647  0.4643 -0.1271 -0.2869
   28SAPC  H12R 3736   4.320   2.245   7.640 -0.5182 -0.3001 -1.3109
   28SAPC  C213 3737   4.392   2.077   7.773 -0.5719 -0.0659  0.0536
   28SAPC  H13R 3738   4.502   2.095   7.778 -0.6578  0.2838  0.9734
   28SAPC  H13S 3739   4.372   1.968   7.780 -1.4939  0.1286  0.6306
   28SAPC  C214 3740   4.337   2.147   7.896  0.2869 -0.2157 -0.4164
   28SAPC  H14R 3741   4.235   2.190   7.896  0.8751  1.2585 -0.9056
   28SAPC  C215 3742   4.408   2.204   7.988 -1.2728  0.0415 -0.4688
   28SAPC  H15R 3743   4.349   2.264   8.059  1.3989  0.6236  1.4385
   28SAPC  C216 3744   4.564   2.205   8.008  0.1426  0.1465  0.5105
   28SAPC  H16R 3745   4.610   2.305   7.997 -3.2500  2.0464  1.8052
   28SAPC  H16S 3746   4.617   2.138   7.936 -2.3088  0.0381 -1.3400
   28SAPC  C217 3747   4.603   2.157   8.147 -0.2065 -0.3885  0.0531
   28SAPC  H17R 3748   4.712   2.141   8.161 -0.1673  0.5363  0.9111
   28SAPC  H17S 3749   4.559   2.055   8.160 -2.3879  0.7041  2.1249
   28SAPC  C218 3750   4.574   2.247   8.264  0.7264 -0.3713 -0.5375
   28SAPC  H18R 3751   4.464   2.264   8.263  0.5683 -1.3073 -0.3235
   28SAPC  H18S 3752   4.616   2.348   8.249 -2.5397  1.3185  0.6168
   28SAPC  C219 3753   4.635   2.184   8.390  0.1152  1.0308 -0.2093
   28SAPC  H19R 3754   4.617   2.257   8.471  0.7888  1.6581 -0.6049
   28SAPC  H19S 3755   4.742   2.159   8.374 -0.5280 -1.9235 -0.4996
   28SAPC  C220 3756   4.551   2.064   8.437  0.4666  0.2858 -0.5560
   28SAPC  H20R 3757   4.519   1.998   8.354 -1.8027  1.6513 -0.8416
   28SAPC  H20S 3758   4.452   2.096   8.475 -0.1449 -3.0558  1.0328
   28SAPC  H20T 3759   4.601   2.005   8.516 -0.5997 -0.6981 -0.6025
   28SAPC   C33 3760   4.229   1.368   7.038 -0.2189 -0.4172 -0.3900
   28SAPC   H3X 3761   4.256   1.476   7.039 -1.0453 -0.1203  2.8165
   28SAPC   H3Y 3762   4.322   1.322   6.998  1.3933  1.0867  1.4085
   28SAPC   C34 3763   4.227   1.319   7.186 -0.1842 -0.3613  0.5892
   28SAPC   H4X 3764   4.189   1.217   7.209 -0.5832 -0.1809  0.7325
   28SAPC   H4Y 3765   4.156   1.381   7.244  0.4740 -2.8386  4.3389
   28SAPC   C35 3766   4.364   1.342   7.253  0.4966  0.9554  0.6184
   28SAPC   H5X 3767   4.397   1.448   7.260  0.7273  0.8651  0.9470
   28SAPC   H5Y 3768   4.436   1.291   7.185 -1.4831  0.9731 -1.6017
   28SAPC   C36 3769   4.385   1.259   7.386 -0.3537  0.4486  0.0296
   28SAPC   H6X 3770   4.494   1.252   7.406 -0.4507 -0.1245  0.4016
   28SAPC   H6Y 3771   4.354   1.154   7.367 -1.4682  0.8212 -0.2864
   28SAPC   C37 3772   4.311   1.320   7.500  0.3185 -0.0209 -0.6547
   28SAPC   H7X 3773   4.205   1.288   7.503  0.0640  0.7731 -1.0870
   28SAPC   H7Y 3774   4.328   1.429   7.497 -1.0017  0.1835 -3.5855
   28SAPC   C38 3775   4.367   1.266   7.635  0.0291  0.4621  0.0675
   28SAPC   H8X 3776   4.474   1.295   7.645  1.0709 -1.7809 -2.8792
   28SAPC   H8Y 3777   4.367   1.156   7.647 -2.1067  0.4517  0.4113
   28SAPC   C39 3778   4.283   1.336   7.752  0.2112  0.3925  0.5664
   28SAPC   H9X 3779   4.179   1.299   7.740  0.3148 -0.1104  1.2366
   28SAPC   H9Y 3780   4.282   1.447   7.737  2.4951  0.5924  1.5742
   28SAPC  C310 3781   4.322   1.290   7.897  1.0300 -0.3549  0.2374
   28SAPC  H10X 3782   4.425   1.317   7.930  0.6463 -1.0376  2.1208
   28SAPC  H10Y 3783   4.321   1.179   7.885 -0.1940 -0.3253 -0.0076
   28SAPC  C311 3784   4.220   1.329   7.997  0.9572 -0.2098 -0.2498
   28SAPC  H11X 3785   4.120   1.295   7.962  0.9984 -1.0372  0.4220
   28SAPC  H11Y 3786   4.237   1.437   8.019  0.9859 -0.2762  0.0586
   28SAPC  C312 3787   4.239   1.250   8.130 -0.6240 -0.4734 -1.1168
   28SAPC  H12X 3788   4.350   1.261   8.129 -0.7208  0.6252 -2.0857
   28SAPC  H12Y 3789   4.226   1.140   8.131  0.7605 -0.7078 -2.9504
   28SAPC  C313 3790   4.174   1.317   8.253 -0.0749  0.8090  0.0358
   28SAPC  H13X 3791   4.225   1.407   8.292 -1.4460  0.8506  1.8382
   28SAPC  H13Y 3792   4.172   1.231   8.323 -2.1894 -0.2826 -1.2378
   28SAPC  C314 3793   4.029   1.356   8.221  0.8381  0.3562 -0.0697
   28SAPC  H14X 3794   3.980   1.275   8.164  2.6774 -0.8418 -0.0179
   28SAPC  H14Y 3795   4.034   1.450   8.162 -0.4224  1.1180  0.9783
   28SAPC  C315 3796   3.962   1.374   8.364  0.2189 -0.6833  0.8688
   28SAPC  H15X 3797   3.993   1.277   8.409  3.4347  0.2433  0.8507
   28SAPC  H15Y 3798   3.853   1.367   8.341  0.5226  1.9374 -2.0195
   28SAPC  C316 3799   4.010   1.495   8.435 -0.1836  0.1071  0.0240
   28SAPC  H16X 3800   4.000   1.588   8.376  0.6688  0.2052  0.0276
   28SAPC  H16Y 3801   4.121   1.488   8.434 -0.1959 -0.0382 -0.4474
   28SAPC  C317 3802   3.959   1.512   8.581  0.5549 -0.5981  0.3741
   28SAPC  H17X 3803   3.992   1.427   8.644  0.5682 -1.1055 -0.3102
   28SAPC  H17Y 3804   3.848   1.507   8.580  0.3898  1.8210 -0.4085
   28SAPC  C318 3805   4.015   1.649   8.632  0.2682  0.5502  0.0815
   28SAPC  H18X 3806   4.009   1.731   8.556  0.0765  0.6710  0.2218
   28SAPC  H18Y 3807   4.122   1.626   8.645 -0.2737 -1.7275  0.9256
   28SAPC  H18Z 3808   3.960   1.678   8.724 -0.9989 -0.7410 -0.2320
   29SAPC     N 3809   5.167   6.502   6.163  0.1814  0.0859 -0.5146
   29SAPC   C12 3810   5.267   6.516   6.272  0.6513  0.4155 -0.8697
   29SAPC  H12A 3811   5.247   6.601   6.335 -1.5553 -0.6208 -0.0635
   29SAPC  H12B 3812   5.364   6.531   6.229  0.0819  0.0052 -2.3527
   29SAPC   C13 3813   5.134   6.641   6.095 -0.2767  0.4059  0.5068
   29SAPC  H13A 3814   5.049   6.637   6.028  0.7850 -1.6580 -0.8139
   29SAPC  H13B 3815   5.105   6.711   6.172 -1.3632 -1.0624  1.4768
   29SAPC  H13C 3816   5.223   6.678   6.047 -0.9734 -0.5083 -1.5988
   29SAPC   C14 3817   5.215   6.408   6.059 -0.0435  0.2685 -0.5368
   29SAPC  H14A 3818   5.275   6.333   6.108  0.1307  2.0407  2.2246
   29SAPC  H14B 3819   5.136   6.363   6.000 -1.0045 -1.7546  2.0525
   29SAPC  H14C 3820   5.291   6.455   5.999  0.6292 -1.0810 -0.7735
   29SAPC   C15 3821   5.036   6.455   6.215  1.1282 -0.1412  0.2459
   29SAPC  H15A 3822   4.966   6.446   6.133 -0.0105 -0.7614  1.2522
   29SAPC  H15B 3823   5.040   6.363   6.271  1.9058  1.0409  2.2400
   29SAPC  H15C 3824   4.987   6.527   6.279 -0.7085  0.6011 -1.8174
   29SAPC   C11 3825   5.285   6.396   6.371 -0.5197 -0.2947 -0.2232
   29SAPC  H11A 3826   5.197   6.376   6.436 -0.8255 -0.7756 -0.7812
   29SAPC  H11B 3827   5.369   6.422   6.439  0.8649 -3.5769 -0.5008
   29SAPC     P 3828   5.477   6.230   6.302 -0.0937  0.2240 -0.1810
   29SAPC   O13 3829   5.502   6.114   6.214 -0.8070 -0.1571  0.2135
   29SAPC   O14 3830   5.555   6.355   6.278  0.4155 -0.5722  1.2882
   29SAPC   O12 3831   5.314   6.273   6.302  0.4562  0.4019 -0.4449
   29SAPC   O11 3832   5.497   6.176   6.451 -0.3336  0.1686 -0.0107
   29SAPC    C1 3833   5.399   6.084   6.501 -0.3873  0.4329 -0.2408
   29SAPC    HA 3834   5.320   6.134   6.562  0.2544  1.0006  0.1428
   29SAPC    HB 3835   5.347   6.020   6.427  0.5963 -0.1762 -0.4266
   29SAPC    C2 3836   5.474   5.983   6.595  0.8769  0.0685 -1.2263
   29SAPC    HS 3837   5.419   5.886   6.597 -0.8128  0.9940  0.1592
   29SAPC   O21 3838   5.483   6.057   6.724  0.5810  0.2944  0.2374
   29SAPC   C21 3839   5.440   5.983   6.818 -0.5809 -0.3328  0.1861
   29SAPC   O22 3840   5.405   5.866   6.810  1.0315  0.2310 -0.1447
   29SAPC   C22 3841   5.443   6.071   6.944 -0.5818  0.2937 -0.5400
   29SAPC   H2R 3842   5.520   6.151   6.935  1.1967 -0.9929  2.0676
   29SAPC   H2S 3843   5.343   6.119   6.941 -0.0582  1.3598 -1.6558
   29SAPC    C3 3844   5.614   5.949   6.537  0.9312 -0.6579 -0.4557
   29SAPC    HX 3845   5.661   6.048   6.516  1.9586 -1.0479 -0.0864
   29SAPC    HY 3846   5.612   5.893   6.441  3.7553 -1.6366 -0.0592
   29SAPC   O31 3847   5.679   5.882   6.645 -1.0638 -0.4798 -0.1156
   29SAPC   C31 3848   5.679   5.747   6.628  0.2738  0.0041 -0.6536
   29SAPC   O32 3849   5.617   5.685   6.542  0.5168 -0.2360  0.3750
   29SAPC   C32 3850   5.757   5.675   6.734 -0.2413  0.2682  1.3702
   29SAPC   H2X 3851   5.862   5.677   6.700 -0.7104 -3.5104 -0.8156
   29SAPC   H2Y 3852   5.719   5.570   6.736  1.6334 -0.4474  2.3076
   29SAPC   C23 3853   5.463   5.982   7.077 -0.2648 -0.7976 -0.2906
   29SAPC   H3R 3854   5.536   5.902   7.053  1.2730  0.2609  0.6166
   29SAPC   H3S 3855   5.375   5.917   7.095 -0.5608 -0.7419 -1.4611
   29SAPC   C24 3856   5.519   6.065   7.196 -0.0214  0.3275  0.6098
   29SAPC   H4R 3857   5.443   6.146   7.201 -1.7154 -1.2512  1.5272
   29SAPC   H4S 3858   5.615   6.104   7.156 -0.4563  1.6495  0.8074
   29SAPC   C25 3859   5.552   5.993   7.324 -0.2090  0.0249  0.0017
   29SAPC   H5R 3860   5.599   5.894   7.311  0.0909  0.0585  0.8009
   29SAPC   C26 3861   5.505   6.027   7.447  0.6010  0.7757 -0.3214
   29SAPC   H6R 3862   5.551   5.972   7.531 -1.0290  1.0180  0.7738
   29SAPC   C27 3863   5.413   6.138   7.481 -0.0550 -0.0181  0.0118
   29SAPC   H7R 3864   5.390   6.192   7.386  1.8306 -0.4337 -0.7308
   29SAPC   H7S 3865   5.465   6.213   7.545  0.8464  0.6171 -1.4156
   29SAPC   C28 3866   5.286   6.087   7.541  0.2390  0.0619 -0.1099
   29SAPC   H8R 3867   5.225   6.016   7.484  2.1665 -2.4410  0.7538
   29SAPC   C29 3868   5.237   6.121   7.658  0.0776 -0.6203  0.6096
   29SAPC   H9R 3869   5.139   6.076   7.681  0.5538 -0.8574  2.2680
   29SAPC  C210 3870   5.287   6.219   7.767  0.5019  0.1930  0.6462
   29SAPC  H10R 3871   5.332   6.309   7.720 -1.5943  0.1083 -1.7524
   29SAPC  H10S 3872   5.367   6.168   7.824  1.2990  0.2080 -0.4296
   29SAPC  C211 3873   5.179   6.264   7.858 -0.0627 -0.3959 -0.2938
   29SAPC  H11R 3874   5.081   6.268   7.808  0.6543 -0.8151 -1.7863
   29SAPC  C212 3875   5.189   6.300   7.990 -0.5501  0.4257 -0.6239
   29SAPC  H12R 3876   5.099   6.337   8.041  0.3372  2.2892 -0.2764
   29SAPC  C213 3877   5.319   6.302   8.071  0.0079  0.0812  0.4487
   29SAPC  H13R 3878   5.319   6.374   8.155  0.1573  0.1779  0.3658
   29SAPC  H13S 3879   5.402   6.338   8.007  0.6184  0.2010  1.2956
   29SAPC  C214 3880   5.352   6.161   8.102  0.3582 -0.2214 -0.8317
   29SAPC  H14R 3881   5.320   6.087   8.028  2.2527 -2.0036  0.0228
   29SAPC  C215 3882   5.406   6.108   8.215  0.6179 -0.6556 -0.1668
   29SAPC  H15R 3883   5.412   5.999   8.221 -0.8577 -0.8457 -1.4145
   29SAPC  C216 3884   5.440   6.186   8.336  0.3979 -0.1917 -0.0691
   29SAPC  H16R 3885   5.434   6.295   8.320 -0.8872 -0.0632  1.0979
   29SAPC  H16S 3886   5.548   6.163   8.352  0.7555 -1.1174 -3.2677
   29SAPC  C217 3887   5.363   6.154   8.463 -0.4204 -0.1602 -0.8722
   29SAPC  H17R 3888   5.260   6.119   8.440 -0.2748 -0.9416 -0.4031
   29SAPC  H17S 3889   5.357   6.249   8.519  4.5813  0.6224 -1.1998
   29SAPC  C218 3890   5.446   6.054   8.546  0.3016  0.1278 -0.0761
   29SAPC  H18R 3891   5.553   6.085   8.554  1.0705 -2.7038  2.5406
   29SAPC  H18S 3892   5.442   5.950   8.507  1.0579  0.1404 -0.2041
   29SAPC  C219 3893   5.397   6.047   8.696 -0.3146  0.6464  0.8623
   29SAPC  H19R 3894   5.312   5.976   8.691 -0.3051  0.7002 -0.4688
   29SAPC  H19S 3895   5.362   6.141   8.744 -1.9983 -0.0059  0.9762
   29SAPC  C220 3896   5.503   5.982   8.791 -0.5040  0.1485  0.2188
   29SAPC  H20R 3897   5.462   5.970   8.894 -2.1308 -1.0429 -0.5241
   29SAPC  H20S 3898   5.596   6.044   8.790  0.8302 -1.6870 -2.7911
   29SAPC  H20T 3899   5.526   5.883   8.747  0.5449 -0.0164  1.0781
   29SAPC   C33 3900   5.746   5.733   6.876  0.4299  0.2630  0.6515
   29SAPC   H3X 3901   5.638   5.752   6.891  0.1134 -2.4854  2.6388
   29SAPC   H3Y 3902   5.795   5.833   6.873  0.5997  0.1542 -2.0917
   29SAPC   C34 3903   5.780   5.639   6.990  0.4877 -0.4378 -0.1151
   29SAPC   H4X 3904   5.884   5.601   6.982  0.2888 -1.0109 -0.0366
   29SAPC   H4Y 3905   5.718   5.549   6.970  0.2017 -0.2550 -0.0656
   29SAPC   C35 3906   5.751   5.687   7.132 -0.2678 -0.5787 -0.0384
   29SAPC   H5X 3907   5.642   5.667   7.137 -0.0830 -1.4276  0.9398
   29SAPC   H5Y 3908   5.768   5.795   7.153 -0.1806 -0.9132  1.6987
   29SAPC   C36 3909   5.829   5.600   7.226 -0.2560 -0.7755 -0.2961
   29SAPC   H6X 3910   5.800   5.653   7.319 -0.8161  1.9579 -1.9114
   29SAPC   H6Y 3911   5.939   5.609   7.213 -0.4101  0.7643 -0.7327
   29SAPC   C37 3912   5.793   5.453   7.226 -0.2864  0.1181  0.2149
   29SAPC   H7X 3913   5.805   5.399   7.129 -0.1771  3.2935 -1.6909
   29SAPC   H7Y 3914   5.688   5.455   7.262 -0.4790 -1.5400 -0.1607
   29SAPC   C38 3915   5.867   5.378   7.336 -0.1218 -0.3622  0.1478
   29SAPC   H8X 3916   5.881   5.444   7.425  1.1290 -2.1385  1.3243
   29SAPC   H8Y 3917   5.970   5.346   7.309  0.4302  0.6210  0.9955
   29SAPC   C39 3918   5.785   5.254   7.387  0.1381 -0.2298 -0.2798
   29SAPC   H9X 3919   5.781   5.184   7.300 -1.2179 -0.6326  0.0867
   29SAPC   H9Y 3920   5.684   5.292   7.411  0.6588  0.4899  0.8577
   29SAPC  C310 3921   5.846   5.180   7.507  0.2974 -0.2616 -0.6754
   29SAPC  H10X 3922   5.951   5.146   7.493  0.6833  0.3755  0.5567
   29SAPC  H10Y 3923   5.784   5.088   7.519  1.2037 -0.6239  1.5609
   29SAPC  C311 3924   5.835   5.266   7.633  0.4601  0.4225  0.2009
   29SAPC  H11X 3925   5.741   5.323   7.625  0.5869  0.7565  0.9960
   29SAPC  H11Y 3926   5.927   5.328   7.644 -0.1145  1.0803  1.6623
   29SAPC  C312 3927   5.809   5.177   7.760  0.0695  0.3400  0.6151
   29SAPC  H12X 3928   5.894   5.108   7.777 -1.1246 -1.3969 -0.2522
   29SAPC  H12Y 3929   5.720   5.111   7.755 -0.4479  0.9256  1.6501
   29SAPC  C313 3930   5.811   5.258   7.890 -0.0863 -0.1369  0.5461
   29SAPC  H13X 3931   5.738   5.340   7.875  0.3487  0.2733  0.6213
   29SAPC  H13Y 3932   5.912   5.302   7.907 -0.0391 -0.6604  1.6669
   29SAPC  C314 3933   5.755   5.189   8.018  0.0452  0.1570 -0.2467
   29SAPC  H14X 3934   5.823   5.109   8.054  0.1559  0.0428 -0.6940
   29SAPC  H14Y 3935   5.656   5.145   7.995 -0.3644  0.7539  0.3288
   29SAPC  C315 3936   5.730   5.282   8.138  0.2147  0.4652 -0.2202
   29SAPC  H15X 3937   5.675   5.236   8.223 -0.2078  2.2225  0.5179
   29SAPC  H15Y 3938   5.675   5.369   8.096 -0.7649 -0.0045  0.0694
   29SAPC  C316 3939   5.862   5.320   8.209  0.0827  0.0395 -0.6307
   29SAPC  H16X 3940   5.929   5.388   8.152 -0.5488 -0.0740 -1.5303
   29SAPC  H16Y 3941   5.932   5.237   8.233  1.5063  1.4224  0.1928
   29SAPC  C317 3942   5.814   5.405   8.335  0.3413  0.2978  0.2761
   29SAPC  H17X 3943   5.756   5.334   8.397  0.7240  0.4306  0.7881
   29SAPC  H17Y 3944   5.748   5.487   8.300  0.7952  0.1745 -0.9168
   29SAPC  C318 3945   5.930   5.463   8.428  0.1180 -0.0107  0.9361
   29SAPC  H18X 3946   5.972   5.554   8.380  0.4145 -1.0642 -0.8991
   29SAPC  H18Y 3947   6.015   5.392   8.441  0.2897 -0.5989 -2.4426
   29SAPC  H18Z 3948   5.891   5.493   8.528  0.4789 -2.0200  1.7299
   30SAPC     N 3949   6.786   6.531   5.804  0.6196 -0.2375  0.4053
   30SAPC   C12 3950   6.759   6.489   5.951 -0.1127 -1.0388  0.3536
   30SAPC  H12A 3951   6.654   6.488   5.974  0.2230  0.7824  2.4202
   30SAPC  H12B 3952   6.795   6.573   6.009 -0.6851 -1.2271  0.9958
   30SAPC   C13 3953   6.722   6.664   5.768  0.2215  0.4936 -0.2854
   30SAPC  H13A 3954   6.790   6.744   5.795  0.5678  1.0984 -2.7399
   30SAPC  H13B 3955   6.700   6.668   5.663 -1.9987  0.2441  0.1258
   30SAPC  H13C 3956   6.629   6.677   5.821  0.6892 -0.6004  0.8711
   30SAPC   C14 3957   6.934   6.544   5.767  0.5355  0.0641 -0.0497
   30SAPC  H14A 3958   6.974   6.445   5.785  0.0123 -0.7803 -2.9823
   30SAPC  H14B 3959   6.959   6.577   5.667  0.7954 -1.4690 -0.5202
   30SAPC  H14C 3960   6.969   6.622   5.833 -0.2582  1.8553 -1.6802
   30SAPC   C15 3961   6.721   6.432   5.716 -0.3670  0.5496 -0.0801
   30SAPC  H15A 3962   6.783   6.344   5.707 -1.4246 -0.5599  2.4492
   30SAPC  H15B 3963   6.622   6.414   5.756  0.2388 -0.5564  0.9958
   30SAPC  H15C 3964   6.702   6.473   5.618 -0.2159 -2.4344 -1.4562
   30SAPC   C11 3965   6.814   6.354   5.996 -0.1985  0.9630  0.1304
   30SAPC  H11A 3966   6.791   6.356   6.104 -0.6687 -1.1331  0.1135
   30SAPC  H11B 3967   6.925   6.361   5.998 -0.1948  0.6842  1.3476
   30SAPC     P 3968   6.600   6.202   5.957  0.5352 -0.0430  0.4136
   30SAPC   O13 3969   6.513   6.319   5.958 -0.0287 -0.4527  0.6879
   30SAPC   O14 3970   6.558   6.087   5.874 -0.3360 -0.1686  0.5626
   30SAPC   O12 3971   6.752   6.237   5.930 -0.6145 -0.6960  0.2012
   30SAPC   O11 3972   6.616   6.151   6.107  0.3277  0.3378  0.4198
   30SAPC    C1 3973   6.694   6.029   6.131 -0.2749 -0.4114  0.2079
   30SAPC    HA 3974   6.647   5.944   6.076  1.5260 -1.3514  0.0509
   30SAPC    HB 3975   6.800   6.046   6.102 -0.8077  0.0280 -1.6207
   30SAPC    C2 3976   6.701   5.986   6.276  0.8051 -0.8038 -0.7533
   30SAPC    HS 3977   6.778   5.906   6.286  2.2610  0.6146 -0.2693
   30SAPC   O21 3978   6.568   5.953   6.327 -0.0554  0.8333 -0.4751
   30SAPC   C21 3979   6.534   5.823   6.328 -0.1321  0.4667 -0.3209
   30SAPC   O22 3980   6.589   5.729   6.277  0.0162 -0.2559  0.6671
   30SAPC   C22 3981   6.413   5.820   6.433 -0.2756  0.1439 -0.7835
   30SAPC   H2R 3982   6.456   5.843   6.532  0.3164  2.0663 -1.4367
   30SAPC   H2S 3983   6.334   5.892   6.402 -1.1853 -0.5546 -0.1269
   30SAPC    C3 3984   6.748   6.106   6.369  0.8554  0.1096 -0.3914
   30SAPC    HX 3985   6.662   6.177   6.374 -1.7623 -2.8921  0.0172
   30SAPC    HY 3986   6.834   6.149   6.312  1.2896  0.6677  0.6606
   30SAPC   O31 3987   6.782   6.065   6.496  0.5186  0.2648 -0.1779
   30SAPC   C31 3988   6.707   6.092   6.604 -0.2880 -0.5810  0.2714
   30SAPC   O32 3989   6.597   6.144   6.595  0.0445 -0.6509  0.5668
   30SAPC   C32 3990   6.768   6.045   6.731 -0.1294 -0.8346  0.1992
   30SAPC   H2X 3991   6.875   6.022   6.715 -0.2148 -0.9739 -0.1871
   30SAPC   H2Y 3992   6.703   5.960   6.762 -0.5865 -0.2957  0.7393
   30SAPC   C23 3993   6.335   5.684   6.433  0.7026 -0.2539 -0.2605
   30SAPC   H3R 3994   6.348   5.639   6.332  0.9730 -1.5419  0.3220
   30SAPC   H3S 3995   6.227   5.698   6.455  1.2540  1.5014  1.6790
   30SAPC   C24 3996   6.396   5.594   6.539  0.0131  0.6786 -0.0200
   30SAPC   H4R 3997   6.365   5.626   6.641  0.6559 -0.2240  0.4732
   30SAPC   H4S 3998   6.505   5.603   6.524 -0.0587 -0.3129 -1.2874
   30SAPC   C25 3999   6.355   5.453   6.513  0.5243 -0.7115  0.0308
   30SAPC   H5R 4000   6.364   5.421   6.408  1.6021 -0.5900  0.0748
   30SAPC   C26 4001   6.301   5.364   6.594 -0.2368  0.5414 -0.3426
   30SAPC   H6R 4002   6.268   5.267   6.555 -3.8396 -0.4234  4.1762
   30SAPC   C27 4003   6.261   5.383   6.738  0.1811 -0.1000  0.3096
   30SAPC   H7R 4004   6.332   5.454   6.786  0.1658  0.0731  0.0764
   30SAPC   H7S 4005   6.280   5.284   6.785  2.3180  0.4142  0.5959
   30SAPC   C28 4006   6.111   5.427   6.737  0.2100  0.3355 -0.0331
   30SAPC   H8R 4007   6.059   5.441   6.642 -0.0345 -1.1560 -0.1488
   30SAPC   C29 4008   6.037   5.443   6.851  0.1240 -0.1967 -0.2266
   30SAPC   H9R 4009   5.931   5.471   6.857  0.1009 -0.5625  2.6187
   30SAPC  C210 4010   6.093   5.430   6.991  1.0029  0.2872 -0.4062
   30SAPC  H10R 4011   6.044   5.510   7.050 -1.0881 -0.7330 -0.6755
   30SAPC  H10S 4012   6.197   5.464   6.973  1.0639  1.2970  1.5646
   30SAPC  C211 4013   6.071   5.286   7.046  0.0251  0.0327 -0.7209
   30SAPC  H11R 4014   5.976   5.231   7.039 -0.3352  0.5774 -0.1892
   30SAPC  C212 4015   6.161   5.221   7.127 -0.1665 -0.0900 -0.3495
   30SAPC  H12R 4016   6.130   5.122   7.163  0.2336  0.0317  0.3401
   30SAPC  C213 4017   6.295   5.283   7.173 -0.1451  0.1257 -0.1981
   30SAPC  H13R 4018   6.262   5.369   7.235 -3.7476 -0.4515 -1.0881
   30SAPC  H13S 4019   6.352   5.310   7.082 -0.0436 -1.3346 -0.5987
   30SAPC  C214 4020   6.372   5.188   7.239 -0.3919  0.0960 -0.9467
   30SAPC  H14R 4021   6.413   5.106   7.177  1.8823 -1.1674  1.9394
   30SAPC  C215 4022   6.387   5.189   7.376  0.1127  0.2454 -0.3976
   30SAPC  H15R 4023   6.448   5.113   7.428  0.3012 -0.1359 -1.1633
   30SAPC  C216 4024   6.330   5.290   7.477 -0.0899  0.9427  0.4194
   30SAPC  H16R 4025   6.219   5.287   7.476 -0.1028  0.3174  1.6258
   30SAPC  H16S 4026   6.362   5.395   7.466 -0.4207  1.2540  2.0714
   30SAPC  C217 4027   6.362   5.253   7.623 -0.4987  0.5242  0.4536
   30SAPC  H17R 4028   6.471   5.272   7.631 -0.6834  1.9901 -0.1697
   30SAPC  H17S 4029   6.348   5.143   7.628  2.8985 -0.2144 -2.2333
   30SAPC  C218 4030   6.274   5.332   7.717  0.3936 -0.1095 -0.0440
   30SAPC  H18R 4031   6.171   5.327   7.675  0.6316  1.0587 -0.8305
   30SAPC  H18S 4032   6.294   5.440   7.701 -4.5878  1.2221  1.0309
   30SAPC  C219 4033   6.274   5.286   7.865  0.4633  0.1329 -0.1565
   30SAPC  H19R 4034   6.362   5.221   7.884  0.3026 -0.1912 -0.5094
   30SAPC  H19S 4035   6.184   5.222   7.873  0.9024 -0.6227 -0.9909
   30SAPC  C220 4036   6.284   5.394   7.973 -0.1316  0.1784  0.0651
   30SAPC  H20R 4037   6.209   5.474   7.956 -1.1137 -0.8155 -0.4666
   30SAPC  H20S 4038   6.382   5.445   7.964 -1.6319  3.0681 -0.9694
   30SAPC  H20T 4039   6.287   5.350   8.075  1.8937  0.5421  0.2120
   30SAPC   C33 4040   6.757   6.143   6.857  0.6463 -0.0969 -0.5871
   30SAPC   H3X 4041   6.659   6.195   6.858  1.1269  0.8609  1.1735
   30SAPC   H3Y 4042   6.838   6.219   6.858  0.7150 -0.1525  0.9499
   30SAPC   C34 4043   6.764   6.056   6.986  0.5272 -0.1417 -0.7909
   30SAPC   H4X 4044   6.701   5.965   6.981  0.2297  0.1316 -3.5541
   30SAPC   H4Y 4045   6.717   6.109   7.072  2.0238 -2.1959  1.4090
   30SAPC   C35 4046   6.897   6.009   7.036 -0.3526  0.4156 -0.4001
   30SAPC   H5X 4047   6.953   6.097   7.074 -1.0372  0.3672  0.7934
   30SAPC   H5Y 4048   6.949   5.966   6.948 -1.8530 -0.5024 -0.8611
   30SAPC   C36 4049   6.900   5.906   7.158  0.0246 -0.6044 -0.0292
   30SAPC   H6X 4050   7.000   5.861   7.176  0.6171  0.7723  0.3233
   30SAPC   H6Y 4051   6.834   5.823   7.126  1.0327 -1.0699 -0.9816
   30SAPC   C37 4052   6.848   5.983   7.285 -0.5596  0.0526  0.7313
   30SAPC   H7X 4053   6.742   6.011   7.266 -1.6594 -4.1779 -0.4152
   30SAPC   H7Y 4054   6.913   6.073   7.294  1.4451 -1.4912  3.1769
   30SAPC   C38 4055   6.855   5.900   7.416 -0.2931  0.8538  0.4839
   30SAPC   H8X 4056   6.952   5.847   7.419 -0.2980  0.8245  0.1834
   30SAPC   H8Y 4057   6.778   5.820   7.412 -0.6560  1.2343 -0.7415
   30SAPC   C39 4058   6.830   5.981   7.541  0.0717  0.7932  0.0036
   30SAPC   H9X 4059   6.730   6.025   7.526  0.0967  0.8965  0.1340
   30SAPC   H9Y 4060   6.893   6.071   7.557 -0.2417  1.0185 -0.0327
   30SAPC  C310 4061   6.836   5.897   7.672 -0.0815  0.5669 -0.8940
   30SAPC  H10X 4062   6.939   5.862   7.696 -0.7277 -0.6505  0.2780
   30SAPC  H10Y 4063   6.775   5.805   7.663  0.9655 -0.3107  0.4502
   30SAPC  C311 4064   6.804   5.974   7.800  0.9299 -0.3072  0.6026
   30SAPC  H11X 4065   6.705   6.017   7.776  1.0585 -1.1225 -1.6082
   30SAPC  H11Y 4066   6.872   6.061   7.814 -0.0761  0.2187  2.5689
   30SAPC  C312 4067   6.806   5.899   7.934 -0.3332  0.8768  0.1364
   30SAPC  H12X 4068   6.902   5.845   7.947 -0.1471  0.8823 -1.1024
   30SAPC  H12Y 4069   6.727   5.822   7.923  0.0376  0.3517  1.0603
   30SAPC  C313 4070   6.767   5.969   8.068 -0.7887 -0.1065  0.1820
   30SAPC  H13X 4071   6.666   6.011   8.047 -1.0826 -1.1767 -0.6420
   30SAPC  H13Y 4072   6.843   6.049   8.088  0.9515 -1.4692 -0.6837
   30SAPC  C314 4073   6.780   5.876   8.183 -0.6004  0.2533 -0.0983
   30SAPC  H14X 4074   6.875   5.821   8.198  1.0741  3.5106  2.7302
   30SAPC  H14Y 4075   6.704   5.795   8.169 -0.5466 -0.1998  1.8924
   30SAPC  C315 4076   6.747   5.934   8.323  0.5519 -1.1484 -0.0547
   30SAPC  H15X 4077   6.662   6.002   8.301 -0.1807 -1.9804  0.1593
   30SAPC  H15Y 4078   6.831   5.999   8.358  0.4579 -2.3872  2.7427
   30SAPC  C316 4079   6.707   5.824   8.417  0.5089 -0.0549  0.0188
   30SAPC  H16X 4080   6.794   5.764   8.450  0.6503 -0.8478 -1.6954
   30SAPC  H16Y 4081   6.634   5.761   8.362  0.7447  0.4087 -0.8353
   30SAPC  C317 4082   6.635   5.879   8.537 -0.3634  0.0111  0.1036
   30SAPC  H17X 4083   6.548   5.925   8.485 -0.4717 -0.5794 -0.2541
   30SAPC  H17Y 4084   6.696   5.941   8.606 -0.1405 -1.6848  1.5043
   30SAPC  C318 4085   6.586   5.768   8.634 -0.3337  0.0381 -0.6429
   30SAPC  H18X 4086   6.523   5.817   8.711 -1.4672 -0.9632 -0.9095
   30SAPC  H18Y 4087   6.671   5.710   8.676  1.7030  0.3138 -3.9799
   30SAPC  H18Z 4088   6.526   5.693   8.578 -1.0868 -0.8306  1.2475
   31SAPC     N 4089   0.599   5.924   6.343 -0.3203  0.2949 -0.2290
   31SAPC   C12 4090   0.462   5.856   6.364 -0.2489 -0.6213  0.2554
   31SAPC  H12A 4091   0.412   5.861   6.269  0.6837 -0.0508 -0.2187
   31SAPC  H12B 4092   0.403   5.917   6.431  1.7130  0.6283  0.9334
   31SAPC   C13 4093   0.580   6.054   6.276  0.2632 -0.6461 -0.0125
   31SAPC  H13A 4094   0.511   6.117   6.330  0.8277 -0.9338  1.0851
   31SAPC  H13B 4095   0.677   6.101   6.269  0.2927 -0.4528  1.3529
   31SAPC  H13C 4096   0.540   6.040   6.177  1.9551 -0.1818 -0.8128
   31SAPC   C14 4097   0.670   5.945   6.474  0.6134 -0.0821 -0.2439
   31SAPC  H14A 4098   0.602   5.973   6.553 -1.4058 -1.9801 -1.1738
   31SAPC  H14B 4099   0.714   5.852   6.507 -0.0444 -0.0562  0.7258
   31SAPC  H14C 4100   0.755   6.011   6.464  1.0970 -0.6662 -0.0910
   31SAPC   C15 4101   0.685   5.832   6.258 -0.5760  0.1789 -0.8831
   31SAPC  H15A 4102   0.672   5.732   6.297  1.7728 -0.3720 -1.3119
   31SAPC  H15B 4103   0.648   5.825   6.157  0.4431 -0.8845 -1.2173
   31SAPC  H15C 4104   0.790   5.860   6.260 -0.7968  1.2612 -2.5928
   31SAPC   C11 4105   0.466   5.708   6.422  0.0534  0.8185  0.8122
   31SAPC  H11A 4106   0.368   5.684   6.469 -0.0127  0.2918  0.4139
   31SAPC  H11B 4107   0.545   5.706   6.500 -0.5768 -2.2690  1.5077
   31SAPC     P 4108   0.391   5.579   6.209  0.4356 -0.2844  0.1710
   31SAPC   O13 4109   0.349   5.706   6.141 -0.6839  0.0240 -0.0307
   31SAPC   O14 4110   0.434   5.470   6.120 -0.4146 -0.4404 -0.3827
   31SAPC   O12 4111   0.501   5.613   6.318  0.3470  0.1646 -0.1942
   31SAPC   O11 4112   0.268   5.545   6.301 -0.5980  0.7031  0.0326
   31SAPC    C1 4113   0.145   5.606   6.280 -0.1454  0.5762 -0.7201
   31SAPC    HA 4114   0.144   5.717   6.286 -1.1430  0.6500 -1.8372
   31SAPC    HB 4115   0.094   5.569   6.188 -1.5667 -0.7950  0.5571
   31SAPC    C2 4116   0.052   5.559   6.398  0.9699 -0.8315 -0.5682
   31SAPC    HS 4117  -0.055   5.585   6.386  0.8554 -1.0832 -0.1035
   31SAPC   O21 4118   0.109   5.615   6.517 -0.3294  0.6528 -0.2956
   31SAPC   C21 4119   0.035   5.678   6.597  0.2186 -0.3705  0.5133
   31SAPC   O22 4120  -0.083   5.701   6.594  0.0439  0.3998  0.1772
   31SAPC   C22 4121   0.124   5.730   6.713  0.0600  0.0300  0.1598
   31SAPC   H2R 4122   0.192   5.810   6.677 -0.1947 -0.1961 -0.8515
   31SAPC   H2S 4123   0.054   5.775   6.787 -0.0438  2.8095 -1.4910
   31SAPC    C3 4124   0.036   5.408   6.407  0.3268 -0.0117 -0.1193
   31SAPC    HX 4125   0.136   5.360   6.399 -0.7601 -2.6183  1.1182
   31SAPC    HY 4126  -0.019   5.361   6.323 -0.0246 -0.7459  0.5080
   31SAPC   O31 4127  -0.014   5.375   6.536  0.5274  0.5514  0.3695
   31SAPC   C31 4128  -0.116   5.285   6.538 -0.0996  0.6306  0.3699
   31SAPC   O32 4129  -0.163   5.230   6.441  0.2484 -0.1171  0.0748
   31SAPC   C32 4130  -0.166   5.254   6.682 -0.0207 -0.7587 -0.3029
   31SAPC   H2X 4131  -0.104   5.166   6.710 -0.9920 -0.8763  1.6123
   31SAPC   H2Y 4132  -0.267   5.210   6.675 -0.4375  0.1393 -0.1264
   31SAPC   C23 4133   0.224   5.628   6.772  0.4490 -0.6196  0.1419
   31SAPC   H3R 4134   0.272   5.580   6.684 -1.2392  2.3190 -2.5706
   31SAPC   H3S 4135   0.163   5.568   6.843 -2.7242  2.4928  0.2885
   31SAPC   C24 4136   0.344   5.704   6.832 -0.1843  0.0958  0.1553
   31SAPC   H4R 4137   0.305   5.772   6.911  0.0901 -0.6588  0.9536
   31SAPC   H4S 4138   0.394   5.771   6.758  0.2003  0.9360  1.1533
   31SAPC   C25 4139   0.440   5.604   6.888 -0.1511 -0.1001 -0.0128
   31SAPC   H5R 4140   0.516   5.579   6.813 -1.7545  1.9047 -2.4454
   31SAPC   C26 4141   0.447   5.565   7.015  0.3600 -0.1870  0.5618
   31SAPC   H6R 4142   0.515   5.486   7.049  1.2637 -0.1069 -0.9808
   31SAPC   C27 4143   0.356   5.606   7.128 -0.0733 -0.9598  0.2815
   31SAPC   H7R 4144   0.262   5.660   7.105 -0.9785 -1.3530  2.7276
   31SAPC   H7S 4145   0.421   5.676   7.186  1.5546 -0.1815 -2.2874
   31SAPC   C28 4146   0.311   5.489   7.206  0.2763 -0.2004 -0.1037
   31SAPC   H8R 4147   0.265   5.413   7.142  1.5735  0.9188 -2.4757
   31SAPC   C29 4148   0.318   5.467   7.338  0.4367 -0.3880 -0.6877
   31SAPC   H9R 4149   0.276   5.380   7.391 -0.2488 -0.3630 -1.1726
   31SAPC  C210 4150   0.382   5.563   7.435 -0.0606  0.5173 -0.6674
   31SAPC  H10R 4151   0.428   5.649   7.382 -0.2148 -0.1367 -1.9012
   31SAPC  H10S 4152   0.462   5.507   7.487 -0.3992  0.6671  0.0233
   31SAPC  C211 4153   0.280   5.616   7.536  0.3818 -0.2621  0.5925
   31SAPC  H11R 4154   0.183   5.653   7.498 -0.2350 -0.9757  1.4192
   31SAPC  C212 4155   0.297   5.611   7.667 -1.2438  1.1896 -0.0678
   31SAPC  H12R 4156   0.215   5.648   7.731 -0.7372  1.9206  0.1751
   31SAPC  C213 4157   0.417   5.556   7.738 -0.1415 -0.3475 -0.7207
   31SAPC  H13R 4158   0.490   5.633   7.771 -0.0854 -1.3881  1.8079
   31SAPC  H13S 4159   0.484   5.490   7.677  3.3854  0.0457  2.4016
   31SAPC  C214 4160   0.372   5.476   7.858 -0.5167 -0.2025  0.0616
   31SAPC  H14R 4161   0.271   5.434   7.844 -0.8510 -0.0748  1.8402
   31SAPC  C215 4162   0.445   5.462   7.976 -0.2450 -1.0894  0.5367
   31SAPC  H15R 4163   0.410   5.395   8.056 -1.9583  0.5105  1.1970
   31SAPC  C216 4164   0.583   5.510   7.997 -0.2259  0.1562 -0.3056
   31SAPC  H16R 4165   0.574   5.601   8.061  0.5243  0.2394 -0.3145
   31SAPC  H16S 4166   0.633   5.543   7.903  1.5775 -0.6486  0.3291
   31SAPC  C217 4167   0.670   5.403   8.064 -1.0022 -0.2127 -0.3113
   31SAPC  H17R 4168   0.778   5.429   8.051 -0.3892 -1.6686  1.3856
   31SAPC  H17S 4169   0.653   5.312   8.002 -1.0392  0.8714 -1.9465
   31SAPC  C218 4170   0.641   5.384   8.216  0.0641 -0.4379  0.3947
   31SAPC  H18R 4171   0.535   5.359   8.235  0.1597  0.2703  2.0543
   31SAPC  H18S 4172   0.678   5.471   8.275  0.4828  0.1282 -0.6798
   31SAPC  C219 4173   0.721   5.255   8.269  0.0953 -0.1979 -0.0700
   31SAPC  H19R 4174   0.824   5.267   8.228 -0.6510  0.4958 -1.8699
   31SAPC  H19S 4175   0.686   5.171   8.205  1.1172  0.0673 -1.0040
   31SAPC  C220 4176   0.718   5.236   8.419 -0.4703 -0.6500  0.0643
   31SAPC  H20R 4177   0.615   5.256   8.456 -0.7187  0.6875 -1.2822
   31SAPC  H20S 4178   0.782   5.311   8.471 -2.1218 -0.4495  1.9607
   31SAPC  H20T 4179   0.733   5.142   8.477  0.6777  0.1947  1.2086
   31SAPC   C33 4180  -0.160   5.381   6.776  0.0683  0.2805  0.7284
   31SAPC   H3X 4181  -0.246   5.448   6.752 -1.1378 -1.7910 -1.0181
   31SAPC   H3Y 4182  -0.062   5.427   6.752  0.6312 -2.5094 -3.1852
   31SAPC   C34 4183  -0.164   5.340   6.927  0.6397  0.4996  0.6306
   31SAPC   H4X 4184  -0.098   5.252   6.947 -0.5027 -0.4497  0.3009
   31SAPC   H4Y 4185  -0.267   5.307   6.951  1.1622 -0.5112  1.6024
   31SAPC   C35 4186  -0.132   5.457   7.025  0.1663 -0.2496 -0.3899
   31SAPC   H5X 4187  -0.215   5.531   7.027  2.7924  2.9656  2.3462
   31SAPC   H5Y 4188  -0.043   5.506   6.980 -0.0217 -0.6215 -1.1875
   31SAPC   C36 4189  -0.107   5.408   7.163 -0.5704 -0.6758  0.0570
   31SAPC   H6X 4190  -0.019   5.341   7.162 -2.4304 -3.3138  1.2402
   31SAPC   H6Y 4191  -0.191   5.338   7.187  0.8705 -2.7870 -0.7549
   31SAPC   C37 4192  -0.100   5.516   7.281  0.0720 -0.0774  0.7317
   31SAPC   H7X 4193  -0.185   5.586   7.264  1.4267  1.2404 -0.9735
   31SAPC   H7Y 4194  -0.009   5.579   7.280 -0.9513  1.4512 -1.3467
   31SAPC   C38 4195  -0.108   5.460   7.418  0.2931 -0.3481  0.5547
   31SAPC   H8X 4196  -0.012   5.416   7.452  1.5048  0.9533 -1.0043
   31SAPC   H8Y 4197  -0.193   5.389   7.414 -1.7949  2.0102  0.4988
   31SAPC   C39 4198  -0.129   5.570   7.516 -0.0166 -0.0651 -0.1125
   31SAPC   H9X 4199  -0.204   5.639   7.474 -1.3716 -1.3398  0.1278
   31SAPC   H9Y 4200  -0.036   5.629   7.532  0.5495 -0.0171 -3.0833
   31SAPC  C310 4201  -0.178   5.519   7.654  1.1425  0.2418 -0.3365
   31SAPC  H10X 4202  -0.262   5.448   7.639  1.4377 -0.1539 -0.1406
   31SAPC  H10Y 4203  -0.206   5.605   7.717 -2.7705 -1.0559 -0.0357
   31SAPC  C311 4204  -0.066   5.443   7.727 -0.5630 -0.5626  0.8982
   31SAPC  H11X 4205   0.030   5.498   7.735  1.1036 -3.1470  0.1099
   31SAPC  H11Y 4206  -0.049   5.348   7.672  0.4288  0.5929 -0.8993
   31SAPC  C312 4207  -0.095   5.393   7.866  0.1850 -0.0107 -0.4769
   31SAPC  H12X 4208  -0.022   5.321   7.909 -1.2659 -2.2143 -1.5311
   31SAPC  H12Y 4209  -0.188   5.333   7.870  0.0909  0.1774  1.3984
   31SAPC  C313 4210  -0.118   5.508   7.968  0.0347  0.2649 -0.1615
   31SAPC  H13X 4211  -0.202   5.574   7.936  0.0836 -0.1315 -1.1495
   31SAPC  H13Y 4212  -0.024   5.566   7.973  0.1621  0.1755 -1.3154
   31SAPC  C314 4213  -0.158   5.463   8.110  0.0830  0.1036 -0.6478
   31SAPC  H14X 4214  -0.257   5.412   8.106 -0.8289  1.7966 -1.0625
   31SAPC  H14Y 4215  -0.167   5.553   8.176 -0.9545  1.0261 -1.9812
   31SAPC  C315 4216  -0.060   5.382   8.195 -0.0084 -0.1453  0.9642
   31SAPC  H15X 4217  -0.012   5.309   8.126 -0.5344  0.2347  0.1869
   31SAPC  H15Y 4218  -0.118   5.327   8.272 -1.4173 -3.2376 -2.0126
   31SAPC  C316 4219   0.049   5.462   8.254 -0.5673  1.0365 -0.1607
   31SAPC  H16X 4220   0.007   5.553   8.302 -0.7467  0.2520  1.2118
   31SAPC  H16Y 4221   0.127   5.486   8.179  1.4523 -2.5506  0.5882
   31SAPC  C317 4222   0.121   5.384   8.365  0.4996  0.1057 -0.0755
   31SAPC  H17X 4223   0.144   5.280   8.331 -1.7053 -1.2587  2.1929
   31SAPC  H17Y 4224   0.050   5.354   8.445  0.7454 -1.7089 -0.4808
   31SAPC  C318 4225   0.245   5.454   8.428  0.2387  0.0105 -0.5307
   31SAPC  H18X 4226   0.205   5.534   8.494 -0.2240 -0.9012  0.3215
   31SAPC  H18Y 4227   0.302   5.501   8.346 -3.9455  2.3475 -2.4075
   31SAPC  H18Z 4228   0.298   5.382   8.493 -0.9099 -0.5371 -0.1741
   32SAPC     N 4229   2.877   0.689   5.828  0.4319  0.0623  0.2152
   32SAPC   C12 4230   2.951   0.625   5.937 -1.4141 -0.0772  0.0953
   32SAPC  H12A 4231   3.051   0.611   5.899 -0.6131 -0.3966  2.1731
   32SAPC  H12B 4232   2.905   0.533   5.967 -1.2882  0.7750  3.1930
   32SAPC   C13 4233   2.918   0.829   5.803  0.2154  0.4578  0.1733
   32SAPC  H13A 4234   2.847   0.870   5.732  0.6015 -0.0670 -0.5230
   32SAPC  H13B 4235   2.912   0.890   5.892  1.5352 -0.6355  1.0400
   32SAPC  H13C 4236   3.019   0.828   5.765  0.9104 -0.1877  1.9651
   32SAPC   C14 4237   2.892   0.604   5.701 -0.0497 -0.3513 -0.1238
   32SAPC  H14A 4238   2.995   0.580   5.677  0.5575 -0.4287  2.3467
   32SAPC  H14B 4239   2.834   0.513   5.699 -1.3391  0.4030 -3.0245
   32SAPC  H14C 4240   2.848   0.662   5.621 -1.7181  1.4204  1.9550
   32SAPC   C15 4241   2.726   0.686   5.866  0.4319 -0.4174  0.0683
   32SAPC  H15A 4242   2.699   0.583   5.847  0.0273  0.0736 -2.2647
   32SAPC  H15B 4243   2.715   0.712   5.970 -0.0007  1.4728 -0.4043
   32SAPC  H15C 4244   2.669   0.753   5.803  1.5832 -0.8126 -1.4469
   32SAPC   C11 4245   2.968   0.718   6.063  0.2566 -0.3276 -0.2944
   32SAPC  H11A 4246   3.025   0.811   6.040 -1.5045  0.2638 -2.6906
   32SAPC  H11B 4247   3.038   0.659   6.126  0.3818 -1.3040 -1.3194
   32SAPC     P 4248   2.825   0.889   6.198 -0.1219  0.2815 -0.1910
   32SAPC   O13 4249   2.827   0.988   6.092  0.2394  0.1915 -0.1519
   32SAPC   O14 4250   2.704   0.882   6.286 -0.0813  0.4266 -0.3992
   32SAPC   O12 4251   2.841   0.747   6.130 -0.3568  1.1274 -0.4831
   32SAPC   O11 4252   2.960   0.917   6.279 -0.0474  0.6099  0.4813
   32SAPC    C1 4253   3.004   0.820   6.375 -0.0203 -0.0332 -0.1958
   32SAPC    HA 4254   2.930   0.746   6.412 -1.0291  0.9671 -0.1588
   32SAPC    HB 4255   3.085   0.755   6.337  0.1714  0.4074 -0.5428
   32SAPC    C2 4256   3.045   0.904   6.499 -0.0711  0.5631  0.7321
   32SAPC    HS 4257   3.109   0.987   6.462 -0.8050  1.7262  1.9937
   32SAPC   O21 4258   3.106   0.817   6.601  0.1418 -0.0038 -0.0937
   32SAPC   C21 4259   3.242   0.824   6.593  0.8191 -0.3550 -0.0047
   32SAPC   O22 4260   3.306   0.889   6.516  0.1148 -0.1022  0.2842
   32SAPC   C22 4261   3.312   0.738   6.696  0.3115 -0.7466  0.0272
   32SAPC   H2R 4262   3.296   0.632   6.668 -1.7195  0.1792 -2.8121
   32SAPC   H2S 4263   3.417   0.771   6.686 -0.0397  0.3156 -0.3342
   32SAPC    C3 4264   2.917   0.965   6.556 -0.1670  0.1408  0.3625
   32SAPC    HX 4265   2.836   0.889   6.557  1.6527 -1.9458 -0.1490
   32SAPC    HY 4266   2.880   1.051   6.497 -0.9375 -0.2714  0.2347
   32SAPC   O31 4267   2.939   1.016   6.697 -0.2277  0.2976  0.2788
   32SAPC   C31 4268   2.901   0.928   6.790 -0.0516  0.0104  0.1078
   32SAPC   O32 4269   2.828   0.832   6.770  0.6568 -0.3967  0.5103
   32SAPC   C32 4270   2.964   0.978   6.928 -0.2463  0.4926 -0.5749
   32SAPC   H2X 4271   2.952   1.088   6.937 -1.6731  0.2130  2.0156
   32SAPC   H2Y 4272   3.073   0.963   6.915 -0.3315 -0.1774 -0.5690
   32SAPC   C23 4273   3.270   0.765   6.835 -0.7529  0.0597 -0.1967
   32SAPC   H3R 4274   3.164   0.736   6.855 -1.3709  3.2951  2.0643
   32SAPC   H3S 4275   3.274   0.875   6.847 -0.3107  0.1332 -0.9598
   32SAPC   C24 4276   3.363   0.696   6.941 -0.0205 -0.8262 -0.4075
   32SAPC   H4R 4277   3.472   0.699   6.923  0.4760 -0.9636  2.1932
   32SAPC   H4S 4278   3.330   0.590   6.938 -1.1923 -0.5342  1.0437
   32SAPC   C25 4279   3.349   0.748   7.077  0.4509  0.1062 -0.5989
   32SAPC   H5R 4280   3.355   0.858   7.077 -0.2578  0.1527 -1.1511
   32SAPC   C26 4281   3.338   0.690   7.194 -0.2875 -0.9854  0.4113
   32SAPC   H6R 4282   3.328   0.751   7.285 -1.1447 -0.0298 -0.3084
   32SAPC   C27 4283   3.349   0.544   7.218 -0.5724 -0.1061  0.0837
   32SAPC   H7R 4284   3.355   0.487   7.123  0.0467 -0.9414  0.6138
   32SAPC   H7S 4285   3.263   0.496   7.269  2.7730 -2.2129  4.4119
   32SAPC   C28 4286   3.474   0.504   7.292  0.5017 -0.0680 -0.2764
   32SAPC   H8R 4287   3.557   0.458   7.235 -0.4019 -0.5724 -1.2262
   32SAPC   C29 4288   3.479   0.507   7.427  0.0610 -0.1477 -0.6142
   32SAPC   H9R 4289   3.567   0.463   7.478  0.5385 -1.7640 -2.7276
   32SAPC  C210 4290   3.373   0.555   7.525  0.0713  0.0677  0.3560
   32SAPC  H10R 4291   3.307   0.471   7.553  0.5757 -0.1755  0.8674
   32SAPC  H10S 4292   3.315   0.637   7.478  1.6266 -0.2186 -2.2595
   32SAPC  C211 4293   3.426   0.612   7.651  0.1094 -0.3675  0.3685
   32SAPC  H11R 4294   3.534   0.630   7.642 -0.0404  0.3664  0.0018
   32SAPC  C212 4295   3.369   0.630   7.776  0.0678  0.4134 -0.2881
   32SAPC  H12R 4296   3.426   0.677   7.857 -0.6589  1.0642 -0.1500
   32SAPC  C213 4297   3.236   0.579   7.809 -0.0600  0.6825 -0.7062
   32SAPC  H13R 4298   3.171   0.602   7.722  1.1047 -0.6022 -1.9538
   32SAPC  H13S 4299   3.204   0.643   7.894  1.2163  0.8771 -0.3637
   32SAPC  C214 4300   3.227   0.432   7.831 -0.2150  0.1907 -0.9021
   32SAPC  H14R 4301   3.260   0.362   7.753  1.4587  0.5109 -0.5252
   32SAPC  C215 4302   3.185   0.373   7.949  0.7351 -0.2879  0.2109
   32SAPC  H15R 4303   3.184   0.264   7.959  0.3892 -0.3335 -0.2889
   32SAPC  C216 4304   3.134   0.453   8.067  0.1416 -0.4095  0.0090
   32SAPC  H16R 4305   3.082   0.547   8.038 -0.7055  0.2651  3.2517
   32SAPC  H16S 4306   3.223   0.491   8.122  0.7414  0.4453 -1.4900
   32SAPC  C217 4307   3.046   0.371   8.167 -0.3149  0.4817 -0.3759
   32SAPC  H17R 4308   3.112   0.287   8.198  0.4372  1.6371  1.2659
   32SAPC  H17S 4309   2.949   0.335   8.127  1.7891 -3.3738 -2.6624
   32SAPC  C218 4310   3.005   0.436   8.300  0.6372  0.0087 -0.4219
   32SAPC  H18R 4311   2.920   0.506   8.289 -0.2012 -0.7546  0.8949
   32SAPC  H18S 4312   3.088   0.493   8.346  1.2704 -1.3102  0.1390
   32SAPC  C219 4313   2.952   0.330   8.408 -0.2008  0.6891  0.0413
   32SAPC  H19R 4314   2.957   0.375   8.509  0.7555 -0.0718  0.3571
   32SAPC  H19S 4315   3.026   0.247   8.414 -2.2684 -1.2465  0.3109
   32SAPC  C220 4316   2.822   0.270   8.361  0.9397  0.2462  0.1749
   32SAPC  H20R 4317   2.832   0.206   8.270 -2.1918  0.0572 -0.1787
   32SAPC  H20S 4318   2.748   0.351   8.342 -2.1664 -2.5455 -0.7043
   32SAPC  H20T 4319   2.778   0.202   8.436  0.2571 -0.3920 -0.7730
   32SAPC   C33 4320   2.888   0.909   7.049  0.0533  0.0717  0.2260
   32SAPC   H3X 4321   2.903   0.799   7.044 -2.7560 -0.4999  1.8626
   32SAPC   H3Y 4322   2.779   0.929   7.057  0.2811  2.3709 -1.2369
   32SAPC   C34 4323   2.960   0.950   7.180 -0.2983 -0.5803  0.4950
   32SAPC   H4X 4324   2.940   1.054   7.212 -0.3408 -0.0219 -1.2597
   32SAPC   H4Y 4325   3.068   0.930   7.163 -0.5393 -0.5693 -1.1723
   32SAPC   C35 4326   2.935   0.864   7.307 -0.5691 -0.1226 -0.2954
   32SAPC   H5X 4327   2.961   0.757   7.289  1.3689  0.3187 -0.3969
   32SAPC   H5Y 4328   2.834   0.885   7.348 -0.2764  0.2001  0.2693
   32SAPC   C36 4329   3.034   0.903   7.415 -0.2752  0.1905 -0.4186
   32SAPC   H6X 4330   3.038   1.013   7.426  0.7294  0.1194  0.0375
   32SAPC   H6Y 4331   3.134   0.885   7.371 -1.0580  1.2921 -2.7916
   32SAPC   C37 4332   3.018   0.833   7.555  0.4618 -0.3456 -0.4543
   32SAPC   H7X 4333   3.069   0.897   7.631  0.9444  0.0699 -1.1086
   32SAPC   H7Y 4334   3.069   0.735   7.549 -1.5150 -1.8313  3.7566
   32SAPC   C38 4335   2.870   0.805   7.599  0.0837  0.3028  0.2461
   32SAPC   H8X 4336   2.810   0.737   7.535  0.0769  1.4389 -1.0054
   32SAPC   H8Y 4337   2.827   0.906   7.584 -2.1591 -0.6301  0.0828
   32SAPC   C39 4338   2.852   0.763   7.744  0.3852 -0.2081 -0.0567
   32SAPC   H9X 4339   2.922   0.820   7.808 -1.3530 -2.1313  3.8507
   32SAPC   H9Y 4340   2.884   0.656   7.748  0.4747 -0.1781  0.0255
   32SAPC  C310 4341   2.704   0.767   7.788 -0.3601  0.1112 -0.4924
   32SAPC  H10X 4342   2.652   0.684   7.735 -1.7342 -0.7829  2.0905
   32SAPC  H10Y 4343   2.670   0.870   7.766  3.0520  1.7193  1.1075
   32SAPC  C311 4344   2.692   0.747   7.941 -0.0607  0.0181 -0.3817
   32SAPC  H11X 4345   2.740   0.650   7.967 -0.7106 -0.5967 -1.3826
   32SAPC  H11Y 4346   2.585   0.738   7.970 -0.5776 -0.6011 -2.3146
   32SAPC  C312 4347   2.756   0.865   8.018  0.4699 -0.0704  0.2213
   32SAPC  H12X 4348   2.769   0.957   7.958  0.5547 -1.8202 -2.6348
   32SAPC  H12Y 4349   2.853   0.818   8.046  0.0112 -0.0974  1.8878
   32SAPC  C313 4350   2.683   0.897   8.143  0.1697  0.3852 -0.4366
   32SAPC  H13X 4351   2.578   0.916   8.112  0.8658  2.8882 -1.5926
   32SAPC  H13Y 4352   2.726   0.985   8.195  0.0224 -0.0490  0.4225
   32SAPC  C314 4353   2.687   0.777   8.232 -0.0378  0.1693 -0.1273
   32SAPC  H14X 4354   2.794   0.748   8.239  0.0707  0.9039  2.0103
   32SAPC  H14Y 4355   2.642   0.685   8.189 -0.2990 -0.2577  1.0417
   32SAPC  C315 4356   2.633   0.814   8.366  0.0299 -0.0998 -0.1320
   32SAPC  H15X 4357   2.677   0.909   8.402  0.6665  0.4028 -2.1148
   32SAPC  H15Y 4358   2.646   0.736   8.444 -0.1062  0.9468  0.9772
   32SAPC  C316 4359   2.480   0.841   8.379  0.1311 -0.2911  0.5662
   32SAPC  H16X 4360   2.442   0.741   8.348 -0.4283  0.8664 -2.8822
   32SAPC  H16Y 4361   2.443   0.905   8.297 -0.2906 -2.9599 -1.4482
   32SAPC  C317 4362   2.433   0.878   8.520 -0.6083  0.0798 -0.0574
   32SAPC  H17X 4363   2.488   0.970   8.552  1.0876 -0.9951  0.2367
   32SAPC  H17Y 4364   2.457   0.804   8.599 -0.1262 -1.1853 -1.3499
   32SAPC  C318 4365   2.284   0.902   8.533 -0.3315  0.5722  0.2800
   32SAPC  H18X 4366   2.259   0.940   8.634 -0.4716 -1.0993  0.8961
   32SAPC  H18Y 4367   2.223   0.815   8.502  0.3272  0.4463 -0.6989
   32SAPC  H18Z 4368   2.256   0.979   8.458  2.5657  2.4636  0.9963
   33POPC     N 4369   6.596   1.516  10.766  0.6363  0.1890 -0.2325
   33POPC   C12 4370   6.446   1.494  10.747 -0.0220  0.3736  0.5110
   33POPC  H12A 4371   6.404   1.535  10.838  0.3747  0.7411  0.5379
   33POPC  H12B 4372   6.425   1.390  10.765 -2.8946  1.1389  2.2066
   33POPC   C13 4373   6.623   1.668  10.752 -0.2307  1.1876 -0.2342
   33POPC  H13A 4374   6.582   1.694  10.655 -3.4903 -2.6525 -0.1203
   33POPC  H13B 4375   6.566   1.730  10.820 -2.7689 -2.2623  1.0316
   33POPC  H13C 4376   6.727   1.685  10.778  0.2063 -0.2849 -0.8920
   33POPC   C14 4377   6.632   1.485  10.904 -0.3934 -0.1293  0.0188
   33POPC  H14A 4378   6.597   1.390  10.941  1.9020 -1.1882 -0.3605
   33POPC  H14B 4379   6.739   1.495  10.917 -0.5595  2.0906 -0.0367
   33POPC  H14C 4380   6.592   1.559  10.972 -0.9172  0.4733 -0.9341
   33POPC   C15 4381   6.678   1.435  10.673 -0.3970  0.6714 -0.6878
   33POPC  H15A 4382   6.780   1.471  10.678  0.0411 -0.2940 -1.9959
   33POPC  H15B 4383   6.646   1.449  10.571  0.6704  3.5311 -0.7176
   33POPC  H15C 4384   6.666   1.333  10.706 -0.8036  0.9042 -0.1015
   33POPC   C11 4385   6.379   1.541  10.614 -0.0327  0.2143 -0.0887
   33POPC  H11A 4386   6.274   1.506  10.604 -0.0214  0.2960 -0.5128
   33POPC  H11B 4387   6.431   1.495  10.527 -0.4887  0.4733 -0.5003
   33POPC     P 4388   6.274   1.786  10.567 -0.0559  0.0770 -0.2744
   33POPC   O13 4389   6.338   1.917  10.588 -0.1915  0.0667  0.0679
   33POPC   O14 4390   6.152   1.754  10.643  0.0217  0.8316  0.1011
   33POPC   O12 4391   6.389   1.684  10.599 -0.0312  0.4102  0.3367
   33POPC   O11 4392   6.249   1.755  10.418 -0.4520 -0.7104  0.1155
   33POPC    C1 4393   6.355   1.728  10.326 -0.1207  0.8528  0.6040
   33POPC    HA 4394   6.453   1.764  10.364 -0.7171  0.9706  2.1186
   33POPC    HB 4395   6.352   1.618  10.316  1.6002  0.9260 -1.4205
   33POPC    C2 4396   6.331   1.799  10.192 -0.1181 -0.4673 -0.5735
   33POPC    HS 4397   6.296   1.900  10.223 -0.4529 -0.2961 -1.4723
   33POPC   O21 4398   6.220   1.727  10.126  0.1049 -0.0381 -0.4361
   33POPC   C21 4399   6.132   1.809  10.063  0.0615  0.9399 -0.1935
   33POPC   O22 4400   6.124   1.928  10.076 -0.2842  0.4536  0.0226
   33POPC   C22 4401   6.019   1.721  10.004  0.2324 -0.2903 -0.2445
   33POPC   H2R 4402   5.923   1.772  10.029  0.9746  2.4967 -2.5348
   33POPC   H2S 4403   6.024   1.621  10.051 -0.0590 -0.9638 -1.6126
   33POPC    C3 4404   6.452   1.794  10.093  0.4210 -0.2176  0.5668
   33POPC    HX 4405   6.475   1.687  10.071 -0.4891  0.1048 -2.4252
   33POPC    HY 4406   6.550   1.819  10.139  1.4909 -1.3612 -0.9649
   33POPC   O31 4407   6.431   1.852   9.965 -0.0323 -0.3439 -0.0966
   33POPC   C31 4408   6.482   1.975   9.955  0.3287 -0.2517 -0.4973
   33POPC   O32 4409   6.542   2.028  10.045 -0.6273  0.0234 -0.7972
   33POPC   C32 4410   6.464   2.025   9.809 -0.2413  1.2125 -0.5723
   33POPC   H2X 4411   6.505   2.128   9.818 -1.4322  1.5417  1.8974
   33POPC   H2Y 4412   6.353   2.024   9.813 -0.2477  0.1828 -0.8864
   33POPC   C23 4413   6.027   1.695   9.855 -0.4206 -0.0203  0.0965
   33POPC   H3R 4414   5.962   1.607   9.837  0.3136 -0.5703  0.0640
   33POPC   H3S 4415   6.134   1.668   9.838  0.3951  2.8936  0.0212
   33POPC   C24 4416   5.989   1.812   9.762  0.5765 -0.5480  0.1471
   33POPC   H4R 4417   6.062   1.894   9.776 -0.3641  0.3540 -0.1105
   33POPC   H4S 4418   5.887   1.851   9.781 -0.4838 -2.5140 -1.2050
   33POPC   C25 4419   5.992   1.777   9.614  0.2539 -0.1832 -0.4441
   33POPC   H5R 4420   5.955   1.673   9.603 -1.3176 -0.0803  2.6623
   33POPC   H5S 4421   6.101   1.782   9.593  0.5292  2.0199  1.1673
   33POPC   C26 4422   5.906   1.867   9.526  0.9314  0.2980 -0.4204
   33POPC   H6R 4423   5.953   1.965   9.505  1.7249 -0.2148 -1.1049
   33POPC   H6S 4424   5.799   1.868   9.555  1.1382  0.2771  0.3584
   33POPC   C27 4425   5.901   1.815   9.379  0.4974  0.6207 -0.2458
   33POPC   H7R 4426   5.868   1.709   9.376  2.9366 -0.2247  0.5337
   33POPC   H7S 4427   6.002   1.815   9.333 -0.3472 -0.2091 -2.1867
   33POPC   C28 4428   5.811   1.894   9.288 -0.4512 -0.2221  0.2242
   33POPC   H8R 4429   5.839   2.000   9.301 -2.5357  0.4443 -0.3030
   33POPC   H8S 4430   5.716   1.890   9.346  0.9563 -3.7152  2.6793
   33POPC   C29 4431   5.803   1.853   9.138 -0.2783 -0.6713  0.3592
   33POPC   H91 4432   5.788   1.747   9.111  1.5163 -1.0743  0.7706
   33POPC  C210 4433   5.816   1.921   9.021 -0.2060  0.1964 -0.8041
   33POPC  H101 4434   5.823   1.874   8.922  1.2483  1.3227 -1.2819
   33POPC  C211 4435   5.850   2.068   9.012  0.5636  0.4631 -0.4129
   33POPC  H11R 4436   5.868   2.115   9.111  2.4075 -2.3444  0.7156
   33POPC  H11S 4437   5.758   2.109   8.966 -1.1842 -1.9478  0.7414
   33POPC  C212 4438   5.970   2.095   8.924  0.7557 -0.3995  0.2140
   33POPC  H12R 4439   6.051   2.029   8.962 -0.3645 -0.9917  1.6830
   33POPC  H12S 4440   5.999   2.202   8.931  0.2707 -0.2833  0.5482
   33POPC  C213 4441   5.951   2.065   8.776  0.3072 -0.4887 -0.6012
   33POPC  H13R 4442   5.951   1.954   8.760 -0.0664 -0.3766 -1.4745
   33POPC  H13S 4443   6.035   2.105   8.715 -0.0105 -1.0885 -1.4662
   33POPC  C214 4444   5.827   2.105   8.703  0.1275 -0.2502  0.5124
   33POPC  H14R 4445   5.818   2.216   8.709  0.5592 -0.1670 -0.2781
   33POPC  H14S 4446   5.736   2.071   8.757 -1.0617  0.5065 -0.9595
   33POPC  C215 4447   5.822   2.056   8.560  0.2948  0.3903  0.0373
   33POPC  H15R 4448   5.820   1.945   8.557  1.3266  0.3650 -0.0218
   33POPC  H15S 4449   5.923   2.086   8.522  0.9474  0.0631  1.4515
   33POPC  C216 4450   5.707   2.115   8.481  0.3454 -0.1645 -0.1273
   33POPC  H16R 4451   5.712   2.226   8.488 -0.9708 -0.0455 -0.8252
   33POPC  H16S 4452   5.614   2.079   8.529 -0.3192  0.4975 -0.8824
   33POPC  C217 4453   5.694   2.073   8.337  0.4360 -0.2055 -0.2826
   33POPC  H17R 4454   5.620   2.134   8.281 -2.5629 -3.0223  0.3051
   33POPC  H17S 4455   5.664   1.967   8.321  0.7440 -0.0452 -2.1574
   33POPC  C218 4456   5.832   2.093   8.263  0.5161  0.5947 -0.4229
   33POPC  H18R 4457   5.810   2.056   8.160 -2.1003  0.2527  0.1978
   33POPC  H18S 4458   5.905   2.023   8.310 -0.2408 -1.0655 -1.6060
   33POPC  H18T 4459   5.872   2.195   8.275  1.4570  0.1329  0.5589
   33POPC   C33 4460   6.514   1.935   9.693  0.2873  0.1598  0.4870
   33POPC   H3X 4461   6.494   1.831   9.725 -0.6750  0.6116  1.3872
   33POPC   H3Y 4462   6.623   1.951   9.674  0.4748 -0.9640  0.5887
   33POPC   C34 4463   6.430   1.966   9.565 -0.8952  0.5933  0.0764
   33POPC   H4X 4464   6.450   2.071   9.537 -0.1893 -0.1005 -2.2591
   33POPC   H4Y 4465   6.324   1.936   9.583 -0.5054 -1.8486 -1.2879
   33POPC   C35 4466   6.480   1.879   9.443  0.1340 -0.2895 -0.1207
   33POPC   H5X 4467   6.451   1.774   9.467 -3.4677  0.7444  0.6017
   33POPC   H5Y 4468   6.586   1.890   9.413 -0.4198  1.1454 -1.7245
   33POPC   C36 4469   6.411   1.919   9.304  0.7323 -0.4532 -0.0559
   33POPC   H6X 4470   6.309   1.959   9.329  1.0405  0.7465 -0.6363
   33POPC   H6Y 4471   6.398   1.825   9.247 -3.9843 -1.0481  1.4918
   33POPC   C37 4472   6.494   2.014   9.229  0.0905  0.2324 -0.8236
   33POPC   H7X 4473   6.595   1.968   9.227  0.6812  1.1992  1.9963
   33POPC   H7Y 4474   6.499   2.108   9.289  0.4312 -0.5330  0.3991
   33POPC   C38 4475   6.442   2.032   9.091  0.4050 -0.5856  0.4945
   33POPC   H8X 4476   6.344   2.084   9.089 -0.1309 -1.5810 -0.5199
   33POPC   H8Y 4477   6.425   1.936   9.038 -0.8135 -0.2932  0.3162
   33POPC   C39 4478   6.537   2.109   9.003  0.1658  0.3283 -0.6808
   33POPC   H9X 4479   6.629   2.054   8.975  1.2256  0.6839  1.8402
   33POPC   H9Y 4480   6.568   2.200   9.059  3.4389 -0.0267 -1.7153
   33POPC  C310 4481   6.468   2.164   8.881  0.1374 -0.1494  0.4125
   33POPC  H10X 4482   6.370   2.210   8.907 -1.6002 -1.8642 -2.5073
   33POPC  H10Y 4483   6.434   2.066   8.841 -1.5375 -0.4625  2.4009
   33POPC  C311 4484   6.557   2.252   8.791  0.1113 -0.4552  0.8440
   33POPC  H11X 4485   6.660   2.210   8.800  0.4419  0.6465  2.7659
   33POPC  H11Y 4486   6.572   2.347   8.848 -4.8453 -1.0684  3.6811
   33POPC  C312 4487   6.508   2.270   8.652 -0.6945 -0.5012 -0.0192
   33POPC  H12X 4488   6.572   2.339   8.592 -1.0150 -2.3209 -2.6514
   33POPC  H12Y 4489   6.403   2.304   8.643  0.1263  2.0122 -0.9901
   33POPC  C313 4490   6.503   2.131   8.583 -0.3317  0.0543  0.1148
   33POPC  H13X 4491   6.424   2.068   8.629  0.2924  1.8040  3.9985
   33POPC  H13Y 4492   6.598   2.079   8.609 -0.3729  0.6908  1.5840
   33POPC  C314 4493   6.489   2.152   8.434 -0.3373 -0.0310  0.2254
   33POPC  H14X 4494   6.554   2.237   8.404  0.2790 -1.2117 -2.0563
   33POPC  H14Y 4495   6.385   2.172   8.401  0.3078 -0.7400 -2.4957
   33POPC  C315 4496   6.517   2.022   8.363  0.2309  0.5370 -0.2821
   33POPC  H15X 4497   6.609   1.979   8.409 -1.0860 -2.4343 -0.2051
   33POPC  H15Y 4498   6.540   2.039   8.255 -2.1555  0.1446 -0.9156
   33POPC  C316 4499   6.402   1.924   8.376 -0.5708 -0.0050  0.2750
   33POPC  H16X 4500   6.313   1.975   8.333 -0.2715 -1.9445 -2.9346
   33POPC  H16Y 4501   6.388   1.892   8.482  2.1249  0.4414  0.8295
   33POPC  H16Z 4502   6.424   1.832   8.319  0.8139  0.4168  0.0963
   34POPC     N 4503   6.034   2.179  10.422  0.1316 -0.2771 -0.5173
   34POPC   C12 4504   6.106   2.294  10.356 -0.2605  0.0682 -0.5577
   34POPC  H12A 4505   6.088   2.276  10.251  0.2895 -1.2734 -0.4485
   34POPC  H12B 4506   6.214   2.291  10.367 -0.2634 -1.6860 -0.7237
   34POPC   C13 4507   6.077   2.051  10.358  0.3176  0.0807  0.1755
   34POPC  H13A 4508   6.027   1.967  10.403  0.0101 -1.4727 -2.8205
   34POPC  H13B 4509   6.049   2.044  10.254 -0.0821 -1.5711  0.3748
   34POPC  H13C 4510   6.184   2.039  10.364  0.3193  0.2307  0.4707
   34POPC   C14 4511   6.065   2.171  10.564 -0.3370 -0.3830 -0.5220
   34POPC  H14A 4512   6.047   2.269  10.607  0.2679 -0.0894 -0.9019
   34POPC  H14B 4513   6.018   2.084  10.604  0.5994 -0.7399 -0.1679
   34POPC  H14C 4514   6.172   2.162  10.579 -0.3571  1.1205  0.8101
   34POPC   C15 4515   5.889   2.198  10.399  0.0909 -1.0164 -0.2691
   34POPC  H15A 4516   5.849   2.290  10.439  0.4021 -1.0793  0.1985
   34POPC  H15B 4517   5.847   2.111  10.446  2.0084 -2.0264 -0.3237
   34POPC  H15C 4518   5.859   2.197  10.295  2.5968  0.0541 -1.0700
   34POPC   C11 4519   6.065   2.438  10.397 -0.3815 -0.2466 -0.4211
   34POPC  H11A 4520   5.962   2.461  10.362 -0.7854 -1.0078  0.2404
   34POPC  H11B 4521   6.124   2.511  10.338 -1.1405  0.7989  0.0884
   34POPC     P 4522   5.995   2.554  10.626 -0.0045  0.2040  0.4954
   34POPC   O13 4523   6.076   2.619  10.733 -0.7448 -0.3406  0.0181
   34POPC   O14 4524   5.883   2.468  10.660 -0.3239  0.0136 -0.4071
   34POPC   O12 4525   6.095   2.465  10.537  0.0369 -0.5007  0.5076
   34POPC   O11 4526   5.932   2.661  10.530 -0.7653  0.6505 -0.3014
   34POPC    C1 4527   6.018   2.756  10.463 -0.1468  0.0430 -0.4361
   34POPC    HA 4528   6.125   2.753  10.494 -0.6093 -0.0274  1.2880
   34POPC    HB 4529   5.980   2.857  10.488  1.4159  0.2002  1.5924
   34POPC    C2 4530   5.989   2.752  10.307 -0.5641  0.7317  0.5794
   34POPC    HS 4531   6.040   2.664  10.262 -1.4186 -0.3130  1.6010
   34POPC   O21 4532   6.040   2.874  10.246 -0.1789  0.0761 -0.8621
   34POPC   C21 4533   6.170   2.887  10.235  0.0372 -0.4374 -0.0131
   34POPC   O22 4534   6.253   2.803  10.263 -0.5436  0.3325  0.1624
   34POPC   C22 4535   6.190   3.021  10.161 -0.0438  0.2835 -0.5974
   34POPC   H2R 4536   6.244   3.088  10.232 -1.5929  3.5100 -2.2146
   34POPC   H2S 4537   6.092   3.074  10.157  0.6342  2.1582  3.1385
   34POPC    C3 4538   5.836   2.743  10.281  0.2458 -0.4309  0.4724
   34POPC    HX 4539   5.803   2.835  10.333 -0.7437 -0.6840  0.3054
   34POPC    HY 4540   5.788   2.656  10.331  0.1652 -0.5091  0.2578
   34POPC   O31 4541   5.800   2.752  10.142  0.0939 -0.3393 -0.2788
   34POPC   C31 4542   5.800   2.634  10.078  0.0437  0.0735 -0.0572
   34POPC   O32 4543   5.816   2.527  10.129 -0.1687 -0.5514 -0.3571
   34POPC   C32 4544   5.804   2.666   9.930 -0.6502  0.3587  0.6792
   34POPC   H2X 4545   5.873   2.753   9.918  1.3054 -1.0149  1.3791
   34POPC   H2Y 4546   5.700   2.677   9.892 -0.7020  1.1887  1.0292
   34POPC   C23 4547   6.259   2.996  10.025  0.4485  0.2650  0.1516
   34POPC   H3R 4548   6.347   2.929  10.028  0.8756  0.8560  1.7706
   34POPC   H3S 4549   6.301   3.092   9.986 -0.0773  0.0309 -1.0497
   34POPC   C24 4550   6.154   2.951   9.925  0.2417  0.5567 -0.2324
   34POPC   H4R 4551   6.062   3.013   9.928 -0.9375 -1.1451  0.1513
   34POPC   H4S 4552   6.120   2.845   9.934  1.6135 -0.0525 -1.6877
   34POPC   C25 4553   6.205   2.957   9.782 -0.6823  0.0239 -0.2118
   34POPC   H5R 4554   6.234   2.854   9.752  1.1738  0.6885 -0.8466
   34POPC   H5S 4555   6.299   3.015   9.781 -0.7954  0.3518  2.1616
   34POPC   C26 4556   6.098   3.013   9.686 -0.3644 -0.4646 -0.2715
   34POPC   H6R 4557   6.003   2.964   9.716 -0.8926 -0.1253 -1.3254
   34POPC   H6S 4558   6.117   2.976   9.582 -1.7170 -0.7241 -0.4422
   34POPC   C27 4559   6.094   3.167   9.672 -0.3188  0.5609 -0.4911
   34POPC   H7R 4560   6.196   3.206   9.651  0.0777  0.1917  0.6783
   34POPC   H7S 4561   6.075   3.205   9.775  0.4745 -0.9098  0.2425
   34POPC   C28 4562   5.988   3.214   9.576 -0.4392 -0.4619 -0.2061
   34POPC   H8R 4563   5.966   3.322   9.584 -1.2605 -0.6737  0.6850
   34POPC   H8S 4564   5.901   3.150   9.602  1.1942 -3.0640 -0.7638
   34POPC   C29 4565   6.032   3.185   9.437 -0.6723 -0.2986  0.5314
   34POPC   H91 4566   6.138   3.208   9.415 -1.2213  2.5268  0.4130
   34POPC  C210 4567   5.952   3.132   9.340 -0.6133 -0.0414  0.5857
   34POPC  H101 4568   5.993   3.124   9.239 -2.1163 -2.5201  0.0792
   34POPC  C211 4569   5.808   3.095   9.352 -0.7389  0.0339 -0.5636
   34POPC  H11R 4570   5.774   3.122   9.455 -0.0926  3.8429 -1.1957
   34POPC  H11S 4571   5.807   2.985   9.336  1.5436  0.1345 -1.7180
   34POPC  C212 4572   5.711   3.163   9.252 -0.0335  0.0526 -0.0703
   34POPC  H12R 4573   5.720   3.273   9.265 -0.8257  0.1509 -0.3191
   34POPC  H12S 4574   5.605   3.137   9.271 -0.2584 -0.1054 -1.4591
   34POPC  C213 4575   5.745   3.133   9.106 -0.3440  0.2871  0.3472
   34POPC  H13R 4576   5.757   3.023   9.095  0.1334  0.4423 -0.7963
   34POPC  H13S 4577   5.844   3.176   9.081 -0.0154 -0.0952  0.9650
   34POPC  C214 4578   5.635   3.174   9.013 -0.6563 -0.2586  0.3157
   34POPC  H14R 4579   5.604   3.280   9.028  0.9576  0.7632 -2.8189
   34POPC  H14S 4580   5.551   3.106   9.040 -0.7869  0.1029  0.8448
   34POPC  C215 4581   5.693   3.162   8.866 -0.2019 -0.4466  0.0210
   34POPC  H15R 4582   5.703   3.053   8.847 -1.5813 -0.3912 -1.1931
   34POPC  H15S 4583   5.799   3.196   8.863 -0.0051 -0.6975  2.4058
   34POPC  C216 4584   5.609   3.215   8.748  0.6558  0.2571 -0.3837
   34POPC  H16R 4585   5.603   3.326   8.755 -1.9575  0.1266  0.7106
   34POPC  H16S 4586   5.502   3.189   8.734  0.6244 -0.0443  0.3768
   34POPC  C217 4587   5.661   3.176   8.612 -0.1046 -0.0703 -0.1875
   34POPC  H17R 4588   5.591   3.202   8.530  0.8139  0.9693 -0.6626
   34POPC  H17S 4589   5.676   3.066   8.618  0.5257 -0.1390 -2.3518
   34POPC  C218 4590   5.791   3.248   8.575  0.1660  0.9307 -0.1122
   34POPC  H18R 4591   5.830   3.194   8.486 -0.6601  1.3330 -0.7323
   34POPC  H18S 4592   5.870   3.246   8.653 -1.1570 -0.5710  1.2471
   34POPC  H18T 4593   5.760   3.352   8.551 -1.7035  0.4299  0.0187
   34POPC   C33 4594   5.865   2.548   9.845 -0.5471 -1.1873  0.5164
   34POPC   H3X 4595   5.839   2.450   9.891  0.2348 -0.8059  1.8172
   34POPC   H3Y 4596   5.976   2.553   9.842 -0.6013 -0.4275 -1.5417
   34POPC   C34 4597   5.814   2.555   9.703 -0.5613  0.9282  0.0600
   34POPC   H4X 4598   5.707   2.530   9.687 -0.0692 -1.2473 -0.0611
   34POPC   H4Y 4599   5.864   2.474   9.645 -1.8629  0.6640 -0.7480
   34POPC   C35 4600   5.859   2.682   9.637 -0.5204  0.2106  0.2169
   34POPC   H5X 4601   5.968   2.685   9.658  0.3254 -1.1406 -3.1857
   34POPC   H5Y 4602   5.796   2.760   9.683 -0.7434  0.4472 -0.4750
   34POPC   C36 4603   5.835   2.681   9.483  0.3074  0.1802  0.7508
   34POPC   H6X 4604   5.869   2.593   9.425  0.4550  1.2209 -0.7928
   34POPC   H6Y 4605   5.885   2.770   9.440  0.0600 -0.2049 -0.3441
   34POPC   C37 4606   5.681   2.695   9.463  0.6751  0.1326  0.1173
   34POPC   H7X 4607   5.637   2.755   9.545 -0.8782 -0.2788 -0.3855
   34POPC   H7Y 4608   5.632   2.597   9.485 -1.0143  0.3504 -2.2840
   34POPC   C38 4609   5.639   2.755   9.326 -0.1507 -0.1669 -0.4840
   34POPC   H8X 4610   5.647   2.865   9.324 -1.4630 -0.0637 -1.5533
   34POPC   H8Y 4611   5.529   2.736   9.329 -0.1464 -0.0924  1.3511
   34POPC   C39 4612   5.704   2.705   9.200  0.3446  0.3527 -0.2643
   34POPC   H9X 4613   5.723   2.597   9.221 -0.9841  0.2462  0.4743
   34POPC   H9Y 4614   5.808   2.744   9.190  0.5355 -0.4716 -1.8819
   34POPC  C310 4615   5.617   2.741   9.078  0.1105 -0.9513  0.2771
   34POPC  H10X 4616   5.598   2.850   9.091 -1.6151 -1.3454  1.3835
   34POPC  H10Y 4617   5.516   2.693   9.078 -0.4381 -0.0227 -2.4833
   34POPC  C311 4618   5.679   2.711   8.940 -0.0905  0.1262 -0.0143
   34POPC  H11X 4619   5.699   2.602   8.931  0.1763  0.1317  0.5096
   34POPC  H11Y 4620   5.771   2.772   8.925 -0.2852  0.7476  1.1837
   34POPC  C312 4621   5.586   2.761   8.828 -0.4239  0.5879 -0.0704
   34POPC  H12X 4622   5.568   2.870   8.844  0.5380  1.3793 -3.4263
   34POPC  H12Y 4623   5.490   2.706   8.826  0.2615 -0.7189  1.3278
   34POPC  C313 4624   5.658   2.770   8.694  0.4676  0.4803 -0.1009
   34POPC  H13X 4625   5.709   2.678   8.658  3.0905  2.4665 -1.7884
   34POPC  H13Y 4626   5.743   2.839   8.710 -0.2495  1.2048  0.6458
   34POPC  C314 4627   5.563   2.810   8.578  0.1306  0.8629 -0.7854
   34POPC  H14X 4628   5.498   2.899   8.587 -0.5818  0.3422 -0.6316
   34POPC  H14Y 4629   5.494   2.723   8.583  2.4606 -1.0908 -0.7042
   34POPC  C315 4630   5.645   2.825   8.451  0.1277 -0.0981 -0.1616
   34POPC  H15X 4631   5.731   2.893   8.470 -0.4083  0.4966  0.1941
   34POPC  H15Y 4632   5.579   2.874   8.376 -0.0902  0.2702  0.2697
   34POPC  C316 4633   5.701   2.703   8.390 -0.6582 -0.0533 -0.1564
   34POPC  H16X 4634   5.733   2.713   8.284 -0.9331 -3.2603 -0.6594
   34POPC  H16Y 4635   5.616   2.632   8.387 -0.5078 -0.3501  1.8120
   34POPC  H16Z 4636   5.786   2.662   8.448 -1.3697 -3.2842 -1.2014
   35POPC     N 4637   4.283   5.726  11.480 -0.0920  0.3893 -0.1609
   35POPC   C12 4638   4.264   5.670  11.340 -0.0225  0.3082  0.2000
   35POPC  H12A 4639   4.342   5.596  11.332  0.2595  0.2552  2.5517
   35POPC  H12B 4640   4.281   5.743  11.262 -3.0029 -0.1849 -1.0361
   35POPC   C13 4641   4.175   5.815  11.521 -0.1785 -0.1584  0.3875
   35POPC  H13A 4642   4.206   5.877  11.603  3.5411  0.4705 -1.2854
   35POPC  H13B 4643   4.162   5.886  11.441  0.6790 -0.5108 -0.0757
   35POPC  H13C 4644   4.082   5.768  11.549 -0.7148  0.1704 -0.7955
   35POPC   C14 4645   4.290   5.622  11.581  0.0009  0.0567 -0.9507
   35POPC  H14A 4646   4.366   5.547  11.563 -0.2765 -0.4208 -0.2108
   35POPC  H14B 4647   4.294   5.672  11.676 -3.3556 -1.3977  0.1088
   35POPC  H14C 4648   4.201   5.560  11.575 -0.4407  0.7135 -1.2383
   35POPC   C15 4649   4.409   5.799  11.488  0.6402 -0.1499 -0.5429
   35POPC  H15A 4650   4.492   5.735  11.465  1.0077 -0.1025  0.5606
   35POPC  H15B 4651   4.420   5.838  11.588 -0.5197  2.0844 -1.2010
   35POPC  H15C 4652   4.412   5.882  11.419  0.1420 -1.0340 -1.6490
   35POPC   C11 4653   4.139   5.595  11.303 -0.0997 -0.2220 -0.1182
   35POPC  H11A 4654   4.121   5.536  11.396  1.9011  2.5396  2.2085
   35POPC  H11B 4655   4.160   5.531  11.215  0.8897 -1.8255  1.2279
   35POPC     P 4656   4.016   5.752  11.141  0.4597 -0.2056  0.0768
   35POPC   O13 4657   4.157   5.771  11.102  0.1732 -0.6989  0.7657
   35POPC   O14 4658   3.928   5.869  11.156 -0.5968 -0.5720  0.6165
   35POPC   O12 4659   4.022   5.679  11.281  0.3499  0.0987 -0.4868
   35POPC   O11 4660   3.939   5.637  11.066 -0.3806  0.0456  0.5117
   35POPC    C1 4661   4.001   5.533  10.997 -0.1141  0.0380 -0.2867
   35POPC    HA 4662   3.950   5.436  11.016  0.3256 -0.6952 -2.5091
   35POPC    HB 4663   4.107   5.511  11.020  0.5749  2.4599 -0.7708
   35POPC    C2 4664   4.000   5.539  10.839  0.3697  0.6873 -0.2843
   35POPC    HS 4665   4.004   5.433  10.804 -2.5393  0.3447  0.1304
   35POPC   O21 4666   4.104   5.627  10.793  0.1932  0.8396 -0.1194
   35POPC   C21 4667   4.217   5.568  10.798  0.1466  0.1756  0.3087
   35POPC   O22 4668   4.231   5.447  10.825 -0.1890 -0.3511 -0.0247
   35POPC   C22 4669   4.330   5.670  10.763  0.5069  0.4501 -0.4944
   35POPC   H2R 4670   4.386   5.688  10.857  0.2475  0.3211 -0.3109
   35POPC   H2S 4671   4.288   5.762  10.716  1.8013  1.0806 -0.4421
   35POPC    C3 4672   3.862   5.588  10.794  0.4648 -0.5959 -0.1636
   35POPC    HX 4673   3.855   5.692  10.831 -0.0339 -1.3766  2.1170
   35POPC    HY 4674   3.783   5.533  10.850  0.3792 -0.5573 -0.2465
   35POPC   O31 4675   3.849   5.582  10.649 -0.1319 -0.6903 -0.2709
   35POPC   C31 4676   3.818   5.468  10.598 -0.2306  0.7470  0.5687
   35POPC   O32 4677   3.803   5.358  10.659  0.2338 -0.1279  0.0887
   35POPC   C32 4678   3.803   5.470  10.447  0.3851  0.0799  0.4379
   35POPC   H2X 4679   3.904   5.460  10.402 -0.1751 -2.4419 -0.3927
   35POPC   H2Y 4680   3.763   5.569  10.417 -0.6798  0.0002  1.5357
   35POPC   C23 4681   4.419   5.611  10.660  0.6490  0.4167 -0.0943
   35POPC   H3R 4682   4.455   5.509  10.685 -2.5153 -0.9569 -0.6395
   35POPC   H3S 4683   4.511   5.672  10.644 -0.0331  0.9610 -2.3426
   35POPC   C24 4684   4.352   5.597  10.518 -0.1742  0.7965  0.1280
   35POPC   H4R 4685   4.301   5.692  10.492 -1.3801 -0.0221 -0.6021
   35POPC   H4S 4686   4.288   5.507  10.520  1.5272 -0.7368 -3.6985
   35POPC   C25 4687   4.457   5.565  10.406 -0.3395  0.7987 -0.6073
   35POPC   H5R 4688   4.517   5.475  10.430 -1.5875  0.0373 -0.2434
   35POPC   H5S 4689   4.524   5.651  10.385  0.5443 -0.1502 -1.8147
   35POPC   C26 4690   4.382   5.525  10.274 -0.7308  0.3214  0.7069
   35POPC   H6R 4691   4.309   5.599  10.235 -0.0889  0.1180 -0.9834
   35POPC   H6S 4692   4.314   5.444  10.307 -1.3522  1.5108  2.4615
   35POPC   C27 4693   4.468   5.480  10.156  0.3612  0.2706 -1.0403
   35POPC   H7R 4694   4.549   5.419  10.200 -1.3756 -0.1758  1.8119
   35POPC   H7S 4695   4.527   5.562  10.111 -2.2787  2.6562 -0.4407
   35POPC   C28 4696   4.392   5.381  10.070  0.8606  0.1185 -1.2934
   35POPC   H8R 4697   4.352   5.314  10.149  2.9915  0.8871  0.5237
   35POPC   H8S 4698   4.467   5.329  10.007 -0.5383 -1.6235 -1.5900
   35POPC   C29 4699   4.271   5.420   9.988  0.5912 -0.1143  0.6017
   35POPC   H91 4700   4.178   5.410  10.044 -1.2189 -1.6149 -2.3971
   35POPC  C210 4701   4.255   5.441   9.858  0.0791 -0.0277 -0.0649
   35POPC  H101 4702   4.153   5.463   9.822  0.4946  0.5752 -0.9212
   35POPC  C211 4703   4.367   5.433   9.750  0.4544  0.4095 -0.2963
   35POPC  H11R 4704   4.408   5.330   9.758 -0.6404 -0.0338 -0.1552
   35POPC  H11S 4705   4.441   5.513   9.770  1.3467 -0.3086 -0.6222
   35POPC  C212 4706   4.309   5.450   9.611 -0.3797 -0.3039  0.1304
   35POPC  H12R 4707   4.247   5.367   9.573 -0.2127 -1.2028  1.7474
   35POPC  H12S 4708   4.393   5.456   9.537  0.7064  0.4861  1.3759
   35POPC  C213 4709   4.238   5.593   9.579 -0.4756  0.0172  0.3720
   35POPC  H13R 4710   4.245   5.658   9.668  2.5655  0.1344  0.1671
   35POPC  H13S 4711   4.130   5.571   9.576  0.0451 -2.8204 -1.1502
   35POPC  C214 4712   4.270   5.652   9.440 -0.4462  0.2591  0.4260
   35POPC  H14R 4713   4.275   5.564   9.373 -2.4768  0.4512 -0.0538
   35POPC  H14S 4714   4.368   5.703   9.449  0.5562 -1.4277 -0.4178
   35POPC  C215 4715   4.165   5.741   9.372 -0.3289  0.1352  0.8542
   35POPC  H15R 4716   4.170   5.844   9.414 -1.2162  0.8214 -0.6446
   35POPC  H15S 4717   4.063   5.702   9.390  0.0902 -0.4994  1.9481
   35POPC  C216 4718   4.184   5.748   9.217 -0.0957  0.4754 -0.1582
   35POPC  H16R 4719   4.117   5.831   9.184  0.1542  1.0137  0.6622
   35POPC  H16S 4720   4.151   5.651   9.173  0.5363 -0.1782  0.7937
   35POPC  C217 4721   4.326   5.775   9.169  0.1259  1.2772 -0.3996
   35POPC  H17R 4722   4.396   5.699   9.210 -0.3177  0.4628 -1.0929
   35POPC  H17S 4723   4.361   5.867   9.220  1.7579  0.8251 -0.6344
   35POPC  C218 4724   4.341   5.779   9.015 -0.0330  0.0291  0.3586
   35POPC  H18R 4725   4.323   5.682   8.965 -1.3467  0.9560 -1.0560
   35POPC  H18S 4726   4.441   5.820   8.989 -1.6662  3.8475 -0.5219
   35POPC  H18T 4727   4.262   5.849   8.979 -0.8687 -0.5303  1.0434
   35POPC   C33 4728   3.718   5.357  10.385  0.0859  0.8047  0.6580
   35POPC   H3X 4729   3.619   5.362  10.434 -0.2273 -1.0189  0.2904
   35POPC   H3Y 4730   3.761   5.259  10.415 -2.4253 -0.4011  0.5546
   35POPC   C34 4731   3.707   5.363  10.228 -0.1033  0.3220 -0.1705
   35POPC   H4X 4732   3.802   5.385  10.176 -0.2982 -2.2879 -1.8035
   35POPC   H4Y 4733   3.636   5.446  10.205 -2.4388 -1.4918  0.1255
   35POPC   C35 4734   3.655   5.237  10.165  0.1256 -0.0698  0.2411
   35POPC   H5X 4735   3.555   5.216  10.208 -0.5976  3.5762  0.6606
   35POPC   H5Y 4736   3.729   5.154  10.173 -0.4538 -0.8030 -1.5627
   35POPC   C36 4737   3.623   5.260  10.012  0.3116 -0.6426 -0.1937
   35POPC   H6X 4738   3.551   5.344   9.999  0.1544 -0.3357  2.2063
   35POPC   H6Y 4739   3.587   5.167   9.963 -0.2896 -0.0841 -0.8351
   35POPC   C37 4740   3.751   5.305   9.937 -0.0605 -0.4430  0.2256
   35POPC   H7X 4741   3.835   5.233   9.941 -1.5065 -2.2358 -0.2874
   35POPC   H7Y 4742   3.773   5.411   9.964  0.8607 -0.3020 -1.0073
   35POPC   C38 4743   3.728   5.322   9.782 -1.2254  0.4258 -0.0056
   35POPC   H8X 4744   3.644   5.389   9.753 -1.5288  0.0417 -0.0122
   35POPC   H8Y 4745   3.693   5.223   9.746 -0.9643  0.4837 -0.4239
   35POPC   C39 4746   3.861   5.356   9.711 -0.2747 -0.7513 -1.1395
   35POPC   H9X 4747   3.947   5.298   9.751  1.6256  1.3543 -1.9790
   35POPC   H9Y 4748   3.875   5.465   9.724 -1.5681 -0.5598 -1.1961
   35POPC  C310 4749   3.845   5.322   9.561  0.1523 -0.0208 -0.9576
   35POPC  H10X 4750   3.767   5.391   9.523 -1.0459 -0.2688  0.9494
   35POPC  H10Y 4751   3.820   5.215   9.543  1.8089 -0.9944  1.8345
   35POPC  C311 4752   3.983   5.351   9.487  0.2485 -0.4928 -0.7652
   35POPC  H11X 4753   4.059   5.312   9.557 -0.2449  0.6246  0.4354
   35POPC  H11Y 4754   3.980   5.462   9.476 -3.9331 -0.2449  0.7839
   35POPC  C312 4755   3.996   5.295   9.347  0.9058 -0.3540  0.3046
   35POPC  H12X 4756   3.901   5.310   9.293  1.3419  1.9292  0.0767
   35POPC  H12Y 4757   4.016   5.187   9.364 -0.5224 -0.6224  0.4094
   35POPC  C313 4758   4.113   5.362   9.282  0.5070 -0.5091  0.7741
   35POPC  H13X 4759   4.205   5.346   9.341  0.6554  1.0970  1.0031
   35POPC  H13Y 4760   4.093   5.471   9.285  2.9803  0.0352  0.2481
   35POPC  C314 4761   4.147   5.323   9.136 -0.0311  0.1697  0.5141
   35POPC  H14X 4762   4.101   5.401   9.072  1.7098 -0.5295 -1.7522
   35POPC  H14Y 4763   4.088   5.231   9.115  0.7066  0.1323 -1.6116
   35POPC  C315 4764   4.290   5.290   9.094  0.6317 -0.3211 -0.3460
   35POPC  H15X 4765   4.282   5.239   8.996 -2.6675 -2.7318  1.0000
   35POPC  H15Y 4766   4.324   5.213   9.166 -2.2095 -1.2088  0.1380
   35POPC  C316 4767   4.393   5.403   9.092 -0.5954  0.0375 -0.1074
   35POPC  H16X 4768   4.437   5.434   9.189 -1.1958  3.6259 -0.8231
   35POPC  H16Y 4769   4.347   5.496   9.050 -2.0058 -0.5833  0.0059
   35POPC  H16Z 4770   4.476   5.377   9.023  1.4816  3.6849  0.7144
   36POPC     N 4771   5.160   3.808  10.831 -0.2223  0.0845  0.2278
   36POPC   C12 4772   5.015   3.835  10.870 -0.5117  0.3483  0.0500
   36POPC  H12A 4773   4.981   3.768  10.948 -1.9694  2.1854  1.0979
   36POPC  H12B 4774   4.945   3.821  10.789 -3.5029  0.6287  2.3718
   36POPC   C13 4775   5.239   3.850  10.942 -0.2128  0.5066  0.2491
   36POPC  H13A 4776   5.221   3.792  11.031 -1.3814  0.5822  0.0766
   36POPC  H13B 4777   5.345   3.844  10.926 -0.0621  1.7623  0.7078
   36POPC  H13C 4778   5.221   3.955  10.957 -1.6866  0.2869  0.2109
   36POPC   C14 4779   5.194   3.666  10.799  0.1819  0.2823 -0.1310
   36POPC  H14A 4780   5.182   3.615  10.894  1.5761  0.4274  0.1477
   36POPC  H14B 4781   5.131   3.631  10.720 -0.3306  0.5209  0.1647
   36POPC  H14C 4782   5.297   3.656  10.768 -0.5357 -0.7956 -2.3805
   36POPC   C15 4783   5.204   3.887  10.714  0.0220  0.3792 -0.2164
   36POPC  H15A 4784   5.143   3.866  10.628  1.7126 -0.7450 -1.2076
   36POPC  H15B 4785   5.307   3.872  10.684  0.7996  2.9213  0.8963
   36POPC  H15C 4786   5.194   3.992  10.738  1.8249  0.3440  0.9470
   36POPC   C11 4787   4.981   3.974  10.924 -0.6017  0.6916  0.3297
   36POPC  H11A 4788   5.011   3.985  11.030 -0.8180 -0.1352  0.4857
   36POPC  H11B 4789   4.871   3.979  10.943 -1.0364  2.2468 -2.0945
   36POPC     P 4790   5.066   4.213  10.884  0.1339 -0.2493  0.0604
   36POPC   O13 4791   5.210   4.201  10.892 -0.6946 -0.1531 -0.0784
   36POPC   O14 4792   4.995   4.246  11.006  0.1572 -0.7498  0.2776
   36POPC   O12 4793   5.011   4.080  10.833  0.3518  0.5402 -0.2272
   36POPC   O11 4794   5.033   4.315  10.773 -0.8880 -0.3526 -0.0834
   36POPC    C1 4795   4.909   4.376  10.765  0.4320  0.2286  0.6353
   36POPC    HA 4796   4.918   4.455  10.687  1.1468 -0.4766 -0.0051
   36POPC    HB 4797   4.885   4.420  10.864  0.7734 -0.8306  1.1924
   36POPC    C2 4798   4.797   4.273  10.727 -0.3151 -0.5594  0.1610
   36POPC    HS 4799   4.811   4.178  10.782  0.2880  0.1631  1.2887
   36POPC   O21 4800   4.806   4.255  10.586 -0.1985  0.0254 -0.2207
   36POPC   C21 4801   4.792   4.127  10.544 -0.4282 -0.7177 -0.0974
   36POPC   O22 4802   4.784   4.033  10.620  0.0766  0.7139 -0.1419
   36POPC   C22 4803   4.774   4.122  10.396 -0.3727  0.9028 -0.1861
   36POPC   H2R 4804   4.861   4.164  10.341 -0.1695 -1.8345 -2.1587
   36POPC   H2S 4805   4.676   4.166  10.365 -0.4612  0.3899 -0.6370
   36POPC    C3 4806   4.659   4.349  10.757  0.2465 -0.0241 -0.2194
   36POPC    HX 4807   4.661   4.458  10.740 -2.9459  0.0326 -0.7503
   36POPC    HY 4808   4.668   4.345  10.868  0.8665  0.7839 -0.2337
   36POPC   O31 4809   4.539   4.285  10.703 -0.3627 -0.1907 -0.2502
   36POPC   C31 4810   4.466   4.357  10.626  0.1515 -0.0673  0.0458
   36POPC   O32 4811   4.473   4.478  10.604  0.6590 -0.0378 -0.1355
   36POPC   C32 4812   4.381   4.251  10.548 -0.1400  0.2502  0.0682
   36POPC   H2X 4813   4.308   4.206  10.618 -2.0964  1.6845 -0.9593
   36POPC   H2Y 4814   4.439   4.169  10.501  1.7121  1.5261  0.0129
   36POPC   C23 4815   4.785   3.971  10.358 -0.1995  0.8206 -0.4266
   36POPC   H3R 4816   4.689   3.919  10.377 -0.1687  1.0243  0.2919
   36POPC   H3S 4817   4.869   3.917  10.406 -1.3541 -0.0788  0.6412
   36POPC   C24 4818   4.805   3.956  10.206  0.3456 -0.5395  0.9618
   36POPC   H4R 4819   4.906   3.990  10.174  0.9614 -2.2117  1.0347
   36POPC   H4S 4820   4.729   4.015  10.150 -1.5380 -1.3132  2.5944
   36POPC   C25 4821   4.796   3.806  10.174  0.5028  0.2072 -0.2508
   36POPC   H5R 4822   4.690   3.783  10.195  0.7862  2.5036  5.4519
   36POPC   H5S 4823   4.850   3.738  10.244 -2.6138 -1.9043  0.2873
   36POPC   C26 4824   4.835   3.764  10.031 -0.2207  0.3624  0.1105
   36POPC   H6R 4825   4.908   3.681  10.046 -0.9797  0.0168  2.3557
   36POPC   H6S 4826   4.896   3.838   9.975  1.2868 -0.8301  0.0945
   36POPC   C27 4827   4.714   3.722   9.946 -0.1710 -0.8940 -0.1166
   36POPC   H7R 4828   4.630   3.686  10.008 -0.0286  0.0703  0.6540
   36POPC   H7S 4829   4.751   3.652   9.867  1.8004  2.2377 -2.2149
   36POPC   C28 4830   4.659   3.842   9.869  0.2150 -0.3334 -0.4081
   36POPC   H8R 4831   4.737   3.878   9.798  0.8692  1.0535  0.9521
   36POPC   H8S 4832   4.637   3.930   9.933  1.0108 -0.1121 -0.4220
   36POPC   C29 4833   4.529   3.801   9.795 -0.1727 -0.7810 -0.5239
   36POPC   H91 4834   4.446   3.786   9.865  0.0101 -1.2113 -0.3950
   36POPC  C210 4835   4.507   3.796   9.664 -0.0497 -0.6816  0.1532
   36POPC  H101 4836   4.414   3.764   9.616  0.7924 -0.8423 -1.4209
   36POPC  C211 4837   4.614   3.826   9.562 -0.3016 -0.1169  0.6979
   36POPC  H11R 4838   4.711   3.778   9.588  0.7304  1.1248 -0.6344
   36POPC  H11S 4839   4.634   3.935   9.557 -0.1932 -0.1325  0.7657
   36POPC  C212 4840   4.577   3.775   9.423  0.4045 -0.0157  0.0194
   36POPC  H12R 4841   4.505   3.853   9.391 -1.1261 -1.3943 -0.0111
   36POPC  H12S 4842   4.523   3.678   9.422 -3.0047  1.7181  0.6982
   36POPC  C213 4843   4.682   3.774   9.317 -0.1542  1.1564  0.4904
   36POPC  H13R 4844   4.768   3.715   9.356  0.7475  2.4636  0.5444
   36POPC  H13S 4845   4.711   3.882   9.311 -0.1173  1.2080  1.4298
   36POPC  C214 4846   4.629   3.727   9.182 -0.1302  0.3448  0.6100
   36POPC  H14R 4847   4.606   3.619   9.193 -1.0492  0.5107  0.4162
   36POPC  H14S 4848   4.712   3.746   9.110  0.0958  1.0363  1.0421
   36POPC  C215 4849   4.510   3.810   9.124  0.3701 -0.2828  0.0535
   36POPC  H15R 4850   4.524   3.920   9.119  2.3946 -0.5622 -2.4827
   36POPC  H15S 4851   4.420   3.779   9.181  0.2929 -2.3692 -1.0676
   36POPC  C216 4852   4.479   3.769   8.978  0.2801 -0.7289  0.2008
   36POPC  H16R 4853   4.476   3.658   8.977  2.5471 -0.8951  2.2637
   36POPC  H16S 4854   4.557   3.803   8.907 -0.3467  1.6192  0.5522
   36POPC  C217 4855   4.343   3.836   8.938  0.2635 -0.5129  0.1948
   36POPC  H17R 4856   4.339   3.944   8.963 -2.7872 -0.6779  0.7416
   36POPC  H17S 4857   4.263   3.787   8.998 -0.4455  1.3489  0.8265
   36POPC  C218 4858   4.311   3.818   8.794  0.3719  0.1197  0.7133
   36POPC  H18R 4859   4.205   3.838   8.767 -0.1993  1.2567  3.4209
   36POPC  H18S 4860   4.345   3.716   8.767  0.6363  0.3512  0.1669
   36POPC  H18T 4861   4.373   3.891   8.738 -0.4143 -1.6368 -2.6974
   36POPC   C33 4862   4.296   4.319  10.438  0.2385  0.3950 -0.2162
   36POPC   H3X 4863   4.342   4.407  10.389  1.4042  1.1137  1.9827
   36POPC   H3Y 4864   4.207   4.367  10.484  0.6843  0.3337  0.7464
   36POPC   C34 4865   4.262   4.219  10.322 -0.0895 -0.6907 -0.1946
   36POPC   H4X 4866   4.206   4.140  10.378 -1.6379 -0.2140 -1.0195
   36POPC   H4Y 4867   4.360   4.189  10.279  0.4654  1.5091 -0.5698
   36POPC   C35 4868   4.166   4.273  10.224  0.3317  0.4761  0.7908
   36POPC   H5X 4869   4.212   4.355  10.164 -0.2838  0.2172 -0.0647
   36POPC   H5Y 4870   4.076   4.303  10.282  0.9081 -1.0653  2.5638
   36POPC   C36 4871   4.105   4.168  10.124 -0.1134 -0.5776  0.1201
   36POPC   H6X 4872   4.029   4.105  10.175 -0.0874 -1.9507 -1.4303
   36POPC   H6Y 4873   4.186   4.101  10.087  1.4481  0.6250  1.2121
   36POPC   C37 4874   4.027   4.243  10.018 -0.3358  0.0832 -0.2113
   36POPC   H7X 4875   4.094   4.316   9.968 -1.1182  0.8116 -0.2180
   36POPC   H7Y 4876   3.946   4.306  10.060 -0.0478  2.0313 -2.3876
   36POPC   C38 4877   3.966   4.139   9.925  0.0907  0.4862 -0.5736
   36POPC   H8X 4878   3.925   4.057   9.988  1.7697  0.1141  0.0618
   36POPC   H8Y 4879   4.052   4.100   9.867 -0.8591 -1.5450 -0.7216
   36POPC   C39 4880   3.869   4.212   9.825 -0.9199 -0.1977 -0.1933
   36POPC   H9X 4881   3.936   4.287   9.776 -0.8982  2.2004  3.1554
   36POPC   H9Y 4882   3.786   4.259   9.882  1.1384 -0.9074  3.7106
   36POPC  C310 4883   3.816   4.116   9.726  0.4721  0.2535 -0.2672
   36POPC  H10X 4884   3.741   4.051   9.777  1.4822 -1.5411 -0.9660
   36POPC  H10Y 4885   3.897   4.056   9.678 -1.6322 -2.5518 -0.5531
   36POPC  C311 4886   3.740   4.180   9.617  0.3351 -0.7272  0.0287
   36POPC  H11X 4887   3.804   4.236   9.545 -2.3136  0.6500 -1.3933
   36POPC  H11Y 4888   3.672   4.254   9.664 -1.2785 -3.2401  1.9032
   36POPC  C312 4889   3.654   4.086   9.539 -0.2032  0.0791 -0.1361
   36POPC  H12X 4890   3.564   4.045   9.591 -1.8600  2.1865 -1.1588
   36POPC  H12Y 4891   3.706   3.994   9.507  0.0279  0.7859 -1.9362
   36POPC  C313 4892   3.608   4.158   9.412  0.3569 -0.0487  0.7823
   36POPC  H13X 4893   3.700   4.215   9.384 -0.3060  0.2622 -0.8604
   36POPC  H13Y 4894   3.522   4.226   9.429 -1.1239 -1.2216 -1.6156
   36POPC  C314 4895   3.584   4.067   9.294 -0.4967  0.0727  0.2617
   36POPC  H14X 4896   3.525   3.979   9.326 -1.9092  0.6115 -0.7918
   36POPC  H14Y 4897   3.684   4.024   9.272 -0.6304 -1.2450  1.9843
   36POPC  C315 4898   3.512   4.127   9.174  0.2483 -0.3525 -0.3037
   36POPC  H15X 4899   3.579   4.211   9.146 -0.2908  0.2363  0.1570
   36POPC  H15Y 4900   3.412   4.166   9.202 -0.3595 -0.2697 -2.3824
   36POPC  C316 4901   3.497   4.036   9.053  0.4667  0.2582  0.1489
   36POPC  H16X 4902   3.447   3.940   9.076 -0.2019  0.5148 -0.2127
   36POPC  H16Y 4903   3.600   4.013   9.018  0.6090  1.0454  0.0305
   36POPC  H16Z 4904   3.458   4.084   8.961 -1.0310 -0.7763  0.2225
   37POPC     N 4905   5.392   0.385   6.509  0.2487 -0.6482 -0.0944
   37POPC   C12 4906   5.365   0.534   6.504 -0.0280 -0.0435  0.1017
   37POPC  H12A 4907   5.270   0.558   6.551 -0.1202  0.2938 -0.2470
   37POPC  H12B 4908   5.345   0.559   6.400  1.8391  1.7434  0.1052
   37POPC   C13 4909   5.273   0.310   6.447 -0.3265 -0.2362 -0.1616
   37POPC  H13A 4910   5.246   0.354   6.352 -0.8203 -0.0636  0.0558
   37POPC  H13B 4911   5.288   0.203   6.445 -2.1687 -0.5549  0.7706
   37POPC  H13C 4912   5.185   0.327   6.507  1.2575  1.3968  1.8670
   37POPC   C14 4913   5.514   0.364   6.422  0.6142  0.2787 -0.4562
   37POPC  H14A 4914   5.481   0.392   6.323  1.7454  3.0844 -0.1122
   37POPC  H14B 4915   5.602   0.421   6.450  0.9601 -0.4223 -0.0851
   37POPC  H14C 4916   5.546   0.261   6.411  0.3374  0.3787 -2.7087
   37POPC   C15 4917   5.397   0.347   6.651  0.2970 -0.6195 -0.3237
   37POPC  H15A 4918   5.478   0.402   6.696 -1.2464  2.6857 -1.2601
   37POPC  H15B 4919   5.398   0.240   6.663 -1.2845 -0.6898 -0.5492
   37POPC  H15C 4920   5.311   0.387   6.704  0.1909  0.2380 -1.1210
   37POPC   C11 4921   5.478   0.626   6.563 -0.2913  0.3288 -0.1905
   37POPC  H11A 4922   5.566   0.643   6.498  0.9104 -1.3253  0.9068
   37POPC  H11B 4923   5.505   0.564   6.651 -1.1254 -0.3801 -0.4171
   37POPC     P 4924   5.393   0.860   6.532  0.0514 -0.1949 -0.1054
   37POPC   O13 4925   5.298   0.808   6.436  0.2486 -0.4366  0.1445
   37POPC   O14 4926   5.510   0.928   6.476 -0.3183 -0.6575  0.3045
   37POPC   O12 4927   5.436   0.746   6.630 -0.2103  0.2222  0.1624
   37POPC   O11 4928   5.313   0.956   6.631 -0.2562  0.0155  0.3934
   37POPC    C1 4929   5.208   0.890   6.712 -0.3059 -0.4621  0.4380
   37POPC    HA 4930   5.245   0.871   6.814  0.3023  0.0583  0.3213
   37POPC    HB 4931   5.168   0.802   6.657 -1.1943  1.8998 -3.0286
   37POPC    C2 4932   5.083   0.983   6.720 -0.1032 -0.3668 -0.0936
   37POPC    HS 4933   5.045   0.991   6.616  2.0862  2.9067 -0.8260
   37POPC   O21 4934   5.131   1.121   6.751 -0.9641  0.1057 -0.2748
   37POPC   C21 4935   5.038   1.209   6.778  0.6913 -0.1081  0.6523
   37POPC   O22 4936   4.922   1.201   6.742 -0.3033 -0.1597  0.5784
   37POPC   C22 4937   5.097   1.337   6.848 -0.0775  0.2378 -0.2097
   37POPC   H2R 4938   5.021   1.409   6.883 -1.5542 -0.5405 -1.6540
   37POPC   H2S 4939   5.158   1.384   6.768  1.0263 -0.2791  0.3013
   37POPC    C3 4940   4.973   0.924   6.814  0.2286 -0.2254 -0.2018
   37POPC    HX 4941   4.945   0.824   6.773 -2.2508  0.7919 -1.1640
   37POPC    HY 4942   4.874   0.973   6.808  0.6257  0.3947 -2.9012
   37POPC   O31 4943   5.025   0.928   6.950 -0.5909  0.6669  0.4265
   37POPC   C31 4944   5.032   0.815   7.018 -0.0915  0.2436 -0.3094
   37POPC   O32 4945   4.977   0.715   6.980 -0.0596 -0.1709  0.2991
   37POPC   C32 4946   5.103   0.835   7.154  0.3953 -0.5133  0.2424
   37POPC   H2X 4947   5.041   0.909   7.210 -0.7781 -1.2575 -0.0308
   37POPC   H2Y 4948   5.203   0.880   7.141  0.6463 -0.7251  1.4072
   37POPC   C23 4949   5.183   1.297   6.968 -0.0055 -0.0255 -0.1534
   37POPC   H3R 4950   5.232   1.392   6.998  1.2535  0.0764 -2.3460
   37POPC   H3S 4951   5.265   1.232   6.932  0.3197  0.8467 -1.0410
   37POPC   C24 4952   5.103   1.246   7.089 -0.0504 -0.0011  0.2456
   37POPC   H4R 4953   5.042   1.160   7.053  0.8215 -0.0905 -1.1059
   37POPC   H4S 4954   5.042   1.332   7.123 -1.0506 -0.9346  0.8907
   37POPC   C25 4955   5.196   1.188   7.201 -0.1501  0.0217 -0.9652
   37POPC   H5R 4956   5.257   1.103   7.163 -2.6431 -2.6263  0.4823
   37POPC   H5S 4957   5.146   1.135   7.285  1.6015  1.3442  0.9920
   37POPC   C26 4958   5.275   1.309   7.261 -0.1959 -0.0623  0.1709
   37POPC   H6R 4959   5.208   1.396   7.279  0.9131  0.7018  0.7092
   37POPC   H6S 4960   5.351   1.329   7.183  0.7381  2.2203  1.5665
   37POPC   C27 4961   5.336   1.270   7.394  0.4510  0.4606 -0.5252
   37POPC   H7R 4962   5.384   1.171   7.386 -0.2662  0.1448 -0.9659
   37POPC   H7S 4963   5.249   1.257   7.461  0.3564  0.3777 -0.6651
   37POPC   C28 4964   5.434   1.378   7.445 -0.4330 -0.1443  0.9705
   37POPC   H8R 4965   5.371   1.466   7.471 -0.8454  0.3848 -1.5695
   37POPC   H8S 4966   5.491   1.417   7.358 -0.3617 -0.0875  1.0431
   37POPC   C29 4967   5.523   1.339   7.555  0.6900  0.2193  0.0789
   37POPC   H91 4968   5.623   1.382   7.569  0.6118 -0.0010  1.4709
   37POPC  C210 4969   5.500   1.259   7.658 -0.1048 -0.2820 -0.1168
   37POPC  H101 4970   5.570   1.261   7.743  0.5720  1.1728 -0.6687
   37POPC  C211 4971   5.373   1.184   7.685 -0.5228  0.3180 -0.4722
   37POPC  H11R 4972   5.377   1.098   7.615 -1.4339 -0.3379  0.2685
   37POPC  H11S 4973   5.292   1.257   7.662 -0.8437  0.0303 -0.2508
   37POPC  C212 4974   5.377   1.129   7.833  0.0942 -0.0404  0.3347
   37POPC  H12R 4975   5.446   1.042   7.837  0.0382 -0.0526  1.5337
   37POPC  H12S 4976   5.277   1.088   7.860  1.2945 -2.9578  0.7629
   37POPC  C213 4977   5.398   1.223   7.953 -0.3275  0.1198 -0.4721
   37POPC  H13R 4978   5.312   1.291   7.971  0.4485  0.2897  3.3870
   37POPC  H13S 4979   5.490   1.282   7.936 -0.9000  1.1171 -0.1422
   37POPC  C214 4980   5.406   1.148   8.088 -0.6622 -0.1063 -0.1696
   37POPC  H14R 4981   5.504   1.095   8.084 -1.6851 -2.1011  0.2147
   37POPC  H14S 4982   5.322   1.076   8.094 -0.4148 -0.3041  1.2076
   37POPC  C215 4983   5.421   1.247   8.203 -0.2794  0.9385  0.6235
   37POPC  H15R 4984   5.331   1.313   8.208 -1.6278 -0.6602 -1.2510
   37POPC  H15S 4985   5.512   1.311   8.200  0.0874  0.3828 -0.7270
   37POPC  C216 4986   5.437   1.173   8.338 -0.4258  0.2274 -0.3393
   37POPC  H16R 4987   5.527   1.108   8.330 -0.6986 -0.0860 -1.0362
   37POPC  H16S 4988   5.340   1.122   8.357 -1.2868  1.9243 -0.0754
   37POPC  C217 4989   5.456   1.263   8.454 -0.5290  0.3497 -1.0789
   37POPC  H17R 4990   5.380   1.344   8.446 -1.5955 -0.3620  1.1431
   37POPC  H17S 4991   5.556   1.310   8.441  0.6330 -1.3677  1.0146
   37POPC  C218 4992   5.453   1.209   8.597  0.1812 -0.1544  0.0735
   37POPC  H18R 4993   5.540   1.145   8.624  0.6099  0.8237  1.1408
   37POPC  H18S 4994   5.359   1.158   8.627  0.9014 -1.1617  0.7001
   37POPC  H18T 4995   5.474   1.299   8.659  0.7189  0.2818 -0.7241
   37POPC   C33 4996   5.113   0.701   7.231 -0.9108  0.0586  0.0482
   37POPC   H3X 4997   5.200   0.643   7.193 -1.7606 -1.3114  0.1496
   37POPC   H3Y 4998   5.021   0.640   7.225 -1.8354  1.2066  1.9212
   37POPC   C34 4999   5.148   0.749   7.373 -0.3438  0.5970 -0.0852
   37POPC   H4X 5000   5.080   0.827   7.413  0.2391  1.7570 -1.3133
   37POPC   H4Y 5001   5.250   0.794   7.372 -0.7992  1.7904 -3.2319
   37POPC   C35 5002   5.146   0.626   7.469  0.0967 -0.3540  0.2122
   37POPC   H5X 5003   5.234   0.561   7.448  0.4401  0.4515 -0.8999
   37POPC   H5Y 5004   5.050   0.571   7.457 -1.0831  1.4063  1.1891
   37POPC   C36 5005   5.141   0.666   7.615  0.0590  0.3427  0.4298
   37POPC   H6X 5006   5.151   0.577   7.682 -0.3350  0.4989  0.6930
   37POPC   H6Y 5007   5.039   0.705   7.631 -0.5451 -1.5056  1.4916
   37POPC   C37 5008   5.232   0.777   7.649 -0.1807  0.7318  0.0220
   37POPC   H7X 5009   5.209   0.815   7.751 -0.5181  0.2314  0.1319
   37POPC   H7Y 5010   5.219   0.868   7.586 -1.4901  1.1678  0.8914
   37POPC   C38 5011   5.378   0.738   7.654 -0.2975  0.4223 -0.2119
   37POPC   H8X 5012   5.448   0.824   7.654 -0.1244  0.3202  1.9369
   37POPC   H8Y 5013   5.412   0.677   7.567  1.6003 -0.5186  1.1317
   37POPC   C39 5014   5.417   0.659   7.783 -0.0474  0.1991 -0.3200
   37POPC   H9X 5015   5.507   0.596   7.767 -0.6114 -1.2410  1.7651
   37POPC   H9Y 5016   5.343   0.583   7.815 -0.3347  0.9983  0.9721
   37POPC  C310 5017   5.455   0.748   7.906 -0.4741  0.4068  0.4995
   37POPC  H10X 5018   5.366   0.811   7.925 -1.7947 -0.9746 -0.8372
   37POPC  H10Y 5019   5.545   0.811   7.888 -1.3946  1.2710 -1.3295
   37POPC  C311 5020   5.498   0.678   8.031  0.2361 -0.0285 -0.9379
   37POPC  H11X 5021   5.593   0.623   8.015  0.7855  0.6527 -0.1102
   37POPC  H11Y 5022   5.422   0.611   8.075  2.0653 -1.9539 -0.5765
   37POPC  C312 5023   5.527   0.772   8.150 -0.2001 -0.2250 -0.1095
   37POPC  H12X 5024   5.451   0.853   8.146 -2.1433 -1.9306  0.4859
   37POPC  H12Y 5025   5.619   0.832   8.134 -0.6385  0.4899  0.0017
   37POPC  C313 5026   5.525   0.715   8.294  0.6198 -0.0832 -0.0636
   37POPC  H13X 5027   5.616   0.651   8.288  0.4152 -0.6501  1.9480
   37POPC  H13Y 5028   5.449   0.637   8.311 -0.3110  0.6663 -0.6688
   37POPC  C314 5029   5.534   0.813   8.401 -0.7355 -0.2733 -0.0633
   37POPC  H14X 5030   5.444   0.877   8.403 -0.3219  0.3139  0.2001
   37POPC  H14Y 5031   5.627   0.872   8.387  1.0699 -2.3461  2.3190
   37POPC  C315 5032   5.543   0.738   8.537 -0.5046 -0.3237 -0.2017
   37POPC  H15X 5033   5.636   0.677   8.540 -1.1234 -1.4115 -1.7794
   37POPC  H15Y 5034   5.461   0.664   8.547 -0.5170 -0.8190 -2.9684
   37POPC  C316 5035   5.553   0.839   8.653  0.2777  0.6001  0.3409
   37POPC  H16X 5036   5.464   0.903   8.669  0.3626  0.4949  1.2479
   37POPC  H16Y 5037   5.646   0.898   8.638  1.5421 -1.5977 -1.0255
   37POPC  H16Z 5038   5.571   0.793   8.752  0.6182 -0.3295 -0.1460
   38POPC     N 5039   5.427   4.104   5.989 -0.9327 -0.1800 -0.0353
   38POPC   C12 5040   5.521   4.131   6.104  0.4964  0.4848 -0.4227
   38POPC  H12A 5041   5.568   4.228   6.104  1.1067  0.2023 -0.9739
   38POPC  H12B 5042   5.600   4.060   6.083  0.9742  0.1002  2.3764
   38POPC   C13 5043   5.294   4.170   6.021  0.2951 -0.3883  0.0449
   38POPC  H13A 5044   5.240   4.138   6.108 -0.1922  0.5001  0.0820
   38POPC  H13B 5045   5.316   4.273   6.044 -0.2200  0.0431 -1.3080
   38POPC  H13C 5046   5.239   4.156   5.929  1.1238 -1.6239 -0.2926
   38POPC   C14 5047   5.479   4.137   5.851  0.4227 -0.7252 -0.3273
   38POPC  H14A 5048   5.554   4.214   5.858 -3.1673  3.3446 -2.0992
   38POPC  H14B 5049   5.522   4.049   5.806  1.8918  0.2752 -0.9221
   38POPC  H14C 5050   5.405   4.176   5.783 -0.7726  2.6425  2.5814
   38POPC   C15 5051   5.396   3.954   5.981 -0.2002  0.7926  0.5947
   38POPC  H15A 5052   5.489   3.909   5.948  0.3337  1.8155  0.6481
   38POPC  H15B 5053   5.329   3.924   5.902  1.6343  0.1561 -0.7938
   38POPC  H15C 5054   5.371   3.900   6.071 -0.0293  0.5964  0.5270
   38POPC   C11 5055   5.463   4.094   6.243 -0.3025 -0.2014 -0.2066
   38POPC  H11A 5056   5.369   4.146   6.268  0.2559  0.5967  0.2803
   38POPC  H11B 5057   5.539   4.126   6.318 -0.4283  0.0105 -0.1701
   38POPC     P 5058   5.532   3.844   6.310 -0.1984  0.2463  0.2381
   38POPC   O13 5059   5.657   3.846   6.220 -0.0403 -0.1297 -0.5462
   38POPC   O14 5060   5.458   3.719   6.325  0.0111  0.0947  0.0177
   38POPC   O12 5061   5.432   3.955   6.260 -0.0798 -0.1252 -0.1155
   38POPC   O11 5062   5.580   3.885   6.445 -0.2782  0.5229 -0.3776
   38POPC    C1 5063   5.478   3.949   6.532  0.1097  0.7438  0.2297
   38POPC    HA 5064   5.375   3.938   6.492  0.1341  0.5999  0.2049
   38POPC    HB 5065   5.495   4.058   6.523  0.6209  0.5367 -1.9863
   38POPC    C2 5066   5.481   3.889   6.678  0.1966  0.1489  0.0992
   38POPC    HS 5067   5.401   3.927   6.746  2.1993  0.1639  2.6155
   38POPC   O21 5068   5.601   3.914   6.749 -0.6583  0.2342 -0.4109
   38POPC   C21 5069   5.604   4.043   6.793 -0.5381 -0.0508 -0.6485
   38POPC   O22 5070   5.516   4.124   6.782  0.1766 -0.2198 -0.5935
   38POPC   C22 5071   5.721   4.053   6.890 -0.2920 -0.0553 -0.2297
   38POPC   H2R 5072   5.818   4.044   6.837  0.3394  0.9559  0.7153
   38POPC   H2S 5073   5.706   3.970   6.962  0.0677 -0.5689 -0.7347
   38POPC    C3 5074   5.461   3.737   6.679  0.3593  0.3615 -0.5193
   38POPC    HX 5075   5.564   3.696   6.692 -0.6716 -2.4297 -0.3944
   38POPC    HY 5076   5.425   3.708   6.578  0.0584 -0.6371 -0.1352
   38POPC   O31 5077   5.379   3.697   6.795 -0.1946  0.4383 -0.0296
   38POPC   C31 5078   5.246   3.682   6.785  0.0721 -0.0452  0.2106
   38POPC   O32 5079   5.179   3.723   6.693  0.0999 -0.2978  0.0188
   38POPC   C32 5080   5.183   3.611   6.904  0.2239  0.3589  0.2173
   38POPC   H2X 5081   5.255   3.534   6.941 -0.3762  0.4250  1.5861
   38POPC   H2Y 5082   5.091   3.561   6.867 -0.4703  0.7260  1.4057
   38POPC   C23 5083   5.727   4.190   6.964  0.3165 -0.6117  0.1711
   38POPC   H3R 5084   5.625   4.210   7.001  0.9466  0.4007  1.4418
   38POPC   H3S 5085   5.764   4.265   6.891  0.9263 -0.3379  0.7511
   38POPC   C24 5086   5.820   4.208   7.078  0.1380  0.2568  0.0635
   38POPC   H4R 5087   5.923   4.183   7.041 -0.1511 -1.9005  0.5646
   38POPC   H4S 5088   5.800   4.136   7.160  0.0737  0.0038 -0.1711
   38POPC   C25 5089   5.806   4.345   7.140 -0.0973  0.0188 -0.7858
   38POPC   H5R 5090   5.698   4.374   7.142 -0.4732 -1.2849  1.1986
   38POPC   H5S 5091   5.865   4.417   7.080  1.6359  0.7104  1.6042
   38POPC   C26 5092   5.865   4.352   7.287 -0.4220 -0.0498  0.1043
   38POPC   H6R 5093   5.874   4.456   7.324  0.1726  0.2315 -0.8038
   38POPC   H6S 5094   5.964   4.301   7.292 -0.8454 -0.8515  0.5999
   38POPC   C27 5095   5.783   4.285   7.393 -0.1775  0.0812 -0.1909
   38POPC   H7R 5096   5.788   4.175   7.384 -0.8938  0.1918 -2.8059
   38POPC   H7S 5097   5.679   4.323   7.379 -1.1400 -1.9700  0.8812
   38POPC   C28 5098   5.810   4.324   7.537  0.0360 -0.2467  0.1141
   38POPC   H8R 5099   5.793   4.432   7.554  2.1572  0.7981 -3.2535
   38POPC   H8S 5100   5.918   4.299   7.551  0.4847  2.1476  1.3100
   38POPC   C29 5101   5.729   4.249   7.640  0.3056 -0.2983  0.2310
   38POPC   H91 5102   5.667   4.161   7.617  0.1454 -0.0493 -0.3030
   38POPC  C210 5103   5.727   4.288   7.771  0.1433  0.1470  0.2736
   38POPC  H101 5104   5.687   4.214   7.842  0.5135  0.3705  0.7189
   38POPC  C211 5105   5.807   4.396   7.835 -0.2199 -0.0875  0.1922
   38POPC  H11R 5106   5.737   4.455   7.898  1.0758 -0.5854  2.1794
   38POPC  H11S 5107   5.844   4.465   7.756  0.9856 -0.0601  0.7652
   38POPC  C212 5108   5.932   4.353   7.919  0.5415 -0.3065  0.8563
   38POPC  H12R 5109   6.008   4.313   7.848 -0.3773  0.7004 -0.7658
   38POPC  H12S 5110   5.909   4.267   7.985 -0.8667 -0.4996  0.1629
   38POPC  C213 5111   5.995   4.464   8.003 -0.4212  0.5031  0.5419
   38POPC  H13R 5112   6.019   4.556   7.945  1.6013  0.3631  1.1052
   38POPC  H13S 5113   6.090   4.440   8.055 -0.3235  2.9390  1.6509
   38POPC  C214 5114   5.905   4.519   8.118 -0.6296  0.1584 -0.2873
   38POPC  H14R 5115   5.872   4.447   8.195 -3.3524  1.9645  0.3762
   38POPC  H14S 5116   5.806   4.530   8.068 -1.7074 -2.0593  1.1948
   38POPC  C215 5117   5.958   4.653   8.177  0.1582  0.0403 -0.0414
   38POPC  H15R 5118   5.973   4.720   8.089  1.1910 -0.3656 -0.1991
   38POPC  H15S 5119   6.053   4.637   8.233 -0.0661  1.3793  0.7489
   38POPC  C216 5120   5.846   4.721   8.266 -0.3887 -0.1066 -0.9900
   38POPC  H16R 5121   5.803   4.651   8.340 -1.4813  4.5847  3.4013
   38POPC  H16S 5122   5.766   4.755   8.198  0.3556  0.6872 -1.5001
   38POPC  C217 5123   5.895   4.850   8.337 -0.2306 -0.1860 -0.0964
   38POPC  H17R 5124   5.940   4.909   8.254  0.8147 -1.0164 -0.1386
   38POPC  H17S 5125   5.972   4.828   8.414 -0.9420  1.0967  1.0199
   38POPC  C218 5126   5.775   4.935   8.388  0.1045  0.2238 -0.1416
   38POPC  H18R 5127   5.698   4.879   8.445  1.4779 -1.3705  0.2387
   38POPC  H18S 5128   5.719   4.985   8.306 -0.0184 -0.3422 -0.4107
   38POPC  H18T 5129   5.809   5.019   8.452 -0.4852  1.7848 -1.8023
   38POPC   C33 5130   5.157   3.697   7.027  0.0055  0.5565  1.0167
   38POPC   H3X 5131   5.085   3.779   7.008 -2.1124 -1.1295  1.4890
   38POPC   H3Y 5132   5.251   3.728   7.079  0.4102  1.8628 -0.4068
   38POPC   C34 5133   5.062   3.617   7.129  0.2967  0.4766  0.4956
   38POPC   H4X 5134   5.128   3.535   7.165  0.7151 -0.4593 -2.1960
   38POPC   H4Y 5135   4.969   3.576   7.085  0.3741  0.5281  0.2841
   38POPC   C35 5136   5.031   3.707   7.252  0.6050 -0.2298  0.2345
   38POPC   H5X 5137   4.994   3.807   7.219  1.4299 -0.1816 -0.5927
   38POPC   H5Y 5138   5.128   3.733   7.299  0.7894  1.5860 -1.0587
   38POPC   C36 5139   4.933   3.636   7.343 -0.1516  0.0625 -0.5723
   38POPC   H6X 5140   4.966   3.533   7.369  0.1911  0.6604  1.5211
   38POPC   H6Y 5141   4.831   3.623   7.301  0.3235  0.6059 -1.9489
   38POPC   C37 5142   4.922   3.712   7.480  0.6621 -0.5940  0.3229
   38POPC   H7X 5143   4.872   3.810   7.459  0.7834 -0.4366  0.7623
   38POPC   H7Y 5144   5.022   3.737   7.521  0.0819  0.7391  1.0335
   38POPC   C38 5145   4.835   3.636   7.582  0.5415 -0.1333 -0.0934
   38POPC   H8X 5146   4.894   3.542   7.593 -1.1836 -1.3227 -0.6881
   38POPC   H8Y 5147   4.736   3.618   7.536 -0.1406  3.0255 -0.0835
   38POPC   C39 5148   4.817   3.711   7.714  0.8285 -0.9072 -0.1799
   38POPC   H9X 5149   4.752   3.799   7.700 -0.3007 -1.3438  1.9502
   38POPC   H9Y 5150   4.919   3.748   7.736 -0.2153  1.7161  0.5981
   38POPC  C310 5151   4.782   3.624   7.843 -0.5317 -0.3995  0.4618
   38POPC  H10X 5152   4.875   3.569   7.868  0.4710  1.3811  0.8007
   38POPC  H10Y 5153   4.712   3.547   7.803  1.8843 -1.5604 -1.8567
   38POPC  C311 5154   4.738   3.698   7.961 -0.0345  0.9857 -0.0945
   38POPC  H11X 5155   4.658   3.772   7.941 -1.6665  0.1120  2.6000
   38POPC  H11Y 5156   4.828   3.746   8.005  1.9641 -0.7871 -1.9901
   38POPC  C312 5157   4.684   3.605   8.080  0.6359  0.3138  0.2116
   38POPC  H12X 5158   4.759   3.529   8.109  1.0827  0.9401  0.7384
   38POPC  H12Y 5159   4.593   3.552   8.043  0.9784  0.1766 -0.4365
   38POPC  C313 5160   4.638   3.679   8.213  0.1486 -0.0951 -0.1317
   38POPC  H13X 5161   4.565   3.619   8.271  0.0560  0.4943  0.3664
   38POPC  H13Y 5162   4.585   3.766   8.168 -0.7677  0.5288  1.9993
   38POPC  C314 5163   4.759   3.715   8.299 -0.5423 -0.0800 -0.6156
   38POPC  H14X 5164   4.846   3.728   8.231 -0.6986  0.4637 -0.7183
   38POPC  H14Y 5165   4.786   3.632   8.367 -0.1301  0.8020  0.3323
   38POPC  C315 5166   4.734   3.838   8.390 -0.6369 -0.0116 -0.3307
   38POPC  H15X 5167   4.722   3.927   8.325  0.6066  0.3728 -0.0701
   38POPC  H15Y 5168   4.825   3.853   8.453  0.1284 -0.0877 -1.3827
   38POPC  C316 5169   4.616   3.822   8.482 -0.2968 -0.5585  0.1222
   38POPC  H16X 5170   4.615   3.905   8.555  0.0029 -0.5664  0.1376
   38POPC  H16Y 5171   4.615   3.727   8.539 -3.5987 -0.3936  0.5403
   38POPC  H16Z 5172   4.520   3.846   8.431 -1.3879 -2.4895  1.1519
   39POPC     N 5173   3.185   1.771   6.507 -0.5138 -0.1628  0.5978
   39POPC   C12 5174   3.217   1.732   6.367 -0.2192 -0.0078  0.2496
   39POPC  H12A 5175   3.198   1.626   6.351 -2.5841  0.6287 -1.8629
   39POPC  H12B 5176   3.324   1.744   6.351 -0.0609 -0.7794  0.6670
   39POPC   C13 5177   3.281   1.706   6.610 -0.0970  0.4655  0.0961
   39POPC  H13A 5178   3.385   1.724   6.587 -0.2152  3.2145  1.2917
   39POPC  H13B 5179   3.276   1.757   6.705 -0.4179  0.2774  0.1823
   39POPC  H13C 5180   3.267   1.599   6.613  0.1065  0.4299 -0.2186
   39POPC   C14 5181   3.200   1.918   6.528  0.1673 -0.1664 -0.2121
   39POPC  H14A 5182   3.138   1.980   6.465  0.1436  2.1277  1.9526
   39POPC  H14B 5183   3.180   1.946   6.630  1.1645 -0.8703  0.1962
   39POPC  H14C 5184   3.303   1.950   6.517 -0.0365  1.3098  1.7545
   39POPC   C15 5185   3.044   1.725   6.533  0.5995 -0.9408  0.1242
   39POPC  H15A 5186   3.038   1.618   6.540  1.3014 -1.1780 -2.2004
   39POPC  H15B 5187   2.973   1.751   6.456  0.2470  3.4605  1.6348
   39POPC  H15C 5188   3.001   1.765   6.624  0.3325 -2.5638  0.7322
   39POPC   C11 5189   3.147   1.808   6.246  0.0649  0.2985 -0.5983
   39POPC  H11A 5190   3.198   1.776   6.152  1.0757 -0.1619  0.0936
   39POPC  H11B 5191   3.166   1.917   6.240  0.4472  0.2280 -0.7555
   39POPC     P 5192   2.954   1.637   6.199  0.3532  0.0165  0.0427
   39POPC   O13 5193   2.960   1.619   6.052 -0.4820  0.0541  0.2640
   39POPC   O14 5194   2.819   1.619   6.266 -0.7273  0.1256  0.5814
   39POPC   O12 5195   3.006   1.775   6.236  0.1345 -0.6344  0.3264
   39POPC   O11 5196   3.062   1.530   6.270 -0.1340  0.5674  1.1556
   39POPC    C1 5197   3.017   1.390   6.265 -0.4734 -0.2808  0.2176
   39POPC    HA 5198   3.071   1.340   6.182  0.1308 -0.7500  0.8820
   39POPC    HB 5199   2.909   1.381   6.238 -0.6564  0.3232  0.7240
   39POPC    C2 5200   3.049   1.318   6.399  0.5300  0.5644  0.2466
   39POPC    HS 5201   3.021   1.210   6.401 -1.0445  0.9404 -0.3241
   39POPC   O21 5202   2.986   1.383   6.511 -0.5628  0.8532 -0.1022
   39POPC   C21 5203   2.864   1.366   6.525  0.0104 -0.0717  0.0848
   39POPC   O22 5204   2.788   1.303   6.449 -0.5984  0.0053 -0.2482
   39POPC   C22 5205   2.808   1.429   6.657 -0.1232 -1.1038  0.3896
   39POPC   H2R 5206   2.721   1.491   6.629  1.0421 -0.2724 -1.6348
   39POPC   H2S 5207   2.886   1.500   6.693 -0.2560 -0.5267 -0.4360
   39POPC    C3 5208   3.205   1.320   6.415 -0.0216  0.3500 -0.0404
   39POPC    HX 5209   3.255   1.419   6.422  2.0944 -0.7398  1.1480
   39POPC    HY 5210   3.251   1.275   6.324  1.7258 -1.7552  1.7938
   39POPC   O31 5211   3.245   1.233   6.525 -0.3703 -0.1030 -0.3852
   39POPC   C31 5212   3.274   1.295   6.638 -0.0927 -0.0961  0.1872
   39POPC   O32 5213   3.242   1.412   6.659  0.1267 -0.2492  0.3707
   39POPC   C32 5214   3.309   1.192   6.744  1.0262  0.7242  0.6874
   39POPC   H2X 5215   3.226   1.120   6.761  0.1574  1.2558 -1.0458
   39POPC   H2Y 5216   3.398   1.134   6.709 -1.1245 -1.0715 -2.3261
   39POPC   C23 5217   2.790   1.324   6.765 -0.5095 -0.3491 -0.1302
   39POPC   H3R 5218   2.887   1.270   6.772 -1.5375 -2.6245 -2.1571
   39POPC   H3S 5219   2.718   1.246   6.733  0.6916 -0.5631 -2.5582
   39POPC   C24 5220   2.764   1.384   6.902 -0.3503 -0.5970  0.5127
   39POPC   H4R 5221   2.673   1.448   6.895 -0.1947 -0.5075 -0.9858
   39POPC   H4S 5222   2.847   1.445   6.943  0.2830 -1.3759  0.3996
   39POPC   C25 5223   2.725   1.278   7.000  0.4549  0.4951 -0.2618
   39POPC   H5R 5224   2.813   1.213   7.017 -1.0840 -1.6802 -0.1325
   39POPC   H5S 5225   2.640   1.216   6.963 -0.8315  1.4744  0.9741
   39POPC   C26 5226   2.697   1.335   7.140 -0.2740  0.6678  0.0896
   39POPC   H6R 5227   2.614   1.409   7.136 -1.8311 -1.0317 -2.8193
   39POPC   H6S 5228   2.789   1.383   7.178  1.5901 -1.2038 -1.8267
   39POPC   C27 5229   2.636   1.221   7.220  0.5542  0.6656  0.1909
   39POPC   H7R 5230   2.706   1.134   7.213  1.9618  1.6729  1.2150
   39POPC   H7S 5231   2.535   1.197   7.180  0.9647 -0.9712  0.0654
   39POPC   C28 5232   2.609   1.258   7.369  0.9146  0.0736 -0.1250
   39POPC   H8R 5233   2.505   1.227   7.393  1.5068 -1.5037  0.5214
   39POPC   H8S 5234   2.612   1.369   7.377 -1.0825  0.1110  0.6181
   39POPC   C29 5235   2.708   1.191   7.464 -0.7443  0.1067  0.3005
   39POPC   H91 5236   2.811   1.202   7.428 -1.2377 -0.6934 -1.4561
   39POPC  C210 5237   2.684   1.127   7.583 -0.1072  0.6458 -0.2517
   39POPC  H101 5238   2.755   1.085   7.656 -4.1806 -0.3719  3.5746
   39POPC  C211 5239   2.544   1.119   7.633 -0.0094  0.1376 -0.0915
   39POPC  H11R 5240   2.527   1.024   7.688 -1.3369  0.1800 -0.3796
   39POPC  H11S 5241   2.459   1.120   7.562 -1.2754  1.4232  1.3549
   39POPC  C212 5242   2.524   1.232   7.741  0.5031 -0.0119  0.9681
   39POPC  H12R 5243   2.416   1.227   7.765  0.5310 -2.8561  0.8514
   39POPC  H12S 5244   2.557   1.325   7.690  0.9559 -1.4499 -1.5845
   39POPC  C213 5245   2.601   1.210   7.871  0.0620 -0.7622 -0.3440
   39POPC  H13R 5246   2.711   1.211   7.856 -0.1731 -2.9599 -3.0736
   39POPC  H13S 5247   2.580   1.103   7.894  0.4339 -0.7428  0.1093
   39POPC  C214 5248   2.560   1.296   7.989 -0.8707  0.7680 -0.8492
   39POPC  H14R 5249   2.450   1.309   7.988 -0.7880  1.4992 -0.4998
   39POPC  H14S 5250   2.597   1.400   7.986  0.3344  0.5906  2.8700
   39POPC  C215 5251   2.623   1.248   8.126 -0.3121  0.6717 -0.1754
   39POPC  H15R 5252   2.728   1.228   8.095  0.2093 -1.1844  2.4847
   39POPC  H15S 5253   2.580   1.153   8.164  0.7895  0.7608  1.3542
   39POPC  C216 5254   2.616   1.358   8.238  0.2173 -0.5720 -0.4148
   39POPC  H16R 5255   2.516   1.406   8.230  0.6292  0.3263 -0.1807
   39POPC  H16S 5256   2.689   1.437   8.211  2.5151 -2.3568  0.2435
   39POPC  C217 5257   2.649   1.313   8.380  0.7227  0.1427  0.1831
   39POPC  H17R 5258   2.754   1.281   8.394  1.0022  1.3345  0.9276
   39POPC  H17S 5259   2.579   1.229   8.396  0.7874 -1.0463 -4.3450
   39POPC  C218 5260   2.637   1.437   8.476  0.3204  0.3948  0.9282
   39POPC  H18R 5261   2.697   1.424   8.569  0.4387 -0.6948  0.7018
   39POPC  H18S 5262   2.529   1.460   8.492  0.3470  2.6171 -1.3648
   39POPC  H18T 5263   2.665   1.528   8.418 -1.7505 -1.5146 -3.5276
   39POPC   C33 5264   3.345   1.250   6.887  0.2630  0.3000 -0.4098
   39POPC   H3X 5265   3.338   1.167   6.960  0.0463 -1.0741 -1.9508
   39POPC   H3Y 5266   3.269   1.328   6.910 -0.2906  0.3554 -2.2609
   39POPC   C34 5267   3.481   1.320   6.884  0.3141 -0.1704  0.8668
   39POPC   H4X 5268   3.470   1.411   6.822 -1.5994  1.7075  3.7425
   39POPC   H4Y 5269   3.560   1.256   6.838 -0.1078 -0.0445 -0.0576
   39POPC   C35 5270   3.532   1.350   7.024  0.1050  0.0558  1.0182
   39POPC   H5X 5271   3.527   1.253   7.077  0.2713 -1.5611 -1.7411
   39POPC   H5Y 5272   3.465   1.427   7.067 -1.0569  0.2744 -1.0167
   39POPC   C36 5273   3.682   1.399   7.005  0.7184  0.2028 -0.0919
   39POPC   H6X 5274   3.688   1.471   6.921  0.0594  3.2296  2.2658
   39POPC   H6Y 5275   3.740   1.306   6.987  2.3448  1.0460  0.5581
   39POPC   C37 5276   3.739   1.455   7.134  0.3753 -0.1582 -0.0277
   39POPC   H7X 5277   3.678   1.533   7.184  1.8476  1.8979 -1.2909
   39POPC   H7Y 5278   3.836   1.500   7.106 -0.3815  1.5392 -0.0469
   39POPC   C38 5279   3.778   1.347   7.241 -0.4168 -0.0289  0.4436
   39POPC   H8X 5280   3.845   1.268   7.202 -1.3633 -0.3342 -0.6148
   39POPC   H8Y 5281   3.684   1.302   7.279 -0.1050  0.2669  1.5869
   39POPC   C39 5282   3.840   1.411   7.369  0.5638  0.6837 -0.5708
   39POPC   H9X 5283   3.781   1.506   7.376  0.1249  0.3687  0.0699
   39POPC   H9Y 5284   3.936   1.460   7.341 -0.1613  1.4429 -1.8338
   39POPC  C310 5285   3.847   1.319   7.492 -0.7533 -0.4295 -0.1700
   39POPC  H10X 5286   3.891   1.223   7.458 -0.2512 -0.6121  0.9392
   39POPC  H10Y 5287   3.740   1.292   7.505 -1.3485  0.1361 -3.1935
   39POPC  C311 5288   3.913   1.363   7.621  0.2456 -0.0772 -0.3953
   39POPC  H11X 5289   4.020   1.386   7.603  1.3406 -2.4037  2.3348
   39POPC  H11Y 5290   3.920   1.284   7.698  2.0477  0.3786 -0.0511
   39POPC  C312 5291   3.844   1.490   7.679  0.3865 -0.7250  0.2776
   39POPC  H12X 5292   3.740   1.451   7.688  0.3203 -0.2796  1.6230
   39POPC  H12Y 5293   3.844   1.576   7.609 -1.8645 -1.2356 -0.4345
   39POPC  C313 5294   3.890   1.526   7.824 -0.0472 -0.2098 -0.2659
   39POPC  H13X 5295   4.001   1.536   7.823  0.3050 -3.1859 -0.9593
   39POPC  H13Y 5296   3.859   1.440   7.888  0.7673 -1.6031 -1.6755
   39POPC  C314 5297   3.841   1.654   7.883  0.0601  0.2940 -0.1365
   39POPC  H14X 5298   3.731   1.659   7.875 -0.1476 -0.6320  1.6943
   39POPC  H14Y 5299   3.893   1.733   7.824  1.7966  0.5433  1.5971
   39POPC  C315 5300   3.883   1.674   8.030 -0.3983 -0.1050  0.5108
   39POPC  H15X 5301   3.987   1.639   8.046 -0.4250  0.6858  2.7651
   39POPC  H15Y 5302   3.823   1.605   8.094 -1.0970 -0.3272 -0.3573
   39POPC  C316 5303   3.865   1.813   8.088  0.3206 -0.0386 -0.3685
   39POPC  H16X 5304   3.766   1.857   8.060 -0.3009 -1.7167 -0.9218
   39POPC  H16Y 5305   3.934   1.885   8.038 -0.1583  2.4335  2.3063
   39POPC  H16Z 5306   3.860   1.829   8.197 -2.3867  0.5620 -0.5019
   40POPC     N 5307   0.737   6.381   5.991  0.0645 -0.4284  0.4635
   40POPC   C12 5308   0.856   6.453   6.041  0.5310 -0.4516  1.3499
   40POPC  H12A 5309   0.874   6.518   5.957  2.5180 -1.5489  0.8570
   40POPC  H12B 5310   0.946   6.393   6.037  0.1702 -0.9410 -0.3052
   40POPC   C13 5311   0.626   6.474   5.949 -0.0260  0.1260  0.2156
   40POPC  H13A 5312   0.655   6.533   5.863 -1.7715  0.8243  0.0641
   40POPC  H13B 5313   0.534   6.429   5.915 -1.2039  1.4754  1.5088
   40POPC  H13C 5314   0.595   6.539   6.028 -0.9583 -1.2807  1.0536
   40POPC   C14 5315   0.775   6.297   5.868 -0.0813  0.5306  0.0779
   40POPC  H14A 5316   0.696   6.237   5.826 -0.3492  0.1960  1.0284
   40POPC  H14B 5317   0.806   6.356   5.783 -0.2291 -0.0334 -0.3768
   40POPC  H14C 5318   0.853   6.224   5.885 -0.7469 -0.1568  0.2236
   40POPC   C15 5319   0.694   6.282   6.093  0.5818 -0.9285 -0.3461
   40POPC  H15A 5320   0.775   6.214   6.117  0.5921  0.2778  3.8116
   40POPC  H15B 5321   0.618   6.221   6.045 -0.1805 -0.7981  0.6483
   40POPC  H15C 5322   0.649   6.331   6.178 -0.2671  1.5497 -2.0982
   40POPC   C11 5323   0.828   6.528   6.169  0.3337 -0.3616  0.4895
   40POPC  H11A 5324   0.775   6.470   6.248 -1.9760 -0.3844 -0.9966
   40POPC  H11B 5325   0.755   6.608   6.147  0.1227 -0.1489  1.8585
   40POPC     P 5326   1.037   6.513   6.317 -0.4101 -0.2576  0.0208
   40POPC   O13 5327   1.138   6.606   6.369 -0.1205  0.3419 -0.3359
   40POPC   O14 5328   1.088   6.379   6.272 -0.0245 -0.6836  0.1337
   40POPC   O12 5329   0.955   6.582   6.206  0.2985  0.0258 -0.0342
   40POPC   O11 5330   0.923   6.488   6.430  0.0847  0.1390  0.2681
   40POPC    C1 5331   0.842   6.599   6.470  0.2370 -0.2291 -0.2606
   40POPC    HA 5332   0.771   6.625   6.389  1.2079 -1.4780 -1.5532
   40POPC    HB 5333   0.913   6.682   6.490  1.0042 -1.2021  1.3624
   40POPC    C2 5334   0.762   6.558   6.597  0.1050 -0.3489 -0.0720
   40POPC    HS 5335   0.701   6.644   6.629 -0.7330 -1.1000  0.4106
   40POPC   O21 5336   0.862   6.531   6.701  0.1713  0.0443 -0.7647
   40POPC   C21 5337   0.936   6.626   6.754 -0.2819  0.0244  0.1325
   40POPC   O22 5338   0.928   6.746   6.721  1.3022  0.1335  0.0314
   40POPC   C22 5339   1.034   6.584   6.867 -0.0389  0.0377  0.5178
   40POPC   H2R 5340   1.005   6.646   6.954 -1.0564 -1.8003  1.5418
   40POPC   H2S 5341   1.141   6.600   6.842  0.0390 -1.8321 -0.5474
   40POPC    C3 5342   0.677   6.434   6.577  0.1900 -0.6850  0.2100
   40POPC    HX 5343   0.742   6.348   6.549  1.1693  0.4128 -1.0231
   40POPC    HY 5344   0.609   6.459   6.493  0.3812  0.6362  0.4267
   40POPC   O31 5345   0.590   6.409   6.688 -0.3673  0.0503  0.3652
   40POPC   C31 5346   0.604   6.290   6.745  0.6834  0.2993  0.0912
   40POPC   O32 5347   0.688   6.206   6.723  0.0483 -0.0375 -0.6055
   40POPC   C32 5348   0.499   6.270   6.849  0.0823 -0.3885  0.1482
   40POPC   H2X 5349   0.393   6.268   6.815 -0.1361  0.6021  0.7263
   40POPC   H2Y 5350   0.510   6.353   6.922  1.3808  0.3533 -0.8444
   40POPC   C23 5351   1.017   6.430   6.900  0.7902 -0.4811 -0.0794
   40POPC   H3R 5352   1.051   6.374   6.810  1.3986 -0.4469  0.1252
   40POPC   H3S 5353   0.911   6.400   6.907  0.5206 -0.1087 -1.9532
   40POPC   C24 5354   1.093   6.369   7.017 -0.2912 -0.1170 -0.0237
   40POPC   H4R 5355   1.202   6.389   7.017 -0.6859  2.5340  1.1017
   40POPC   H4S 5356   1.077   6.259   7.010  0.8770 -0.2556 -0.7752
   40POPC   C25 5357   1.034   6.404   7.159  0.2269  0.1589 -0.0016
   40POPC   H5R 5358   0.924   6.393   7.157  0.3053 -0.5204 -0.6862
   40POPC   H5S 5359   1.058   6.511   7.180 -0.7177  0.1434  1.2732
   40POPC   C26 5360   1.094   6.329   7.274  0.3192  0.4096 -0.3790
   40POPC   H6R 5361   1.204   6.346   7.277  0.4373 -0.3330  2.3311
   40POPC   H6S 5362   1.085   6.218   7.268 -1.6012  0.5171 -0.1327
   40POPC   C27 5363   1.048   6.377   7.422 -0.0059 -0.3447  0.7346
   40POPC   H7R 5364   0.958   6.316   7.443  0.1411 -0.6988  0.3474
   40POPC   H7S 5365   1.019   6.484   7.419 -1.6175 -0.7697  0.4661
   40POPC   C28 5366   1.159   6.369   7.533 -0.7831 -0.5240 -0.9039
   40POPC   H8R 5367   1.112   6.396   7.630  0.8475 -0.9737  0.0452
   40POPC   H8S 5368   1.238   6.444   7.517 -1.5353  0.0561 -2.1140
   40POPC   C29 5369   1.210   6.228   7.538  0.1170  0.8624 -0.4993
   40POPC   H91 5370   1.249   6.190   7.443  0.0951 -1.4350  0.3628
   40POPC  C210 5371   1.185   6.140   7.637 -0.0842  0.2058 -0.0792
   40POPC  H101 5372   1.214   6.035   7.627  0.2362  0.3903 -1.2013
   40POPC  C211 5373   1.108   6.172   7.769  0.1502  0.1873  0.6263
   40POPC  H11R 5374   1.011   6.119   7.766  0.3366 -0.1189 -0.6978
   40POPC  H11S 5375   1.088   6.280   7.787  1.5204  0.0673  3.2752
   40POPC  C212 5376   1.185   6.125   7.897 -0.1003 -0.6096 -0.0408
   40POPC  H12R 5377   1.217   6.019   7.888  0.8332 -0.1968 -2.1536
   40POPC  H12S 5378   1.111   6.129   7.980  0.3897 -0.6230  0.4045
   40POPC  C213 5379   1.299   6.219   7.950 -0.1537 -0.1662  0.5521
   40POPC  H13R 5380   1.251   6.319   7.957 -0.7311 -0.3947 -0.0681
   40POPC  H13S 5381   1.368   6.235   7.865 -1.8284 -1.4664 -1.1488
   40POPC  C214 5382   1.354   6.169   8.077 -0.5682  0.4126  0.1418
   40POPC  H14R 5383   1.384   6.066   8.046  3.2295  1.9389 -1.8702
   40POPC  H14S 5384   1.279   6.155   8.159  1.0637  0.2323  1.6640
   40POPC  C215 5385   1.463   6.259   8.129 -0.5020  0.2104 -0.2951
   40POPC  H15R 5386   1.439   6.367   8.135  0.7616  0.4909  6.0840
   40POPC  H15S 5387   1.549   6.244   8.061 -0.4109  1.0789 -0.3814
   40POPC  C216 5388   1.512   6.225   8.273  0.1489  0.0538  0.1830
   40POPC  H16R 5389   1.428   6.226   8.346  1.9024  0.4972  2.3120
   40POPC  H16S 5390   1.587   6.300   8.308  1.6903 -1.7069  0.8302
   40POPC  C217 5391   1.595   6.094   8.281  0.1260  0.3494 -0.3318
   40POPC  H17R 5392   1.660   6.085   8.191 -0.1199  0.5115 -0.5280
   40POPC  H17S 5393   1.522   6.010   8.275  1.5558 -0.8688 -1.7159
   40POPC  C218 5394   1.663   6.080   8.420  0.0273  0.2684  0.7286
   40POPC  H18R 5395   1.753   6.142   8.440  1.8684 -1.4326 -1.7698
   40POPC  H18S 5396   1.690   5.976   8.446  0.9790  0.3378  0.0666
   40POPC  H18T 5397   1.584   6.093   8.497  0.1721 -0.0837  0.9367
   40POPC   C33 5398   0.508   6.139   6.931 -0.9997  0.6235  0.2660
   40POPC   H3X 5399   0.617   6.123   6.945 -0.7145  1.3021 -1.0563
   40POPC   H3Y 5400   0.461   6.052   6.879  0.6208 -0.3012  0.2807
   40POPC   C34 5401   0.431   6.140   7.064  0.2295  1.1104 -0.8518
   40POPC   H4X 5402   0.322   6.138   7.043  0.3719  2.6309 -1.8207
   40POPC   H4Y 5403   0.456   6.231   7.122  2.6861 -1.1484  1.9931
   40POPC   C35 5404   0.472   6.014   7.136 -1.1202 -0.2265  0.3976
   40POPC   H5X 5405   0.583   6.009   7.139 -1.1446 -0.4562  1.5865
   40POPC   H5Y 5406   0.428   5.925   7.087 -0.0140 -0.2879 -0.5173
   40POPC   C36 5407   0.413   5.992   7.281 -0.3715  0.6347 -0.2178
   40POPC   H6X 5408   0.449   5.892   7.314  0.5750 -0.0554 -3.1115
   40POPC   H6Y 5409   0.303   6.001   7.284 -0.3919  0.2593  0.9620
   40POPC   C37 5410   0.464   6.092   7.392  1.4763 -0.3599  0.3218
   40POPC   H7X 5411   0.452   6.201   7.372  0.8190 -0.6120 -0.7301
   40POPC   H7Y 5412   0.571   6.069   7.413  2.2505  2.6222  0.0448
   40POPC   C38 5413   0.393   6.078   7.530  0.2252  0.3112 -0.7274
   40POPC   H8X 5414   0.390   5.971   7.562 -0.3710  0.3429 -0.6723
   40POPC   H8Y 5415   0.290   6.117   7.518  0.7461  2.0296  0.0968
   40POPC   C39 5416   0.468   6.167   7.631 -0.1430 -0.2984  0.6142
   40POPC   H9X 5417   0.437   6.269   7.601 -1.2834 -0.2293  1.9232
   40POPC   H9Y 5418   0.578   6.154   7.621  0.2440  2.2952  1.0062
   40POPC  C310 5419   0.414   6.145   7.780 -0.3974  0.3408 -0.7109
   40POPC  H10X 5420   0.304   6.157   7.775 -0.4608 -0.3902 -1.1480
   40POPC  H10Y 5421   0.466   6.225   7.837 -0.5161 -0.1754  0.1379
   40POPC  C311 5422   0.450   6.009   7.841  0.5054 -0.5900 -0.6801
   40POPC  H11X 5423   0.560   6.005   7.855  0.4509 -1.3631 -0.4630
   40POPC  H11Y 5424   0.414   5.932   7.770 -2.4126  0.6514 -0.7069
   40POPC  C312 5425   0.391   5.990   7.988  0.5224 -0.0897  0.1103
   40POPC  H12X 5426   0.283   6.001   7.966  0.7614  2.0397 -0.1418
   40POPC  H12Y 5427   0.421   6.071   8.058  0.0293 -0.4370  0.7315
   40POPC  C313 5428   0.411   5.840   8.024 -0.5711  0.3101  0.2883
   40POPC  H13X 5429   0.518   5.829   8.047 -0.6298 -0.8788  0.0541
   40POPC  H13Y 5430   0.387   5.771   7.940  1.1661 -0.1742  0.1699
   40POPC  C314 5431   0.349   5.794   8.157 -0.2188  0.3522 -0.0790
   40POPC  H14X 5432   0.384   5.691   8.180  0.2145  0.5139 -0.0064
   40POPC  H14Y 5433   0.239   5.780   8.147 -0.5451  2.6478 -0.2542
   40POPC  C315 5434   0.377   5.888   8.279  0.7099  0.3860  0.7175
   40POPC  H15X 5435   0.336   5.990   8.267  1.4469  0.5293 -0.8283
   40POPC  H15Y 5436   0.487   5.897   8.290  0.7686 -1.4061  2.0479
   40POPC  C316 5437   0.329   5.825   8.415 -0.3036  0.3778 -0.0243
   40POPC  H16X 5438   0.346   5.897   8.498 -0.3127 -0.6871  0.9466
   40POPC  H16Y 5439   0.381   5.729   8.440 -1.9347 -0.8062 -0.9560
   40POPC  H16Z 5440   0.219   5.807   8.411 -0.1553 -0.3301 -1.7413
   41CHL1    C3 5441   6.307   2.449  10.129  0.2728 -0.5937 -0.8713
   41CHL1    H3 5442   6.202   2.487  10.133  0.1280 -0.9077 -1.6096
   41CHL1    O3 5443   6.355   2.439  10.264  0.0632  0.8849  0.3395
   41CHL1   H3' 5444   6.445   2.407  10.255 -0.0579  0.2529  1.2610
   41CHL1    C4 5445   6.303   2.316  10.059  0.0391 -0.5949  0.9829
   41CHL1   H4A 5446   6.404   2.270  10.055 -0.1701 -0.9688 -0.0768
   41CHL1   H4B 5447   6.236   2.257  10.125 -1.4871  0.0974  0.0949
   41CHL1    C5 5448   6.250   2.324   9.914  0.4140  0.0231  1.0071
   41CHL1    C6 5449   6.164   2.236   9.869  0.4799  0.3346  0.1885
   41CHL1    H6 5450   6.112   2.171   9.941 -2.7731  1.5007 -0.9129
   41CHL1    C7 5451   6.120   2.235   9.721  0.4060  0.5199 -0.4299
   41CHL1   H7A 5452   6.116   2.129   9.688  1.7601  0.2203  0.2765
   41CHL1   H7B 5453   6.017   2.277   9.714  0.4700  0.4229 -2.3011
   41CHL1    C8 5454   6.204   2.327   9.628  0.3392  0.0674  0.0478
   41CHL1    H8 5455   6.300   2.276   9.605  1.5395  2.5760 -0.9055
   41CHL1   C14 5456   6.134   2.356   9.492 -0.0114 -0.2950  0.4397
   41CHL1   H14 5457   6.043   2.417   9.512 -0.5718 -0.9420 -0.0989
   41CHL1   C15 5458   6.069   2.243   9.418  0.7440 -1.4147  0.0526
   41CHL1  H15A 5459   6.146   2.167   9.393  0.7511 -0.9918 -1.2647
   41CHL1  H15B 5460   5.975   2.197   9.455  0.0974 -1.0052 -1.0303
   41CHL1   C16 5461   6.032   2.321   9.280  0.2800  0.5242 -0.0303
   41CHL1  H16A 5462   6.055   2.246   9.202 -0.8330 -1.4812  1.4617
   41CHL1  H16B 5463   5.925   2.344   9.262 -0.0769 -2.1058 -1.8830
   41CHL1   C17 5464   6.117   2.448   9.277  1.2490  0.4936 -0.5533
   41CHL1   H17 5465   6.047   2.526   9.315  0.7979  1.3048 -2.8523
   41CHL1   C13 5466   6.220   2.438   9.393 -0.1127 -0.2861 -0.4285
   41CHL1   C18 5467   6.349   2.377   9.350  0.1332 -0.2173 -0.5478
   41CHL1  H18A 5468   6.330   2.279   9.300 -1.5328  0.5038 -1.4258
   41CHL1  H18B 5469   6.421   2.436   9.290 -0.1135 -0.7581 -1.3842
   41CHL1  H18C 5470   6.403   2.366   9.446  0.1578  2.1689 -0.2153
   41CHL1   C12 5471   6.239   2.571   9.463 -0.6740  0.7470  0.8947
   41CHL1  H12A 5472   6.285   2.645   9.395 -0.9752 -0.2560 -0.4314
   41CHL1  H12B 5473   6.142   2.610   9.499 -1.4116 -1.2684  1.2241
   41CHL1   C11 5474   6.311   2.560   9.594  0.1774  0.0603  0.2606
   41CHL1  H11A 5475   6.411   2.516   9.571  1.3422  2.7882 -0.2141
   41CHL1  H11B 5476   6.322   2.660   9.640  0.9744  1.4119 -2.6348
   41CHL1    C9 5477   6.245   2.459   9.695 -0.6141  0.2561 -0.3772
   41CHL1    H9 5478   6.159   2.518   9.734  0.0040  0.6034  0.4934
   41CHL1   C10 5479   6.319   2.438   9.835  0.3546 -0.0534  0.0224
   41CHL1   C19 5480   6.462   2.403   9.796  0.1652  0.2557 -0.3408
   41CHL1  H19A 5481   6.509   2.338   9.872 -2.1032 -1.0076  0.0817
   41CHL1  H19B 5482   6.470   2.361   9.694 -2.2419 -1.9830  0.2983
   41CHL1  H19C 5483   6.515   2.500   9.785  2.0691 -0.7785 -0.7035
   41CHL1    C1 5484   6.308   2.577   9.920  0.6012 -0.2706 -0.3728
   41CHL1   H1A 5485   6.364   2.661   9.872  0.1391 -0.5835 -1.4984
   41CHL1   H1B 5486   6.203   2.604   9.942  1.1656  1.5228  0.3374
   41CHL1    C2 5487   6.380   2.560  10.053 -0.5097 -0.5832  1.2948
   41CHL1   H2A 5488   6.371   2.654  10.112  0.1680  0.3295 -0.0070
   41CHL1   H2B 5489   6.487   2.534  10.039 -0.1842  1.8975 -2.0454
   41CHL1   C20 5490   6.161   2.495   9.137 -0.1657 -0.0264  0.1181
   41CHL1   H20 5491   6.222   2.416   9.088  0.3522  0.2680  0.2779
   41CHL1   C21 5492   6.246   2.621   9.141  0.3761 -0.1195 -0.8054
   41CHL1  H21A 5493   6.281   2.649   9.039 -0.5057  1.5114 -0.6774
   41CHL1  H21B 5494   6.339   2.607   9.200  0.0323  2.8022  0.5882
   41CHL1  H21C 5495   6.185   2.703   9.184  2.2058  0.3993  0.9363
   41CHL1   C22 5496   6.039   2.513   9.042  0.0987  0.1734  0.2612
   41CHL1  H22A 5497   5.979   2.420   9.033  2.6837 -1.4529 -1.6152
   41CHL1  H22B 5498   5.963   2.586   9.078  2.4399  2.6153  0.5566
   41CHL1   C23 5499   6.084   2.554   8.895  0.2074 -0.5653 -0.5246
   41CHL1  H23A 5500   6.079   2.665   8.886 -0.3516 -0.5055  0.3926
   41CHL1  H23B 5501   6.186   2.514   8.881  0.6832  0.9506 -1.6835
   41CHL1   C24 5502   5.998   2.496   8.780 -0.3080 -0.1377 -0.5528
   41CHL1  H24A 5503   5.965   2.393   8.804 -2.5444  0.9800  1.6813
   41CHL1  H24B 5504   5.906   2.558   8.792  0.9456  1.2956  3.3351
   41CHL1   C25 5505   6.054   2.509   8.645  0.1398 -0.0462  0.2528
   41CHL1   H25 5506   6.161   2.482   8.656  0.3404  0.0193 -1.3882
   41CHL1   C26 5507   5.994   2.412   8.544  0.7167 -0.2588  0.2056
   41CHL1  H26A 5508   5.898   2.456   8.509 -0.0621 -1.4718  0.7829
   41CHL1  H26B 5509   6.056   2.398   8.452 -2.3885 -0.2269 -2.0564
   41CHL1  H26C 5510   5.979   2.311   8.586 -1.3664  1.0094  2.7732
   41CHL1   C27 5511   6.057   2.645   8.580 -0.1403  0.6082  0.2058
   41CHL1  H27A 5512   6.105   2.716   8.650 -5.0237  1.5256  3.1037
   41CHL1  H27B 5513   6.125   2.659   8.493 -1.1766  2.2465 -0.3975
   41CHL1  H27C 5514   5.956   2.692   8.572 -0.6429 -0.5017 -0.2449
   42CHL1    C3 5515   5.261   2.615   9.796 -0.3083  0.4110 -0.9081
   42CHL1    H3 5516   5.309   2.715   9.803 -0.0898  0.4239 -2.3446
   42CHL1    O3 5517   5.275   2.545   9.921  0.0316 -0.0742  0.1765
   42CHL1   H3' 5518   5.196   2.565   9.972  0.7560 -2.2671  2.3267
   42CHL1    C4 5519   5.115   2.643   9.776  0.6369  0.0726  0.6569
   42CHL1   H4A 5520   5.058   2.548   9.778 -0.6306  0.8227  2.0883
   42CHL1   H4B 5521   5.083   2.709   9.860  1.7885  0.4263  0.8374
   42CHL1    C5 5522   5.099   2.702   9.637  0.3684  0.1633  0.7097
   42CHL1    C6 5523   5.026   2.815   9.635  0.6923  0.1970 -0.2144
   42CHL1    H6 5524   4.991   2.850   9.733 -1.8640 -4.4355  0.8519
   42CHL1    C7 5525   5.005   2.886   9.512 -0.3750 -0.6979 -0.3723
   42CHL1   H7A 5526   4.899   2.912   9.491 -0.3822 -0.9051 -0.5993
   42CHL1   H7B 5527   5.046   2.989   9.518 -1.7322 -0.0178 -1.7912
   42CHL1    C8 5528   5.049   2.816   9.379  0.1087  0.0513 -0.4086
   42CHL1    H8 5529   4.965   2.753   9.342 -0.1479  1.9124 -3.3250
   42CHL1   C14 5530   5.069   2.923   9.276  1.2714  0.2343 -0.1683
   42CHL1   H14 5531   5.155   2.986   9.309  1.3180  1.0191 -1.6993
   42CHL1   C15 5532   4.963   3.033   9.254  0.4329  0.1701  0.7758
   42CHL1  H15A 5533   4.862   2.988   9.255  0.4992 -0.0863 -0.9454
   42CHL1  H15B 5534   4.975   3.121   9.321  2.0433 -0.4534  1.3449
   42CHL1   C16 5535   4.986   3.085   9.107  0.4507  0.6200 -0.0200
   42CHL1  H16A 5536   4.902   3.053   9.042  1.1454 -1.0977 -0.1222
   42CHL1  H16B 5537   4.989   3.195   9.097 -2.9953  0.7365 -0.9423
   42CHL1   C17 5538   5.117   3.010   9.061  0.4014 -0.4415 -0.1828
   42CHL1   H17 5539   5.205   3.063   9.104 -0.5975  0.0200  1.3621
   42CHL1   C13 5540   5.113   2.876   9.135 -0.6786  0.1052 -0.5771
   42CHL1   C18 5541   5.010   2.772   9.075  0.1333  0.2609 -0.2122
   42CHL1  H18A 5542   5.052   2.748   8.975 -0.0645  0.2781 -0.2987
   42CHL1  H18B 5543   4.998   2.676   9.130 -1.8504 -1.6848 -3.6873
   42CHL1  H18C 5544   4.907   2.812   9.060  0.7209  1.0242 -2.6634
   42CHL1   C12 5545   5.250   2.807   9.159 -0.2240 -0.7823 -0.8439
   42CHL1  H12A 5546   5.291   2.759   9.067  1.7347 -1.1415  0.1660
   42CHL1  H12B 5547   5.330   2.877   9.190 -1.0772 -0.3603  0.4581
   42CHL1   C11 5548   5.246   2.699   9.267  0.0657  0.0529  0.6148
   42CHL1  H11A 5549   5.186   2.611   9.236 -0.7795  1.1645 -1.0324
   42CHL1  H11B 5550   5.346   2.658   9.294  0.1356 -1.8804 -2.1450
   42CHL1    C9 5551   5.182   2.741   9.399  0.2408 -0.2141 -0.0341
   42CHL1    H9 5552   5.251   2.821   9.434  0.3632  1.5327 -3.8276
   42CHL1   C10 5553   5.166   2.631   9.512 -0.3303 -0.8107  0.1763
   42CHL1   C19 5554   5.079   2.521   9.454  0.0675  0.3956  0.2867
   42CHL1  H19A 5555   5.053   2.451   9.535 -3.0476  0.5944 -0.3936
   42CHL1  H19B 5556   4.985   2.565   9.413  0.0652 -1.5890 -2.0687
   42CHL1  H19C 5557   5.128   2.466   9.371  0.3045  0.4242  0.4060
   42CHL1    C1 5558   5.304   2.584   9.551  0.5570  0.0810  0.0504
   42CHL1   H1A 5559   5.329   2.519   9.464 -2.1534 -1.7287  0.4858
   42CHL1   H1B 5560   5.376   2.668   9.547  0.6969 -0.0724 -0.9133
   42CHL1    C2 5561   5.306   2.517   9.689 -0.4975 -0.7126  0.3281
   42CHL1   H2A 5562   5.408   2.480   9.712 -1.3270 -2.6424  1.1586
   42CHL1   H2B 5563   5.250   2.421   9.683 -0.7963 -0.4492 -2.2913
   42CHL1   C20 5564   5.147   3.014   8.909  0.0516  0.3327 -0.5768
   42CHL1   H20 5565   5.095   2.931   8.858 -1.5705  0.2901  1.0141
   42CHL1   C21 5566   5.299   3.005   8.896 -0.2443  0.6100 -0.0378
   42CHL1  H21A 5567   5.328   3.003   8.789 -1.2374 -1.4656 -0.3131
   42CHL1  H21B 5568   5.329   2.909   8.944  0.6627  1.4541  1.1597
   42CHL1  H21C 5569   5.353   3.090   8.945  1.3952  0.6219 -1.7532
   42CHL1   C22 5570   5.108   3.150   8.854 -0.3003  0.2601  0.4959
   42CHL1  H22A 5571   4.997   3.156   8.851 -0.2872  0.1494 -1.6824
   42CHL1  H22B 5572   5.148   3.231   8.919 -0.7239  1.4565 -0.6826
   42CHL1   C23 5573   5.147   3.165   8.706 -0.1611  0.6496  0.4111
   42CHL1  H23A 5574   5.257   3.162   8.690 -0.4409  0.9287 -1.9236
   42CHL1  H23B 5575   5.104   3.084   8.643  0.3367  2.0459 -1.8297
   42CHL1   C24 5576   5.107   3.302   8.634 -0.3256 -0.3282 -0.0784
   42CHL1  H24A 5577   4.999   3.291   8.613 -0.5690  1.0294  0.3607
   42CHL1  H24B 5578   5.111   3.399   8.688 -1.8366  0.6465 -1.6232
   42CHL1   C25 5579   5.185   3.333   8.503  0.2459  0.6038  0.3309
   42CHL1   H25 5580   5.185   3.243   8.438 -2.3979 -0.0939  1.1460
   42CHL1   C26 5581   5.096   3.433   8.424 -0.0973 -0.0413  0.1100
   42CHL1  H26A 5582   4.998   3.386   8.401 -0.2454 -0.7087  1.9391
   42CHL1  H26B 5583   5.076   3.523   8.487  1.3736 -0.4378  1.1897
   42CHL1  H26C 5584   5.134   3.468   8.326  0.4140  0.5082  0.4949
   42CHL1   C27 5585   5.323   3.388   8.524  0.0152  0.4391 -0.1938
   42CHL1  H27A 5586   5.323   3.460   8.609 -0.6899  2.2797 -1.6823
   42CHL1  H27B 5587   5.392   3.306   8.552  0.8983  0.7940 -1.2648
   42CHL1  H27C 5588   5.364   3.434   8.432  0.7947  0.3366  0.0973
   43CHL1    C3 5589   0.132   2.144   9.933 -0.3751 -0.0065 -0.4144
   43CHL1    H3 5590   0.181   2.242   9.915  1.3237 -0.9933 -1.5149
   43CHL1    O3 5591   0.111   2.112  10.072  0.3410 -0.5076  0.1305
   43CHL1   H3' 5592   0.076   2.023  10.070 -0.2590 -0.2885 -1.9207
   43CHL1    C4 5593  -0.003   2.130   9.854 -0.5131  0.1245 -0.3650
   43CHL1   H4A 5594  -0.033   2.024   9.873  1.2643 -0.4342 -0.5010
   43CHL1   H4B 5595  -0.069   2.202   9.907  0.0645  0.3296  0.0919
   43CHL1    C5 5596   0.018   2.159   9.702 -0.3641  1.3095 -0.3570
   43CHL1    C6 5597  -0.051   2.253   9.646 -0.0740  0.0750  0.5797
   43CHL1    H6 5598  -0.123   2.311   9.705 -1.1986 -1.0796  0.3891
   43CHL1    C7 5599  -0.026   2.301   9.510 -0.7763 -0.7515  0.2275
   43CHL1   H7A 5600  -0.115   2.332   9.451  0.2034  0.5264 -0.6610
   43CHL1   H7B 5601   0.055   2.377   9.510 -0.3821 -1.1706  0.5364
   43CHL1    C8 5602   0.047   2.186   9.426 -0.1456  0.8033 -0.0629
   43CHL1    H8 5603  -0.035   2.117   9.398 -1.2937  2.3666 -0.7301
   43CHL1   C14 5604   0.092   2.229   9.288 -0.5624 -0.6667  0.7392
   43CHL1   H14 5605   0.167   2.307   9.312 -1.3411  0.0693  0.8363
   43CHL1   C15 5606  -0.012   2.308   9.214  0.4836  0.8523  0.4338
   43CHL1  H15A 5607  -0.110   2.258   9.207  0.2878  1.3961 -0.9851
   43CHL1  H15B 5608  -0.037   2.406   9.262 -0.8840  0.8228 -0.1808
   43CHL1   C16 5609   0.062   2.325   9.078  0.0967 -0.0574  0.2844
   43CHL1  H16A 5610  -0.018   2.299   9.005  1.0743  0.5308 -1.0211
   43CHL1  H16B 5611   0.093   2.427   9.048 -0.2333  0.0246  0.2174
   43CHL1   C17 5612   0.193   2.238   9.078 -0.2341  0.6196  0.4363
   43CHL1   H17 5613   0.271   2.306   9.119  0.5467  0.4468 -0.7358
   43CHL1   C13 5614   0.161   2.133   9.191 -0.1506 -1.0282 -0.0352
   43CHL1   C18 5615   0.059   2.030   9.137 -0.2844 -0.4230  0.1175
   43CHL1  H18A 5616  -0.034   2.078   9.103  1.5728  1.8797 -2.0433
   43CHL1  H18B 5617   0.110   1.974   9.055  0.2084 -0.0581  0.1669
   43CHL1  H18C 5618   0.028   1.952   9.211  0.5684 -0.5448  0.3615
   43CHL1   C12 5619   0.279   2.067   9.266  0.4127 -0.5319 -0.1308
   43CHL1  H12A 5620   0.314   1.985   9.199 -1.4256 -0.0157 -1.8010
   43CHL1  H12B 5621   0.366   2.134   9.286  0.0060 -0.9815  4.0806
   43CHL1   C11 5622   0.234   2.007   9.392  0.1593  0.4749 -0.2893
   43CHL1  H11A 5623   0.173   1.915   9.377  1.6950 -0.1750 -3.1850
   43CHL1  H11B 5624   0.329   1.971   9.437  0.2649 -1.4106 -1.8747
   43CHL1    C9 5625   0.167   2.113   9.493  0.0624 -0.4728  0.9843
   43CHL1    H9 5626   0.237   2.198   9.503 -1.4061  0.8483  0.4206
   43CHL1   C10 5627   0.128   2.064   9.635  0.9782  0.0752 -0.4193
   43CHL1   C19 5628   0.080   1.921   9.628 -0.1403  0.4711  1.1803
   43CHL1  H19A 5629   0.171   1.864   9.600  0.7574  0.6707  3.4345
   43CHL1  H19B 5630   0.051   1.882   9.729 -5.1890 -0.7790 -0.4536
   43CHL1  H19C 5631  -0.009   1.894   9.568  0.1871 -1.7795  1.5939
   43CHL1    C1 5632   0.254   2.075   9.729 -0.1901 -1.1043 -0.6502
   43CHL1   H1A 5633   0.336   2.012   9.687  1.2721  1.2993 -1.6370
   43CHL1   H1B 5634   0.300   2.176   9.728 -1.9811 -0.2287  0.7582
   43CHL1    C2 5635   0.231   2.038   9.875 -0.4534  0.4386  0.0344
   43CHL1   H2A 5636   0.331   2.041   9.923  0.8159 -1.2083 -2.3259
   43CHL1   H2B 5637   0.198   1.932   9.881 -0.1201  0.3627  0.7293
   43CHL1   C20 5638   0.229   2.187   8.935  0.2821 -0.3382  0.3898
   43CHL1   H20 5639   0.138   2.132   8.902  0.1525  0.0581  0.0824
   43CHL1   C21 5640   0.360   2.105   8.937  0.6084  0.2845 -0.3372
   43CHL1  H21A 5641   0.449   2.158   8.977  0.5036 -0.3376  0.7695
   43CHL1  H21B 5642   0.382   2.066   8.835 -0.8269  1.5717 -1.1817
   43CHL1  H21C 5643   0.342   2.018   9.004  0.3603 -0.3346 -1.1973
   43CHL1   C22 5644   0.260   2.305   8.844 -0.4158 -0.1987 -0.6241
   43CHL1  H22A 5645   0.175   2.376   8.848 -1.9636 -2.0232  2.2116
   43CHL1  H22B 5646   0.346   2.365   8.881 -0.3260 -0.1774 -0.8671
   43CHL1   C23 5647   0.287   2.260   8.697  0.6095 -0.4584 -0.2666
   43CHL1  H23A 5648   0.342   2.339   8.642  1.9776 -2.0562 -1.2646
   43CHL1  H23B 5649   0.357   2.175   8.688  1.0761 -0.0458 -0.5426
   43CHL1   C24 5650   0.160   2.220   8.614  0.5737 -0.3191 -0.0662
   43CHL1  H24A 5651   0.122   2.118   8.640 -0.6884 -0.0553 -0.7904
   43CHL1  H24B 5652   0.086   2.301   8.628 -0.5469 -0.1197 -5.2448
   43CHL1   C25 5653   0.176   2.235   8.454 -0.0518  0.1997 -0.3955
   43CHL1   H25 5654   0.220   2.336   8.440  1.5854 -0.4161  0.0397
   43CHL1   C26 5655   0.271   2.134   8.391  1.1642 -0.0307  0.3891
   43CHL1  H26A 5656   0.288   2.152   8.283 -0.6222 -0.1446  0.0511
   43CHL1  H26B 5657   0.367   2.133   8.447  0.5751  0.2353  1.4389
   43CHL1  H26C 5658   0.221   2.036   8.403 -2.1535  1.2765 -1.4675
   43CHL1   C27 5659   0.038   2.224   8.379  0.7414 -0.2214  0.1174
   43CHL1  H27A 5660  -0.036   2.296   8.419  0.0922 -1.7046  1.7519
   43CHL1  H27B 5661   0.052   2.240   8.270 -1.0490 -1.6794 -0.3701
   43CHL1  H27C 5662  -0.001   2.122   8.400  2.6721 -0.7170  1.6046
   44CHL1    C3 5663   0.076   2.807  10.117  0.3453  0.3437  0.0689
   44CHL1    H3 5664   0.053   2.910  10.149 -0.1971  0.2539 -0.0084
   44CHL1    O3 5665   0.130   2.735  10.223  0.9587  0.2772 -0.3180
   44CHL1   H3' 5666   0.221   2.763  10.232  0.4019  1.5394  2.5036
   44CHL1    C4 5667  -0.058   2.743  10.067 -0.5913 -0.2109  0.3573
   44CHL1   H4A 5668  -0.056   2.632  10.070 -2.4722 -0.3335 -1.0206
   44CHL1   H4B 5669  -0.130   2.769  10.148  0.6388  0.3757  1.2988
   44CHL1    C5 5670  -0.103   2.783   9.928  0.5249  0.5200 -0.0990
   44CHL1    C6 5671  -0.228   2.831   9.905  0.1448  0.1234  0.2649
   44CHL1    H6 5672  -0.307   2.826   9.982 -0.9333  1.0045 -0.7392
   44CHL1    C7 5673  -0.281   2.864   9.773 -0.3261  0.5757 -0.3075
   44CHL1   H7A 5674  -0.382   2.820   9.763 -0.8385  2.2012 -4.4587
   44CHL1   H7B 5675  -0.282   2.973   9.751 -0.5572  1.1026  2.0862
   44CHL1    C8 5676  -0.191   2.805   9.657 -1.0548  0.7274  0.4615
   44CHL1    H8 5677  -0.205   2.695   9.650  0.0402  0.6451 -0.8693
   44CHL1   C14 5678  -0.220   2.864   9.525  0.8873 -1.0376  0.1762
   44CHL1   H14 5679  -0.186   2.970   9.525 -0.1882 -0.6820  0.7251
   44CHL1   C15 5680  -0.359   2.874   9.467 -0.1574  0.0191 -0.3383
   44CHL1  H15A 5681  -0.395   2.769   9.477 -0.5270  0.2103  0.4718
   44CHL1  H15B 5682  -0.438   2.930   9.523  1.4002  1.0702  0.9129
   44CHL1   C16 5683  -0.351   2.905   9.318 -0.0236 -0.0131  0.0639
   44CHL1  H16A 5684  -0.414   2.824   9.274 -1.1831 -0.0250  1.6780
   44CHL1  H16B 5685  -0.397   3.001   9.284 -1.1440 -0.7970 -0.7091
   44CHL1   C17 5686  -0.202   2.895   9.285 -0.3442 -0.5164  0.0227
   44CHL1   H17 5687  -0.157   2.996   9.297  0.8598 -0.8169 -1.5506
   44CHL1   C13 5688  -0.138   2.812   9.401 -0.0020  0.6737 -0.1280
   44CHL1   C18 5689  -0.170   2.664   9.373 -0.4126  0.5605 -0.0287
   44CHL1  H18A 5690  -0.279   2.647   9.369 -0.3154  0.1526 -2.3080
   44CHL1  H18B 5691  -0.120   2.634   9.278 -2.2950  1.3368 -1.3303
   44CHL1  H18C 5692  -0.132   2.607   9.460  2.3689  1.1018 -0.7822
   44CHL1   C12 5693   0.008   2.841   9.432  0.0795  0.0478  0.1116
   44CHL1  H12A 5694   0.078   2.809   9.352  0.8081  1.3082  0.2130
   44CHL1  H12B 5695   0.021   2.951   9.443 -0.7320  0.1422  0.2022
   44CHL1   C11 5696   0.043   2.781   9.568 -0.2678  0.3126 -0.2561
   44CHL1  H11A 5697   0.029   2.672   9.549  1.6408 -0.1420  0.7073
   44CHL1  H11B 5698   0.149   2.786   9.603 -0.6461 -0.4903  1.1220
   44CHL1    C9 5699  -0.043   2.820   9.685  0.6651  0.0395  0.4631
   44CHL1    H9 5700  -0.031   2.930   9.693  1.8176  0.2115 -2.5638
   44CHL1   C10 5701   0.006   2.762   9.818  0.6453  0.6937 -0.5368
   44CHL1   C19 5702   0.028   2.608   9.810 -0.5678  0.3636  0.2246
   44CHL1  H19A 5703  -0.073   2.565   9.826  0.0530 -0.9164  0.8014
   44CHL1  H19B 5704   0.066   2.573   9.712 -2.8783 -2.1986  0.1102
   44CHL1  H19C 5705   0.097   2.574   9.890 -0.7045  0.0517  0.2116
   44CHL1    C1 5706   0.126   2.853   9.868  0.1719  0.7286  0.1266
   44CHL1   H1A 5707   0.209   2.844   9.795 -0.9896 -2.0558 -1.0090
   44CHL1   H1B 5708   0.092   2.958   9.876 -0.7913  0.3702  1.0271
   44CHL1    C2 5709   0.178   2.814  10.009  0.2797 -0.3523  0.3444
   44CHL1   H2A 5710   0.257   2.885  10.041  0.5655 -0.4615 -0.1142
   44CHL1   H2B 5711   0.232   2.717   9.995 -0.3969 -0.6834 -0.0295
   44CHL1   C20 5712  -0.175   2.862   9.137  0.3914 -0.7139 -0.0195
   44CHL1   H20 5713  -0.209   2.756   9.131  0.1105 -0.7364  1.4822
   44CHL1   C21 5714  -0.026   2.859   9.112  0.0887  0.3065  0.1262
   44CHL1  H21A 5715  -0.012   2.858   9.002  0.0704  0.7489  0.1151
   44CHL1  H21B 5716   0.033   2.778   9.160 -3.6218 -1.7646  1.6093
   44CHL1  H21C 5717   0.024   2.954   9.143 -0.6071  0.7825 -0.1840
   44CHL1   C22 5718  -0.262   2.945   9.041  0.6360  0.5626 -0.8320
   44CHL1  H22A 5719  -0.362   2.897   9.034  2.2120 -2.9984 -1.2829
   44CHL1  H22B 5720  -0.274   3.048   9.082 -0.4496 -0.5280  1.8464
   44CHL1   C23 5721  -0.217   2.950   8.894 -0.0384  0.2842 -0.6448
   44CHL1  H23A 5722  -0.123   3.009   8.888 -0.4410  0.8194 -2.2240
   44CHL1  H23B 5723  -0.181   2.849   8.867  0.4569  0.5709 -1.0955
   44CHL1   C24 5724  -0.317   3.003   8.785 -0.4611 -0.5196  0.0360
   44CHL1  H24A 5725  -0.407   2.944   8.811 -1.1813  1.2375  1.8704
   44CHL1  H24B 5726  -0.330   3.111   8.809  0.1445 -0.0289 -1.7268
   44CHL1   C25 5727  -0.265   3.006   8.634  0.1930  0.5994  0.0084
   44CHL1   H25 5728  -0.158   3.035   8.635 -0.2850  2.4825  1.2793
   44CHL1   C26 5729  -0.284   2.882   8.554  0.2310 -0.6393  0.0173
   44CHL1  H26A 5730  -0.235   2.803   8.615 -0.1700 -0.4944  0.5343
   44CHL1  H26B 5731  -0.394   2.866   8.549 -0.2154  1.6949  1.1474
   44CHL1  H26C 5732  -0.237   2.889   8.453 -1.4877 -0.3095 -0.7928
   44CHL1   C27 5733  -0.334   3.116   8.551  0.3247 -0.7218  0.0227
   44CHL1  H27A 5734  -0.291   3.120   8.448  0.2261  0.7852  0.0247
   44CHL1  H27B 5735  -0.443   3.100   8.560 -0.4047  2.7681 -1.1425
   44CHL1  H27C 5736  -0.312   3.216   8.593  0.3397 -0.4263 -0.6734
   45CHL1    C3 5737   3.757   0.318  10.054 -0.1862  0.3741  0.7245
   45CHL1    H3 5738   3.851   0.372  10.078  0.4377 -1.9178  4.2046
   45CHL1    O3 5739   3.717   0.275  10.183  0.4629  0.3770 -0.4314
   45CHL1   H3' 5740   3.705   0.347  10.245  0.1642 -1.0373  1.2397
   45CHL1    C4 5741   3.644   0.405   9.990 -0.2574 -0.0188  0.4285
   45CHL1   H4A 5742   3.549   0.349   9.996 -1.4932  1.5886 -2.2883
   45CHL1   H4B 5743   3.621   0.493  10.055  1.5067 -1.3115  3.0013
   45CHL1    C5 5744   3.660   0.441   9.846 -0.9716  0.7473 -0.5185
   45CHL1    C6 5745   3.660   0.566   9.804  0.6640 -0.0008  0.8798
   45CHL1    H6 5746   3.639   0.641   9.881 -1.5014  0.8430 -0.4627
   45CHL1    C7 5747   3.683   0.617   9.661  0.1594 -0.3030  0.1883
   45CHL1   H7A 5748   3.612   0.699   9.635  0.9370  0.5836  0.8065
   45CHL1   H7B 5749   3.780   0.669   9.659 -0.2387  0.4371 -0.7816
   45CHL1    C8 5750   3.689   0.499   9.557  0.3812  0.0651  0.3985
   45CHL1    H8 5751   3.762   0.541   9.485  0.9903 -0.9594  0.3954
   45CHL1   C14 5752   3.567   0.477   9.474 -0.0621 -0.0913  0.7784
   45CHL1   H14 5753   3.481   0.438   9.533  0.1654  0.5652  1.5562
   45CHL1   C15 5754   3.522   0.606   9.414  0.5534  0.2119  0.4025
   45CHL1  H15A 5755   3.435   0.645   9.471 -0.0987  2.5858 -1.9971
   45CHL1  H15B 5756   3.594   0.690   9.423 -0.5481  1.3672 -1.0210
   45CHL1   C16 5757   3.477   0.576   9.272 -0.0513  0.5765 -0.6040
   45CHL1  H16A 5758   3.374   0.535   9.266 -0.4186  1.2690  0.5322
   45CHL1  H16B 5759   3.491   0.666   9.209 -0.6487  1.0892 -0.0209
   45CHL1   C17 5760   3.579   0.468   9.223 -0.4979 -0.1126  0.3662
   45CHL1   H17 5761   3.681   0.513   9.218 -0.3622 -0.3081  1.1520
   45CHL1   C13 5762   3.593   0.386   9.350 -0.1737 -0.5465  0.0837
   45CHL1   C18 5763   3.479   0.279   9.359  0.0967 -0.1130 -0.0333
   45CHL1  H18A 5764   3.502   0.193   9.292  1.1016 -2.2247  2.8113
   45CHL1  H18B 5765   3.484   0.231   9.459  1.2002 -0.6127 -0.3085
   45CHL1  H18C 5766   3.374   0.310   9.338 -0.3361 -1.1819  0.4815
   45CHL1   C12 5767   3.731   0.312   9.363 -0.4804  0.0724  0.0331
   45CHL1  H12A 5768   3.735   0.225   9.294 -0.9087  0.0099  0.0827
   45CHL1  H12B 5769   3.814   0.380   9.333 -0.5448 -1.1560 -3.3012
   45CHL1   C11 5770   3.749   0.256   9.500  0.1005  0.1282  0.5509
   45CHL1  H11A 5771   3.671   0.176   9.499 -0.1124  0.3290 -0.7272
   45CHL1  H11B 5772   3.843   0.197   9.508  0.1438  0.0833 -0.2716
   45CHL1    C9 5773   3.746   0.367   9.612 -1.0405  0.2712 -0.6119
   45CHL1    H9 5774   3.853   0.396   9.626 -0.2398 -2.4643 -0.5835
   45CHL1   C10 5775   3.703   0.317   9.748  0.5405 -0.2080 -0.9457
   45CHL1   C19 5776   3.581   0.218   9.743 -0.4699 -0.3450 -0.0543
   45CHL1  H19A 5777   3.530   0.199   9.840  0.2119  1.6244  0.7170
   45CHL1  H19B 5778   3.504   0.253   9.671 -0.7727 -1.3524 -0.2421
   45CHL1  H19C 5779   3.631   0.123   9.712  0.4976  0.9220 -2.6587
   45CHL1    C1 5780   3.823   0.251   9.822  0.2411  0.7646 -0.0895
   45CHL1   H1A 5781   3.862   0.168   9.759  1.8091 -1.5127  3.5647
   45CHL1   H1B 5782   3.905   0.325   9.838 -0.3543  1.3856  0.1357
   45CHL1    C2 5783   3.793   0.194   9.968 -0.1637  0.3234 -0.4382
   45CHL1   H2A 5784   3.884   0.147  10.012 -0.4975 -0.6257 -0.7323
   45CHL1   H2B 5785   3.699   0.133   9.962 -0.2565  0.5898 -2.1800
   45CHL1   C20 5786   3.545   0.403   9.086 -0.6543 -0.4785 -0.1836
   45CHL1   H20 5787   3.494   0.306   9.100 -0.3404 -0.9737 -2.1709
   45CHL1   C21 5788   3.681   0.373   9.017  0.2899 -0.2001 -0.4247
   45CHL1  H21A 5789   3.751   0.351   9.099  0.1145 -0.2056 -0.2760
   45CHL1  H21B 5790   3.711   0.463   8.958 -3.2981  1.1364 -0.5041
   45CHL1  H21C 5791   3.669   0.282   8.954  1.5429  0.1929 -1.2650
   45CHL1   C22 5792   3.470   0.502   8.998 -0.0274 -0.5576  0.4179
   45CHL1  H22A 5793   3.376   0.540   9.045  1.0580  3.0265 -0.0172
   45CHL1  H22B 5794   3.530   0.594   8.980 -1.0540  0.5049  2.0737
   45CHL1   C23 5795   3.431   0.445   8.861  0.0962  0.4596 -0.4490
   45CHL1  H23A 5796   3.527   0.443   8.804 -0.9177  0.7299 -2.2511
   45CHL1  H23B 5797   3.397   0.340   8.873 -1.5267  0.8724 -1.2153
   45CHL1   C24 5798   3.330   0.533   8.787  0.7704  0.4252  0.0609
   45CHL1  H24A 5799   3.231   0.514   8.834  1.1241  1.8008  1.4245
   45CHL1  H24B 5800   3.357   0.638   8.812  0.8427 -0.4138  4.2236
   45CHL1   C25 5801   3.317   0.507   8.632 -1.0386 -0.1056  0.6546
   45CHL1   H25 5802   3.421   0.508   8.595 -1.0976 -0.3571  0.4846
   45CHL1   C26 5803   3.261   0.368   8.612 -0.5753 -0.1381 -0.3525
   45CHL1  H26A 5804   3.274   0.330   8.509 -0.6622  0.1196 -0.4585
   45CHL1  H26B 5805   3.307   0.294   8.682 -1.7957 -1.1204 -0.5466
   45CHL1  H26C 5806   3.153   0.357   8.638 -0.1063 -0.8407  1.4972
   45CHL1   C27 5807   3.246   0.620   8.560 -0.5400 -0.8047  0.1233
   45CHL1  H27A 5808   3.245   0.600   8.451 -1.8403 -4.0126  0.6156
   45CHL1  H27B 5809   3.140   0.626   8.592 -0.0114 -2.1794  2.3672
   45CHL1  H27C 5810   3.303   0.714   8.577 -0.1819 -0.8206 -0.9178
   46CHL1    C3 5811   0.442   4.385   9.991  0.6558  1.3258  0.7111
   46CHL1    H3 5812   0.342   4.350  10.024  0.8409  0.2982  0.2078
   46CHL1    O3 5813   0.506   4.413  10.112 -0.5663  0.7206 -0.0649
   46CHL1   H3' 5814   0.589   4.459  10.100  0.0282  0.7921  3.3394
   46CHL1    C4 5815   0.507   4.269   9.902 -0.6612 -0.0314 -0.3308
   46CHL1   H4A 5816   0.611   4.304   9.888 -0.1597 -0.7535  1.3359
   46CHL1   H4B 5817   0.514   4.179   9.968  0.7956  0.4665  0.2302
   46CHL1    C5 5818   0.439   4.247   9.772  0.4315  0.2105  0.3675
   46CHL1    C6 5819   0.381   4.124   9.731 -0.6876 -0.2827  0.9286
   46CHL1    H6 5820   0.383   4.041   9.803  0.5768 -0.0540  1.1808
   46CHL1    C7 5821   0.312   4.105   9.599  0.3360  0.4836 -0.0849
   46CHL1   H7A 5822   0.342   4.007   9.556 -2.3603  0.2167 -1.6055
   46CHL1   H7B 5823   0.203   4.096   9.621  0.1437  0.0868 -1.1518
   46CHL1    C8 5824   0.336   4.217   9.496 -0.1504  0.7198  0.5540
   46CHL1    H8 5825   0.440   4.209   9.458  0.6619  1.6499  2.3935
   46CHL1   C14 5826   0.246   4.217   9.368  0.1874 -0.0799  0.1949
   46CHL1   H14 5827   0.145   4.234   9.411  0.6273  0.7254  0.9458
   46CHL1   C15 5828   0.238   4.080   9.292 -0.1392 -0.1132  0.1140
   46CHL1  H15A 5829   0.343   4.042   9.293  0.0653  0.4297  0.4060
   46CHL1  H15B 5830   0.183   4.005   9.352  1.1725  0.0008  1.5532
   46CHL1   C16 5831   0.174   4.121   9.160  0.3218  0.2188  0.2269
   46CHL1  H16A 5832   0.235   4.075   9.080  0.1250 -1.2270  0.8889
   46CHL1  H16B 5833   0.069   4.083   9.157  0.7331 -0.9055 -1.1355
   46CHL1   C17 5834   0.163   4.275   9.159  0.3730  0.6608  0.1468
   46CHL1   H17 5835   0.065   4.301   9.205  0.4617  3.5912 -1.1268
   46CHL1   C13 5836   0.273   4.321   9.259 -0.0517 -0.0640 -0.3821
   46CHL1   C18 5837   0.409   4.306   9.195 -0.0713 -0.1266  0.1801
   46CHL1  H18A 5838   0.490   4.313   9.270 -1.2651  2.3341  1.3571
   46CHL1  H18B 5839   0.416   4.204   9.150 -0.3688  0.6664 -1.7600
   46CHL1  H18C 5840   0.418   4.375   9.109 -1.2900  1.6164  1.3852
   46CHL1   C12 5841   0.233   4.451   9.337  0.7835 -0.0454  0.6318
   46CHL1  H12A 5842   0.249   4.544   9.278 -1.0417 -0.4132 -0.5218
   46CHL1  H12B 5843   0.122   4.450   9.342  0.7883 -1.2330  0.6790
   46CHL1   C11 5844   0.301   4.475   9.471 -0.4153  0.7723 -0.3852
   46CHL1  H11A 5845   0.400   4.519   9.449 -0.8187  1.8655 -0.0919
   46CHL1  H11B 5846   0.242   4.556   9.519 -3.0497 -1.0263 -0.3008
   46CHL1    C9 5847   0.311   4.355   9.565 -0.6483 -0.0250  0.2448
   46CHL1    H9 5848   0.206   4.338   9.596 -1.2645  0.9289 -1.2271
   46CHL1   C10 5849   0.410   4.381   9.687 -0.0717  0.3003 -0.3211
   46CHL1   C19 5850   0.548   4.417   9.629 -0.0289  0.0231  0.4359
   46CHL1  H19A 5851   0.549   4.516   9.577  0.2987 -0.0657  0.2677
   46CHL1  H19B 5852   0.634   4.424   9.699 -0.5747 -0.2817  1.1532
   46CHL1  H19C 5853   0.577   4.348   9.547  0.1822 -2.4761  2.5034
   46CHL1    C1 5854   0.346   4.484   9.785 -0.2946 -0.1578 -0.0804
   46CHL1   H1A 5855   0.333   4.581   9.732 -1.6822 -0.2390  0.0713
   46CHL1   H1B 5856   0.247   4.442   9.813  0.9680 -2.9326  0.5327
   46CHL1    C2 5857   0.428   4.514   9.910 -0.3576 -0.0251  0.3547
   46CHL1   H2A 5858   0.390   4.594   9.978  1.1468  1.8542 -0.8968
   46CHL1   H2B 5859   0.530   4.548   9.884 -1.4974  2.1454 -1.7475
   46CHL1   C20 5860   0.155   4.339   9.021 -0.0073  0.2155  0.1160
   46CHL1   H20 5861   0.250   4.329   8.965  0.2631  0.7797  0.4650
   46CHL1   C21 5862   0.137   4.489   9.030 -0.3480 -0.8440  0.7526
   46CHL1  H21A 5863   0.050   4.523   9.090 -0.5452  1.0297 -0.4893
   46CHL1  H21B 5864   0.121   4.532   8.929  3.1654  2.5177  1.4051
   46CHL1  H21C 5865   0.222   4.548   9.072 -0.1208 -0.2445 -0.5097
   46CHL1   C22 5866   0.035   4.280   8.948  0.7681  0.0508 -0.0990
   46CHL1  H22A 5867   0.038   4.168   8.946  0.8343  0.0599 -1.2073
   46CHL1  H22B 5868  -0.055   4.298   9.010  0.2268 -0.5205 -0.7054
   46CHL1   C23 5869   0.010   4.328   8.807 -0.0745  0.0896  0.3324
   46CHL1  H23A 5870  -0.029   4.431   8.793 -0.6236 -0.0419  0.8325
   46CHL1  H23B 5871   0.116   4.337   8.776  0.4859 -1.3325  1.7009
   46CHL1   C24 5872  -0.054   4.230   8.712  0.2661 -0.3321 -0.1706
   46CHL1  H24A 5873   0.005   4.137   8.696 -2.5646 -1.9594 -2.0639
   46CHL1  H24B 5874  -0.148   4.194   8.759  0.8251 -0.4151  0.9177
   46CHL1   C25 5875  -0.077   4.278   8.575 -0.6691 -0.4905  0.0303
   46CHL1   H25 5876  -0.137   4.371   8.575 -2.0604 -1.2860 -2.6879
   46CHL1   C26 5877   0.057   4.307   8.494  0.4480 -0.2762  0.6014
   46CHL1  H26A 5878   0.111   4.383   8.555  0.2002  0.5655 -0.2087
   46CHL1  H26B 5879   0.111   4.210   8.481  0.5724 -0.1748  0.3578
   46CHL1  H26C 5880   0.027   4.361   8.402  1.3053 -0.3244  0.2839
   46CHL1   C27 5881  -0.166   4.180   8.503  0.3119  0.1842 -0.2451
   46CHL1  H27A 5882  -0.101   4.090   8.504 -0.3657 -0.4310  3.4066
   46CHL1  H27B 5883  -0.259   4.159   8.561  0.2739  1.4844  0.1881
   46CHL1  H27C 5884  -0.197   4.207   8.400 -0.0433 -0.9375 -0.4489
   47CHL1    C3 5885   0.707   1.908  10.171  0.0039  0.3814  0.0777
   47CHL1    H3 5886   0.633   1.833  10.136  0.5663  0.4033 -1.2404
   47CHL1    O3 5887   0.733   1.905  10.309  0.2446  0.3795 -1.0801
   47CHL1   H3' 5888   0.828   1.896  10.319  0.3905  2.1315 -0.5796
   47CHL1    C4 5889   0.837   1.881  10.098 -0.7239 -0.8408 -0.2267
   47CHL1   H4A 5890   0.908   1.960  10.131 -1.4185 -0.6620  0.8909
   47CHL1   H4B 5891   0.878   1.782  10.129  0.6144 -0.4127 -0.5567
   47CHL1    C5 5892   0.830   1.891   9.948 -0.3052 -0.7044 -0.3662
   47CHL1    C6 5893   0.874   1.802   9.858 -0.2693  0.2408 -0.0817
   47CHL1    H6 5894   0.923   1.711   9.897  1.2013  1.1956  0.4233
   47CHL1    C7 5895   0.884   1.827   9.714  0.1482  0.1663  0.2399
   47CHL1   H7A 5896   0.984   1.800   9.675 -0.2207  1.2611 -1.5814
   47CHL1   H7B 5897   0.804   1.771   9.661 -0.3760  1.6399 -0.5696
   47CHL1    C8 5898   0.850   1.971   9.668 -0.5930 -0.3478 -0.5913
   47CHL1    H8 5899   0.945   2.024   9.689  0.0870 -1.9997  0.7792
   47CHL1   C14 5900   0.813   1.977   9.518  0.0144 -0.2070 -0.0074
   47CHL1   H14 5901   0.724   1.914   9.496 -0.8209  0.9455  0.0335
   47CHL1   C15 5902   0.917   1.918   9.419 -0.0565  0.3065  0.0303
   47CHL1  H15A 5903   1.015   1.960   9.450 -0.8503  1.0583  1.6633
   47CHL1  H15B 5904   0.928   1.808   9.429 -1.3803  0.1548  0.0116
   47CHL1   C16 5905   0.894   1.991   9.286 -0.0827  0.3972  0.1551
   47CHL1  H16A 5906   0.988   2.044   9.261 -0.9211  0.8265 -2.3835
   47CHL1  H16B 5907   0.869   1.914   9.209 -0.6901 -0.1602  0.8883
   47CHL1   C17 5908   0.785   2.095   9.311 -0.6980  0.2256 -0.2708
   47CHL1   H17 5909   0.696   2.032   9.289  0.6803 -0.9368 -2.9535
   47CHL1   C13 5910   0.789   2.112   9.466  0.5501  0.1766 -1.0807
   47CHL1   C18 5911   0.910   2.211   9.495  0.1528  0.2604  0.1182
   47CHL1  H18A 5912   0.931   2.214   9.604 -1.5779 -1.6234  0.5357
   47CHL1  H18B 5913   1.000   2.169   9.446 -0.1565 -1.2482  0.8118
   47CHL1  H18C 5914   0.885   2.311   9.452 -0.4484 -0.8487 -2.2532
   47CHL1   C12 5915   0.657   2.166   9.537 -0.2526  0.4467  0.0615
   47CHL1  H12A 5916   0.650   2.272   9.506 -1.2795  0.2352 -0.5006
   47CHL1  H12B 5917   0.566   2.113   9.499  0.4071 -1.9812  1.5974
   47CHL1   C11 5918   0.674   2.155   9.690  0.0112 -0.2490 -0.0093
   47CHL1  H11A 5919   0.741   2.236   9.726  1.0191 -2.0038  2.3240
   47CHL1  H11B 5920   0.570   2.166   9.728  0.2108 -0.9552  0.7808
   47CHL1    C9 5921   0.736   2.024   9.744  0.5910  0.0391  0.3185
   47CHL1    H9 5922   0.661   1.943   9.729  0.1058  0.9466 -2.8914
   47CHL1   C10 5923   0.767   2.031   9.902 -0.2532  1.0266 -0.3490
   47CHL1   C19 5924   0.870   2.142   9.930 -0.1169  0.4113 -0.3796
   47CHL1  H19A 5925   0.964   2.125   9.872 -0.4814  2.8270 -1.8312
   47CHL1  H19B 5926   0.830   2.241   9.899  0.0190  0.5083 -0.2511
   47CHL1  H19C 5927   0.897   2.151  10.038 -0.4902  0.2327 -0.2716
   47CHL1    C1 5928   0.633   2.054   9.977  0.3137 -1.0734  0.5126
   47CHL1   H1A 5929   0.582   2.146   9.942 -2.5259 -2.1272  1.6447
   47CHL1   H1B 5930   0.572   1.963   9.960 -1.8691  0.6740 -1.6632
   47CHL1    C2 5931   0.646   2.045  10.136 -0.8901  0.4156  0.1852
   47CHL1   H2A 5932   0.538   2.057  10.161 -1.3151  0.1240 -1.3675
   47CHL1   H2B 5933   0.712   2.126  10.175  2.2374 -1.0601 -1.6834
   47CHL1   C20 5934   0.782   2.219   9.224 -0.2106 -0.5724  0.9856
   47CHL1   H20 5935   0.844   2.301   9.268 -0.1344 -2.1100  3.9622
   47CHL1   C21 5936   0.637   2.262   9.217 -0.2056 -0.2086  0.1223
   47CHL1  H21A 5937   0.585   2.277   9.314 -1.3635  1.4652 -0.7119
   47CHL1  H21B 5938   0.576   2.175   9.182 -0.1841  0.2585 -1.1490
   47CHL1  H21C 5939   0.619   2.337   9.137  0.6394  0.5691  0.6550
   47CHL1   C22 5940   0.834   2.201   9.081  0.2653  0.1516  0.6733
   47CHL1  H22A 5941   0.841   2.294   9.021 -0.0422 -1.4326 -1.9613
   47CHL1  H22B 5942   0.939   2.166   9.089  0.3085  0.4815  1.7055
   47CHL1   C23 5943   0.760   2.099   8.996 -0.0349 -0.1973 -0.8047
   47CHL1  H23A 5944   0.809   2.004   9.025 -0.0635  0.1443  0.4034
   47CHL1  H23B 5945   0.652   2.085   9.021  0.5564 -1.6816  1.2202
   47CHL1   C24 5946   0.778   2.115   8.841  0.8514 -0.6272  0.0743
   47CHL1  H24A 5947   0.712   2.203   8.827  0.9944 -0.2678  1.4931
   47CHL1  H24B 5948   0.882   2.143   8.813  0.8808  0.6030  1.2931
   47CHL1   C25 5949   0.731   1.991   8.766 -0.5954  1.0195 -0.1264
   47CHL1   H25 5950   0.635   1.955   8.809 -0.4674  1.7599  0.8206
   47CHL1   C26 5951   0.697   2.019   8.617 -0.6607  0.0046  0.1737
   47CHL1  H26A 5952   0.609   2.082   8.595 -3.3184 -4.2418 -2.8497
   47CHL1  H26B 5953   0.683   1.922   8.565  0.1134 -0.8528  1.4864
   47CHL1  H26C 5954   0.784   2.066   8.566 -0.0663 -0.8818  0.3409
   47CHL1   C27 5955   0.826   1.870   8.770  0.0420  0.0969  0.2078
   47CHL1  H27A 5956   0.836   1.829   8.872 -2.2493  0.0995  0.4727
   47CHL1  H27B 5957   0.780   1.782   8.722  0.5471  0.4828 -1.0315
   47CHL1  H27C 5958   0.921   1.901   8.721 -0.9530  0.9483 -1.2924
   48CHL1    C3 5959   1.422   3.421  10.108 -0.0364 -0.1373  0.3663
   48CHL1    H3 5960   1.516   3.457  10.062 -0.6703  0.3916 -0.5731
   48CHL1    O3 5961   1.452   3.365  10.238 -0.3938  0.0880 -0.0496
   48CHL1   H3' 5962   1.380   3.302  10.250  0.2323 -0.5383  0.5176
   48CHL1    C4 5963   1.323   3.539  10.110  0.4115 -0.2839  0.0038
   48CHL1   H4A 5964   1.238   3.514  10.177  0.7180  0.8823  0.8667
   48CHL1   H4B 5965   1.394   3.611  10.156  0.4799 -0.2750 -0.1152
   48CHL1    C5 5966   1.271   3.589   9.977  1.1376 -0.1518  0.0741
   48CHL1    C6 5967   1.283   3.717   9.938  0.2180  0.4070 -0.4409
   48CHL1    H6 5968   1.333   3.789  10.004  2.5693 -1.0342 -0.5187
   48CHL1    C7 5969   1.255   3.777   9.806  0.1269  0.3306 -0.0075
   48CHL1   H7A 5970   1.200   3.873   9.810 -0.9476 -0.1710 -1.9137
   48CHL1   H7B 5971   1.356   3.799   9.765  0.0119 -1.1713 -1.1707
   48CHL1    C8 5972   1.175   3.684   9.715 -0.0953  0.5397 -0.1102
   48CHL1    H8 5973   1.069   3.677   9.746  0.1927  1.9252  1.3638
   48CHL1   C14 5974   1.196   3.728   9.568 -1.2482  0.3128 -0.0292
   48CHL1   H14 5975   1.299   3.691   9.548 -1.8330 -1.7488  0.4883
   48CHL1   C15 5976   1.191   3.870   9.525 -0.1014 -0.0133  0.3769
   48CHL1  H15A 5977   1.094   3.915   9.554  0.8088  1.9095  0.6687
   48CHL1  H15B 5978   1.277   3.929   9.565  0.3821 -0.8680  0.6232
   48CHL1   C16 5979   1.174   3.862   9.373  0.2145  0.4382  0.3759
   48CHL1  H16A 5980   1.091   3.928   9.339 -0.5758 -1.0467 -0.6624
   48CHL1  H16B 5981   1.263   3.908   9.324  1.1865 -1.4980  0.2510
   48CHL1   C17 5982   1.158   3.713   9.331  0.0546  0.2359 -0.2833
   48CHL1   H17 5983   1.263   3.681   9.310 -0.5252 -1.0888 -1.3010
   48CHL1   C13 5984   1.121   3.642   9.463 -0.7232 -0.1472 -0.0579
   48CHL1   C18 5985   0.966   3.659   9.494  0.0791 -0.3659 -0.9043
   48CHL1  H18A 5986   0.944   3.764   9.468  1.4544  0.2916  0.4476
   48CHL1  H18B 5987   0.915   3.586   9.427  1.2541 -0.8137 -1.3437
   48CHL1  H18C 5988   0.940   3.632   9.599  1.5106  1.4061 -0.0525
   48CHL1   C12 5989   1.173   3.496   9.488 -0.0709  0.2200 -0.3386
   48CHL1  H12A 5990   1.129   3.431   9.410 -1.3916  1.0837 -0.3408
   48CHL1  H12B 5991   1.282   3.498   9.463  0.5007 -4.6814  0.7870
   48CHL1   C11 5992   1.158   3.442   9.632  0.5532 -0.1219  0.3391
   48CHL1  H11A 5993   1.048   3.453   9.649  0.3487  2.2259 -1.8210
   48CHL1  H11B 5994   1.194   3.338   9.647  1.0838 -0.0608 -0.4590
   48CHL1    C9 5995   1.229   3.539   9.732  0.0312  0.7343 -0.5547
   48CHL1    H9 5996   1.334   3.546   9.699 -0.1417  1.6446 -0.9505
   48CHL1   C10 5997   1.220   3.478   9.876  0.0847 -0.1490  0.0969
   48CHL1   C19 5998   1.080   3.426   9.913  0.8383  0.1842 -0.2677
   48CHL1  H19A 5999   1.072   3.391  10.018 -0.2784  0.2668 -0.3039
   48CHL1  H19B 6000   1.006   3.509   9.912 -0.5824 -1.0265 -0.2112
   48CHL1  H19C 6001   1.032   3.344   9.856 -1.6415 -0.7989  2.8890
   48CHL1    C1 6002   1.323   3.356   9.892 -1.1180 -0.1911  0.2886
   48CHL1   H1A 6003   1.288   3.268   9.834  0.8167 -0.6710 -0.2074
   48CHL1   H1B 6004   1.414   3.384   9.835 -1.9302 -0.7244 -1.3519
   48CHL1    C2 6005   1.363   3.311  10.032  0.5818  0.0327  0.1842
   48CHL1   H2A 6006   1.429   3.224  10.014  0.8812  0.1797  0.5722
   48CHL1   H2B 6007   1.273   3.283  10.091  1.7171 -2.2043  0.9622
   48CHL1   C20 6008   1.060   3.674   9.212 -0.5140  0.3135 -0.2078
   48CHL1   H20 6009   0.954   3.652   9.237 -0.2598 -0.5480  0.1465
   48CHL1   C21 6010   1.122   3.549   9.142  0.2009  0.0701 -0.3042
   48CHL1  H21A 6011   1.044   3.499   9.080 -1.5993 -0.0904  1.9343
   48CHL1  H21B 6012   1.137   3.489   9.234 -2.8319 -0.4148 -0.0147
   48CHL1  H21C 6013   1.223   3.572   9.103  0.4805  0.2866  0.5314
   48CHL1   C22 6014   1.055   3.780   9.107 -0.5084  0.1110 -0.5401
   48CHL1  H22A 6015   0.997   3.870   9.138 -1.2216 -0.0371 -1.3901
   48CHL1  H22B 6016   1.158   3.805   9.075 -0.2568  0.9093  0.8031
   48CHL1   C23 6017   0.980   3.743   8.979 -0.6185 -0.1326 -0.4915
   48CHL1  H23A 6018   0.993   3.831   8.914  1.0738 -0.4640 -0.6535
   48CHL1  H23B 6019   1.048   3.672   8.927  0.0307 -0.1931  0.3993
   48CHL1   C24 6020   0.840   3.689   8.995  0.4172  0.0958  0.1206
   48CHL1  H24A 6021   0.827   3.598   9.058 -1.9418  0.6813  0.5935
   48CHL1  H24B 6022   0.774   3.764   9.042 -0.3878 -0.1956 -0.5203
   48CHL1   C25 6023   0.780   3.647   8.857 -0.1476  0.2984 -0.3450
   48CHL1   H25 6024   0.674   3.628   8.882  0.1844  0.6295  1.4482
   48CHL1   C26 6025   0.789   3.755   8.749  0.0493  0.0733 -0.3913
   48CHL1  H26A 6026   0.753   3.846   8.801  1.2268 -0.5945  1.7087
   48CHL1  H26B 6027   0.884   3.765   8.692 -0.3943  0.4293 -1.0813
   48CHL1  H26C 6028   0.723   3.732   8.663  0.9557  0.8375 -1.3193
   48CHL1   C27 6029   0.843   3.517   8.795 -0.2542 -0.6781 -0.3407
   48CHL1  H27A 6030   0.830   3.427   8.858  2.2343 -2.5178 -2.2426
   48CHL1  H27B 6031   0.769   3.495   8.715  0.2992 -2.3961 -0.4268
   48CHL1  H27C 6032   0.949   3.532   8.766 -0.3961 -1.0935 -1.0941
   49CHL1    C3 6033   6.804   5.079  10.073  0.4658 -0.0344 -0.1832
   49CHL1    H3 6034   6.710   5.022  10.089 -0.3714  1.5287  0.8456
   49CHL1    O3 6035   6.853   5.124  10.197 -0.1711  0.3399 -0.5779
   49CHL1   H3' 6036   6.879   5.043  10.242  0.1572  0.8229  0.1274
   49CHL1    C4 6037   6.902   4.983  10.004  0.7967 -0.4542 -0.3776
   49CHL1   H4A 6038   7.003   5.029  10.012  1.7304 -2.4514 -0.1011
   49CHL1   H4B 6039   6.904   4.887  10.060 -2.0054 -0.7877 -0.7283
   49CHL1    C5 6040   6.881   4.954   9.858 -0.3177  0.6744 -0.3452
   49CHL1    C6 6041   6.893   4.827   9.822  0.4270 -0.2964 -0.2713
   49CHL1    H6 6042   6.913   4.740   9.886  1.2913  0.3267  0.3231
   49CHL1    C7 6043   6.866   4.790   9.682 -0.6883  0.3570  0.4943
   49CHL1   H7A 6044   6.924   4.702   9.647  0.2692  0.3294  2.0326
   49CHL1   H7B 6045   6.760   4.757   9.681 -1.7516  3.4936  0.0359
   49CHL1    C8 6046   6.866   4.909   9.580 -0.5436 -0.2441 -0.0695
   49CHL1    H8 6047   6.972   4.940   9.566 -0.9217  1.2161  0.0965
   49CHL1   C14 6048   6.800   4.866   9.443 -0.7876 -0.1305 -0.5716
   49CHL1   H14 6049   6.695   4.849   9.473 -0.8386 -1.1185 -1.2440
   49CHL1   C15 6050   6.847   4.740   9.369  0.1223  0.0701  0.4969
   49CHL1  H15A 6051   6.958   4.730   9.370  0.2648  1.0185 -1.2546
   49CHL1  H15B 6052   6.812   4.655   9.432  0.1165  0.0762  0.5019
   49CHL1   C16 6053   6.778   4.758   9.234 -0.5159 -0.7341  0.6682
   49CHL1  H16A 6054   6.851   4.749   9.151 -0.5547 -1.0707  0.6691
   49CHL1  H16B 6055   6.688   4.696   9.216  0.0585 -0.9760 -1.5679
   49CHL1   C17 6056   6.709   4.901   9.234 -0.5790  0.9315  0.3067
   49CHL1   H17 6057   6.605   4.887   9.270 -0.8730  3.1772  0.4935
   49CHL1   C13 6058   6.784   4.978   9.338  0.4338  0.3381  0.3005
   49CHL1   C18 6059   6.916   5.022   9.289 -0.9149 -0.0505 -0.2514
   49CHL1  H18A 6060   6.978   5.056   9.375 -2.1913  1.7906 -0.0098
   49CHL1  H18B 6061   6.976   4.945   9.236  1.6063  1.6618 -0.0636
   49CHL1  H18C 6062   6.908   5.103   9.214  2.0572  0.7370  0.1591
   49CHL1   C12 6063   6.704   5.091   9.399  0.5680 -0.4138  0.1986
   49CHL1  H12A 6064   6.697   5.171   9.322  1.1490 -0.0382  0.5308
   49CHL1  H12B 6065   6.605   5.047   9.424  0.1947  0.4390  0.2670
   49CHL1   C11 6066   6.768   5.147   9.527  0.4584 -0.2729  0.2906
   49CHL1  H11A 6067   6.862   5.205   9.509  0.8703 -0.1151  2.5485
   49CHL1  H11B 6068   6.696   5.217   9.574  0.2531  0.3416 -0.8950
   49CHL1    C9 6069   6.788   5.035   9.631 -0.8371  0.1998 -0.6411
   49CHL1    H9 6070   6.685   4.996   9.652 -0.1780 -1.0553  0.4334
   49CHL1   C10 6071   6.842   5.075   9.774 -0.2025 -0.2553  0.0783
   49CHL1   C19 6072   6.971   5.164   9.755  1.0467 -0.5338  0.0536
   49CHL1  H19A 6073   6.948   5.257   9.700 -0.3924 -0.7248  0.3001
   49CHL1  H19B 6074   7.013   5.191   9.854 -0.3328 -0.0504  0.5303
   49CHL1  H19C 6075   7.049   5.114   9.692  1.2244  1.0078 -0.9952
   49CHL1    C1 6076   6.734   5.162   9.847 -0.1816  0.0699  0.4099
   49CHL1   H1A 6077   6.728   5.253   9.782  0.1368 -1.8218 -2.4691
   49CHL1   H1B 6078   6.635   5.111   9.842  0.1945 -0.5788 -1.2483
   49CHL1    C2 6079   6.768   5.206   9.994  0.1536  0.3149 -0.2732
   49CHL1   H2A 6080   6.683   5.270  10.026 -0.0315  0.6181 -1.3319
   49CHL1   H2B 6081   6.857   5.271   9.980  0.5287  0.5652  2.6718
   49CHL1   C20 6082   6.702   4.949   9.086 -0.3638  0.6852  0.0423
   49CHL1   H20 6083   6.803   4.979   9.050 -0.6646  1.8664  0.1547
   49CHL1   C21 6084   6.608   5.069   9.073  0.2346 -0.4686  0.1958
   49CHL1  H21A 6085   6.502   5.036   9.061  0.0345  0.6000 -1.3800
   49CHL1  H21B 6086   6.635   5.132   8.985 -3.5241  1.3441  0.1526
   49CHL1  H21C 6087   6.619   5.141   9.156 -2.0458  1.3317 -0.9333
   49CHL1   C22 6088   6.649   4.847   8.980  0.6763 -0.7890 -0.4676
   49CHL1  H22A 6089   6.679   4.746   9.013  1.5186  0.0737  1.5862
   49CHL1  H22B 6090   6.539   4.854   8.969  0.4744  0.5725  1.7028
   49CHL1   C23 6091   6.706   4.874   8.837  0.2580 -0.4312 -0.6192
   49CHL1  H23A 6092   6.664   4.970   8.801  1.9523  0.7362  0.3807
   49CHL1  H23B 6093   6.816   4.878   8.857 -0.2173 -0.5992  2.4525
   49CHL1   C24 6094   6.679   4.756   8.747  0.1287 -0.6505 -0.1316
   49CHL1  H24A 6095   6.720   4.667   8.800 -0.3284  0.1669  1.6502
   49CHL1  H24B 6096   6.569   4.741   8.749 -0.2619  1.4729 -2.0490
   49CHL1   C25 6097   6.719   4.776   8.602 -0.4994  0.0619  0.5644
   49CHL1   H25 6098   6.667   4.857   8.546  1.8953  0.1817 -1.7009
   49CHL1   C26 6099   6.869   4.818   8.582  0.6406 -0.0776  0.4121
   49CHL1  H26A 6100   6.931   4.760   8.654  0.6354 -0.7668 -0.1360
   49CHL1  H26B 6101   6.907   4.799   8.480 -1.6257  0.6523 -0.6315
   49CHL1  H26C 6102   6.884   4.924   8.613  1.4949 -0.7335  2.3938
   49CHL1   C27 6103   6.686   4.650   8.520 -0.3526 -0.5336  0.0356
   49CHL1  H27A 6104   6.760   4.567   8.522 -0.4290 -0.6693 -1.3447
   49CHL1  H27B 6105   6.588   4.608   8.552 -0.1864  0.0893  1.4089
   49CHL1  H27C 6106   6.675   4.674   8.412  0.7016 -0.8891 -0.1600
   50CHL1    C3 6107   1.860   6.828  10.007 -0.6260 -0.2711 -0.2383
   50CHL1    H3 6108   1.759   6.860   9.973 -1.8267 -3.8786 -0.4493
   50CHL1    O3 6109   1.881   6.863  10.148 -0.0457  0.6796  0.3390
   50CHL1   H3' 6110   1.972   6.838  10.166 -0.2447 -0.1809  0.2017
   50CHL1    C4 6111   1.869   6.676   9.994 -0.4708  0.1150  0.1393
   50CHL1   H4A 6112   1.958   6.646  10.054  0.4860  2.1208 -0.1833
   50CHL1   H4B 6113   1.785   6.626  10.047  0.6178 -0.1795  1.6659
   50CHL1    C5 6114   1.893   6.634   9.851  0.3243 -0.2987 -0.1316
   50CHL1    C6 6115   1.815   6.532   9.799 -0.6524  0.0077 -0.2865
   50CHL1    H6 6116   1.747   6.478   9.867  0.3397 -1.5549 -0.4782
   50CHL1    C7 6117   1.827   6.471   9.667 -0.4561 -1.2520 -0.3609
   50CHL1   H7A 6118   1.833   6.362   9.690 -0.6355 -0.8777  1.6168
   50CHL1   H7B 6119   1.727   6.480   9.619 -0.6993 -3.0704 -0.2717
   50CHL1    C8 6120   1.939   6.531   9.589 -0.0886  0.6687 -0.7260
   50CHL1    H8 6121   2.029   6.478   9.627 -1.3309 -0.6000  0.5846
   50CHL1   C14 6122   1.919   6.507   9.442  0.0663  0.6287 -0.0152
   50CHL1   H14 6123   1.822   6.560   9.433 -1.4915 -2.0018  0.1521
   50CHL1   C15 6124   1.881   6.365   9.385  1.3179 -0.0879 -0.3786
   50CHL1  H15A 6125   1.940   6.289   9.441 -0.4723 -1.2098  0.0676
   50CHL1  H15B 6126   1.775   6.345   9.411  1.3793 -1.1074 -0.8594
   50CHL1   C16 6127   1.917   6.374   9.237  0.0370  0.3152 -0.1093
   50CHL1  H16A 6128   2.002   6.307   9.212 -1.4770 -2.3617  1.4415
   50CHL1  H16B 6129   1.833   6.356   9.166  2.3901  0.6006 -3.1910
   50CHL1   C17 6130   1.978   6.518   9.214  0.2426 -0.2584 -0.4128
   50CHL1   H17 6131   1.890   6.580   9.186  0.3849 -0.7682 -2.1003
   50CHL1   C13 6132   2.027   6.560   9.350 -0.6963  0.2464  0.5152
   50CHL1   C18 6133   2.158   6.482   9.382  0.1795  0.4241  0.2204
   50CHL1  H18A 6134   2.152   6.373   9.365  2.3667  0.4114 -0.7242
   50CHL1  H18B 6135   2.244   6.514   9.320  1.3180 -0.0782  1.5050
   50CHL1  H18C 6136   2.188   6.497   9.488  1.7623 -1.7188  0.1315
   50CHL1   C12 6137   2.029   6.708   9.369 -0.3349  0.1330 -0.1343
   50CHL1  H12A 6138   2.104   6.763   9.308 -0.3050 -0.1558 -0.3602
   50CHL1  H12B 6139   1.929   6.744   9.334  0.5977  0.7065 -2.4053
   50CHL1   C11 6140   2.063   6.739   9.514 -0.0934  0.2691  0.3174
   50CHL1  H11A 6141   2.157   6.686   9.540 -0.3316 -0.4696 -0.3188
   50CHL1  H11B 6142   2.058   6.847   9.540 -0.6082  0.0066  1.3519
   50CHL1    C9 6143   1.954   6.682   9.612 -0.4573  0.6431 -0.1598
   50CHL1    H9 6144   1.857   6.727   9.583 -0.4496  0.2975 -0.7193
   50CHL1   C10 6145   1.988   6.715   9.760 -0.2832 -0.0589 -0.0705
   50CHL1   C19 6146   2.134   6.680   9.789  0.0051 -0.2419  0.1300
   50CHL1  H19A 6147   2.198   6.753   9.735 -2.7063  2.8466  0.7849
   50CHL1  H19B 6148   2.154   6.694   9.898 -0.0273 -1.1938  0.2694
   50CHL1  H19C 6149   2.159   6.574   9.769 -0.6214 -0.1693 -1.0899
   50CHL1    C1 6150   1.965   6.864   9.791  0.0604 -0.9852 -0.2948
   50CHL1   H1A 6151   2.046   6.917   9.736  0.3615  0.5526  1.5078
   50CHL1   H1B 6152   1.874   6.902   9.740  1.0900  1.3273 -0.5641
   50CHL1    C2 6153   1.962   6.906   9.936 -0.1699  0.0043  0.9807
   50CHL1   H2A 6154   1.948   7.016   9.935 -1.4818  0.0031 -3.6714
   50CHL1   H2B 6155   2.067   6.885   9.967  0.4139  0.8372 -0.3326
   50CHL1   C20 6156   2.079   6.517   9.095  0.5297  0.1405 -1.0128
   50CHL1   H20 6157   2.174   6.478   9.139 -0.1189 -1.0018 -0.5789
   50CHL1   C21 6158   2.099   6.658   9.050  0.0579  0.1013  0.0634
   50CHL1  H21A 6159   2.143   6.717   9.133  0.6651 -0.5971  0.2527
   50CHL1  H21B 6160   2.006   6.702   9.007  0.0403 -1.4549 -1.5976
   50CHL1  H21C 6161   2.166   6.661   8.963 -2.0359  1.8090 -1.5971
   50CHL1   C22 6162   2.033   6.430   8.974 -0.2109 -0.3007 -0.0414
   50CHL1  H22A 6163   2.037   6.326   9.013  1.2796  0.0155  0.7402
   50CHL1  H22B 6164   1.926   6.448   8.952  0.1200 -1.8685 -3.5741
   50CHL1   C23 6165   2.134   6.436   8.849 -0.1903 -0.6358 -0.0953
   50CHL1  H23A 6166   2.130   6.534   8.798  0.8817  0.0154  1.0291
   50CHL1  H23B 6167   2.229   6.432   8.908 -0.1694  0.1854 -0.0697
   50CHL1   C24 6168   2.127   6.314   8.756  0.0049 -0.2211  0.1959
   50CHL1  H24A 6169   2.158   6.214   8.794  1.4221  0.0916 -0.0707
   50CHL1  H24B 6170   2.024   6.309   8.716 -0.6864  1.6931  1.5739
   50CHL1   C25 6171   2.219   6.335   8.632 -0.9165  0.6285  0.2132
   50CHL1   H25 6172   2.191   6.422   8.570  1.9493  2.7366  1.6216
   50CHL1   C26 6173   2.367   6.371   8.667  0.3025  0.1646  0.0001
   50CHL1  H26A 6174   2.365   6.469   8.721 -1.2535  1.6122 -2.4798
   50CHL1  H26B 6175   2.428   6.296   8.721 -1.3202 -2.2395 -1.3375
   50CHL1  H26C 6176   2.412   6.386   8.567  0.2956  1.9656  0.2345
   50CHL1   C27 6177   2.226   6.208   8.535  0.2039  0.3795  0.0423
   50CHL1  H27A 6178   2.128   6.185   8.489 -0.1905 -0.5792  1.3028
   50CHL1  H27B 6179   2.305   6.208   8.457  0.6398 -0.7512  0.4661
   50CHL1  H27C 6180   2.252   6.121   8.599 -0.3579  0.1722 -0.0077
   51CHL1    C3 6181   4.421   1.051  10.249 -0.4995  0.2418  0.4696
   51CHL1    H3 6182   4.329   1.090  10.201 -1.2652  0.1039  1.7605
   51CHL1    O3 6183   4.384   1.017  10.378 -0.0560  0.2521  0.0714
   51CHL1   H3' 6184   4.373   1.097  10.430  2.2111 -0.0135  1.0855
   51CHL1    C4 6185   4.487   0.929  10.164 -0.3344  0.3473 -0.9123
   51CHL1   H4A 6186   4.579   0.900  10.218 -0.7259 -0.1305 -0.5015
   51CHL1   H4B 6187   4.406   0.853  10.165  0.5040 -0.7377  3.6245
   51CHL1    C5 6188   4.530   0.979  10.028 -0.5970 -1.0178 -0.3272
   51CHL1    C6 6189   4.484   0.916   9.920 -0.4734  0.0727 -0.7047
   51CHL1    H6 6190   4.421   0.826   9.929  0.4495 -0.6267 -1.0886
   51CHL1    C7 6191   4.526   0.956   9.780 -0.8215 -0.0066 -1.0481
   51CHL1   H7A 6192   4.560   0.870   9.718  2.8873  2.5615 -2.9810
   51CHL1   H7B 6193   4.437   1.005   9.736 -1.4848  0.8643  1.1591
   51CHL1    C8 6194   4.645   1.057   9.774  0.2457 -0.3713 -0.6030
   51CHL1    H8 6195   4.732   0.991   9.795  0.9271  1.3653  2.5810
   51CHL1   C14 6196   4.657   1.124   9.640  1.1603 -0.2314  0.0063
   51CHL1   H14 6197   4.563   1.182   9.626  1.5024  0.5888  0.9800
   51CHL1   C15 6198   4.678   1.028   9.521  0.1808  0.0110  0.8197
   51CHL1  H15A 6199   4.752   0.956   9.563  1.5966  0.5553 -0.6363
   51CHL1  H15B 6200   4.589   0.972   9.486  0.7815  0.6366 -1.9399
   51CHL1   C16 6201   4.739   1.123   9.418  0.7965  0.4341  0.6205
   51CHL1  H16A 6202   4.838   1.081   9.392  1.0051  1.0587  0.3896
   51CHL1  H16B 6203   4.679   1.127   9.325 -0.0145 -0.9211  1.0689
   51CHL1   C17 6204   4.765   1.264   9.482 -0.0419 -0.1941 -0.4797
   51CHL1   H17 6205   4.673   1.324   9.465  0.2140  0.4882  0.4356
   51CHL1   C13 6206   4.765   1.227   9.636  0.0233 -0.7283  0.4271
   51CHL1   C18 6207   4.908   1.170   9.682 -0.2707  0.4576  0.6498
   51CHL1  H18A 6208   4.891   1.107   9.772 -0.1173  0.2711  0.5491
   51CHL1  H18B 6209   4.953   1.119   9.595 -0.0897  0.2931  0.8402
   51CHL1  H18C 6210   4.979   1.243   9.727  1.0573 -1.3753  1.6665
   51CHL1   C12 6211   4.730   1.344   9.734 -0.8188  0.6701 -0.0850
   51CHL1  H12A 6212   4.799   1.430   9.746 -2.0358  1.5702  0.7424
   51CHL1  H12B 6213   4.629   1.386   9.713 -1.0342  0.9186  1.3780
   51CHL1   C11 6214   4.727   1.279   9.868  0.0254  1.0057 -0.8031
   51CHL1  H11A 6215   4.824   1.256   9.918 -0.5481  1.0222  0.3600
   51CHL1  H11B 6216   4.691   1.362   9.933 -2.1116 -0.5752  0.1347
   51CHL1    C9 6217   4.624   1.164   9.884  0.3392  0.5207  0.6442
   51CHL1    H9 6218   4.530   1.219   9.862  0.9356  1.1430 -0.4774
   51CHL1   C10 6219   4.618   1.101  10.030  0.1577 -0.0996 -0.0550
   51CHL1   C19 6220   4.757   1.052  10.079  0.1695  0.4192  0.2719
   51CHL1  H19A 6221   4.739   1.024  10.185 -2.7999 -0.8416 -0.4477
   51CHL1  H19B 6222   4.799   0.971  10.017  1.5518  0.7129  0.8018
   51CHL1  H19C 6223   4.835   1.130  10.084  0.7204 -0.1724  1.1123
   51CHL1    C1 6224   4.568   1.213  10.123 -0.0874 -0.0276  0.4534
   51CHL1   H1A 6225   4.653   1.283  10.140 -1.9776  3.4633 -2.8155
   51CHL1   H1B 6226   4.483   1.268  10.077  2.0454  1.6525 -1.8283
   51CHL1    C2 6227   4.526   1.156  10.262  0.0456  0.2858 -0.6144
   51CHL1   H2A 6228   4.496   1.237  10.332 -0.7113  0.5701 -1.2534
   51CHL1   H2B 6229   4.608   1.112  10.322 -0.7131 -1.1219 -0.5777
   51CHL1   C20 6230   4.891   1.336   9.432  0.4446  0.2281 -0.4288
   51CHL1   H20 6231   4.986   1.287   9.461  1.3924  2.8063  1.0637
   51CHL1   C21 6232   4.900   1.483   9.480  0.4634 -0.5557  0.1635
   51CHL1  H21A 6233   4.803   1.538   9.479  1.7416  1.8041 -0.9580
   51CHL1  H21B 6234   4.967   1.544   9.417  1.6588  0.4768  2.3051
   51CHL1  H21C 6235   4.940   1.477   9.584  1.0527  0.9134  0.0431
   51CHL1   C22 6236   4.900   1.335   9.276 -0.4259 -0.4317  0.3746
   51CHL1  H22A 6237   4.990   1.386   9.238 -1.0673  0.7130  0.3528
   51CHL1  H22B 6238   4.901   1.226   9.256 -0.8565 -0.4485  0.4203
   51CHL1   C23 6239   4.777   1.399   9.198  0.2065 -0.0421  0.0094
   51CHL1  H23A 6240   4.682   1.341   9.197  0.6272 -0.7429 -1.5403
   51CHL1  H23B 6241   4.757   1.487   9.263 -1.8282 -0.1002 -0.4963
   51CHL1   C24 6242   4.803   1.453   9.058  0.1259 -0.1483  0.2242
   51CHL1  H24A 6243   4.875   1.537   9.058 -0.1389  0.0964 -1.2154
   51CHL1  H24B 6244   4.845   1.368   9.000  0.7408  0.3170 -0.0225
   51CHL1   C25 6245   4.682   1.506   8.984  0.2216  0.0484 -0.4320
   51CHL1   H25 6246   4.618   1.416   8.998  0.0363  0.1662 -0.5228
   51CHL1   C26 6247   4.636   1.635   9.044 -0.2172 -0.4261  0.0975
   51CHL1  H26A 6248   4.548   1.680   8.995  1.3918  1.7949 -0.8900
   51CHL1  H26B 6249   4.618   1.626   9.153 -1.9529  1.4507 -0.0032
   51CHL1  H26C 6250   4.715   1.711   9.029 -0.8696 -0.2270 -2.8595
   51CHL1   C27 6251   4.693   1.514   8.835  0.1903 -0.0210  0.5579
   51CHL1  H27A 6252   4.786   1.572   8.814  1.1382 -1.9465 -0.9609
   51CHL1  H27B 6253   4.688   1.411   8.792 -0.0055  0.4256 -0.5147
   51CHL1  H27C 6254   4.608   1.566   8.787  0.7521 -0.2938 -0.7766
   52CHL1    C3 6255   0.262   0.711   9.771 -0.2678  0.0643  0.0924
   52CHL1    H3 6256   0.338   0.745   9.699  0.1199  0.7526  0.8087
   52CHL1    O3 6257   0.312   0.736   9.895  0.2890  0.5344 -0.2995
   52CHL1   H3' 6258   0.236   0.701   9.942  0.6307 -1.3098 -1.0370
   52CHL1    C4 6259   0.128   0.781   9.745 -0.8155 -0.3187  0.9176
   52CHL1   H4A 6260   0.064   0.759   9.833  1.1069 -0.1312  2.3988
   52CHL1   H4B 6261   0.151   0.889   9.749 -1.4154 -0.0902 -0.7970
   52CHL1    C5 6262   0.068   0.740   9.610  0.2361  0.1801 -0.6650
   52CHL1    C6 6263   0.043   0.827   9.512  0.1299  0.3508  0.1640
   52CHL1    H6 6264   0.056   0.935   9.528  0.6634  0.0999  1.5450
   52CHL1    C7 6265  -0.022   0.796   9.379 -0.3767 -0.0460  0.4452
   52CHL1   H7A 6266  -0.102   0.868   9.349  0.8990  0.0189 -3.2963
   52CHL1   H7B 6267   0.053   0.803   9.298  0.8333  1.3559  1.6229
   52CHL1    C8 6268  -0.099   0.663   9.384 -0.4114 -0.0818  0.1753
   52CHL1    H8 6269  -0.187   0.674   9.450 -2.0111 -1.2981 -1.6410
   52CHL1   C14 6270  -0.142   0.634   9.244  0.2328 -0.4183  0.5704
   52CHL1   H14 6271  -0.048   0.619   9.187  0.1872 -2.8372  1.0317
   52CHL1   C15 6272  -0.236   0.728   9.163 -0.8354 -0.4299 -0.4415
   52CHL1  H15A 6273  -0.303   0.793   9.223  1.4151 -1.1657  3.1720
   52CHL1  H15B 6274  -0.155   0.787   9.116  0.2346 -0.0346  1.7629
   52CHL1   C16 6275  -0.301   0.638   9.060  0.4294  0.0621 -0.1871
   52CHL1  H16A 6276  -0.411   0.639   9.073  0.3419  1.4041 -0.9038
   52CHL1  H16B 6277  -0.280   0.669   8.955 -0.4431 -1.3862 -0.8263
   52CHL1   C17 6278  -0.237   0.498   9.077 -0.1211 -0.5293  0.0207
   52CHL1   H17 6279  -0.139   0.493   9.026  0.3329 -0.4126  0.8638
   52CHL1   C13 6280  -0.203   0.489   9.227 -0.2564 -0.7700  0.4565
   52CHL1   C18 6281  -0.325   0.485   9.316 -0.1279  0.1348 -0.5467
   52CHL1  H18A 6282  -0.403   0.550   9.273  1.0157  1.9105 -0.0295
   52CHL1  H18B 6283  -0.370   0.383   9.321 -0.3205  0.2679  2.1736
   52CHL1  H18C 6284  -0.303   0.502   9.424 -0.3295 -1.1175 -0.2902
   52CHL1   C12 6285  -0.099   0.381   9.269 -0.2499  0.4055  0.8594
   52CHL1  H12A 6286  -0.152   0.286   9.247  0.6109 -0.4743  2.3686
   52CHL1  H12B 6287  -0.017   0.400   9.197  0.8768 -0.1974  1.9427
   52CHL1   C11 6288  -0.052   0.405   9.413 -0.7556 -0.3917 -0.0861
   52CHL1  H11A 6289  -0.139   0.388   9.479  0.6652  1.5969  2.4628
   52CHL1  H11B 6290   0.030   0.336   9.444 -0.9398 -0.1809  0.8903
   52CHL1    C9 6291   0.002   0.548   9.440  0.3623 -0.3308  1.0174
   52CHL1    H9 6292   0.090   0.568   9.375  0.6928  0.2465  1.6323
   52CHL1   C10 6293   0.044   0.582   9.587 -0.8084 -1.0617  0.6801
   52CHL1   C19 6294  -0.064   0.529   9.690 -0.8167 -0.6557  0.1897
   52CHL1  H19A 6295  -0.071   0.419   9.676 -0.1389 -0.4761 -1.9591
   52CHL1  H19B 6296  -0.039   0.545   9.797  1.5001 -1.5657 -0.1548
   52CHL1  H19C 6297  -0.162   0.576   9.666 -1.5613 -1.4828  1.5282
   52CHL1    C1 6298   0.189   0.513   9.619  0.6165  0.0990 -0.3045
   52CHL1   H1A 6299   0.177   0.402   9.625  0.2338  0.1807  0.5617
   52CHL1   H1B 6300   0.267   0.540   9.544  0.1642 -0.5531 -1.0254
   52CHL1    C2 6301   0.239   0.562   9.759 -1.1953  0.2360 -0.4404
   52CHL1   H2A 6302   0.340   0.522   9.781 -0.8646  1.1807 -0.1941
   52CHL1   H2B 6303   0.172   0.515   9.835  0.3914  0.4577  1.1601
   52CHL1   C20 6304  -0.322   0.380   9.014  0.3076 -1.0166 -0.0562
   52CHL1   H20 6305  -0.397   0.348   9.088 -0.7999  2.8884  0.7645
   52CHL1   C21 6306  -0.225   0.265   8.980  0.6591 -0.2517  0.0728
   52CHL1  H21A 6307  -0.130   0.306   8.939 -0.1043  1.9439  0.3196
   52CHL1  H21B 6308  -0.275   0.197   8.908 -1.2296  0.8019  0.3032
   52CHL1  H21C 6309  -0.207   0.206   9.073  3.7718  2.9416  1.7608
   52CHL1   C22 6310  -0.406   0.429   8.883  0.4403 -0.1426  0.0961
   52CHL1  H22A 6311  -0.466   0.520   8.901  0.1162 -0.4002  0.3131
   52CHL1  H22B 6312  -0.336   0.451   8.799 -0.8189  0.9321 -0.6981
   52CHL1   C23 6313  -0.509   0.328   8.829  0.0838  0.8108 -0.0328
   52CHL1  H23A 6314  -0.455   0.252   8.769 -0.1379 -1.5486  2.5727
   52CHL1  H23B 6315  -0.568   0.279   8.909  0.0447  0.4735 -0.2702
   52CHL1   C24 6316  -0.603   0.387   8.724 -0.0414  0.4599  0.1747
   52CHL1  H24A 6317  -0.698   0.435   8.756  0.2913  0.3967  1.2970
   52CHL1  H24B 6318  -0.551   0.464   8.663 -0.0039  1.2991  1.2350
   52CHL1   C25 6319  -0.643   0.273   8.618 -0.4141 -0.5690 -0.1634
   52CHL1   H25 6320  -0.554   0.209   8.598  1.0691  1.6688 -1.0696
   52CHL1   C26 6321  -0.745   0.181   8.682 -0.2913  0.5400  0.4725
   52CHL1  H26A 6322  -0.816   0.247   8.737 -0.4314  0.1395  0.7783
   52CHL1  H26B 6323  -0.794   0.128   8.597  0.5196 -1.2974  1.0978
   52CHL1  H26C 6324  -0.699   0.109   8.753  2.3385 -1.2154 -2.7641
   52CHL1   C27 6325  -0.709   0.341   8.504 -0.1101  0.0952 -0.6074
   52CHL1  H27A 6326  -0.630   0.366   8.430  0.5859 -1.0908 -0.2864
   52CHL1  H27B 6327  -0.782   0.275   8.453  3.5072 -4.5937 -0.3875
   52CHL1  H27C 6328  -0.744   0.439   8.544 -2.0549 -0.5969 -0.5549
   53CHL1    C3 6329   2.215   1.735  10.105 -0.3905 -0.1811 -0.4952
   53CHL1    H3 6330   2.115   1.687  10.096 -0.2082 -0.6814  0.0471
   53CHL1    O3 6331   2.246   1.758  10.246  0.0489  0.5286 -0.4442
   53CHL1   H3' 6332   2.339   1.780  10.253  1.4874 -4.4854  0.0415
   53CHL1    C4 6333   2.322   1.638  10.059 -0.2142  0.2624 -0.3649
   53CHL1   H4A 6334   2.424   1.676  10.080  1.1020 -2.6898 -0.8647
   53CHL1   H4B 6335   2.320   1.545  10.119 -2.0956  1.1587  1.0584
   53CHL1    C5 6336   2.310   1.621   9.910  0.0085 -0.1576  0.2550
   53CHL1    C6 6337   2.302   1.495   9.855 -0.1026 -0.4543  0.2716
   53CHL1    H6 6338   2.303   1.408   9.922  0.1589  1.3665  2.7617
   53CHL1    C7 6339   2.304   1.476   9.705  0.1642  0.3865 -0.5804
   53CHL1   H7A 6340   2.371   1.391   9.679  0.2325  1.0848 -2.9638
   53CHL1   H7B 6341   2.210   1.429   9.669 -1.2132  2.0160  0.7496
   53CHL1    C8 6342   2.336   1.601   9.619  0.8788  1.0114  0.4578
   53CHL1    H8 6343   2.447   1.613   9.616  0.8426  1.2040 -0.6720
   53CHL1   C14 6344   2.279   1.578   9.481  0.0631 -0.4318 -0.7449
   53CHL1   H14 6345   2.171   1.564   9.503  0.6242 -2.0200  1.3211
   53CHL1   C15 6346   2.328   1.451   9.410  0.7793 -0.4813 -0.1145
   53CHL1  H15A 6347   2.438   1.437   9.407  1.0968  1.5601 -3.2623
   53CHL1  H15B 6348   2.264   1.363   9.434  1.9517 -1.1574  0.6138
   53CHL1   C16 6349   2.301   1.483   9.257  0.0723  0.1248 -0.1475
   53CHL1  H16A 6350   2.392   1.474   9.195  1.0030  1.2843  0.9842
   53CHL1  H16B 6351   2.220   1.423   9.211  0.9167 -0.1559 -1.2946
   53CHL1   C17 6352   2.252   1.631   9.244 -0.7307 -0.0893  0.5844
   53CHL1   H17 6353   2.142   1.636   9.255 -0.7433 -1.4592  1.3846
   53CHL1   C13 6354   2.295   1.691   9.381  0.3283  0.1407 -0.3944
   53CHL1   C18 6355   2.445   1.726   9.373  0.0502  0.0348  0.1606
   53CHL1  H18A 6356   2.460   1.823   9.321 -0.2341  0.2613  0.4909
   53CHL1  H18B 6357   2.489   1.747   9.473  1.5036 -1.9391 -0.0165
   53CHL1  H18C 6358   2.508   1.637   9.350  0.9490  0.3817  1.2142
   53CHL1   C12 6359   2.216   1.815   9.433  0.0851  0.3879 -0.7158
   53CHL1  H12A 6360   2.231   1.903   9.366 -0.0663 -1.6209 -3.5820
   53CHL1  H12B 6361   2.109   1.785   9.440  0.3296 -0.1473  1.8784
   53CHL1   C11 6362   2.260   1.844   9.577 -0.2840 -0.1805  0.0132
   53CHL1  H11A 6363   2.355   1.899   9.565 -0.3109 -0.2774 -0.6656
   53CHL1  H11B 6364   2.191   1.922   9.615  0.3333 -0.3461  1.5368
   53CHL1    C9 6365   2.267   1.724   9.677  0.1165 -0.3470 -0.2384
   53CHL1    H9 6366   2.161   1.691   9.673 -0.1742  0.6216 -0.9750
   53CHL1   C10 6367   2.305   1.753   9.827  1.2281 -0.9678  0.3026
   53CHL1   C19 6368   2.447   1.817   9.826 -0.1681  0.4836  0.0765
   53CHL1  H19A 6369   2.499   1.817   9.924 -0.1184  0.0199  0.0519
   53CHL1  H19B 6370   2.516   1.764   9.758 -1.1153 -1.6527  0.7164
   53CHL1  H19C 6371   2.440   1.917   9.777 -0.6407 -0.2449 -1.3910
   53CHL1    C1 6372   2.196   1.845   9.883 -0.2297 -0.0414 -0.0400
   53CHL1   H1A 6373   2.204   1.943   9.832  0.2859 -0.4392 -0.7517
   53CHL1   H1B 6374   2.096   1.806   9.855  0.3701  0.4962 -3.3270
   53CHL1    C2 6375   2.216   1.870  10.036  0.1511 -0.2010  0.3263
   53CHL1   H2A 6376   2.130   1.932  10.069 -1.3498 -1.4454 -1.0438
   53CHL1   H2B 6377   2.301   1.934  10.066  0.0049  0.3574 -0.4344
   53CHL1   C20 6378   2.299   1.691   9.107  0.6980  0.2365 -0.0768
   53CHL1   H20 6379   2.409   1.691   9.090  0.5308  0.3917 -1.2645
   53CHL1   C21 6380   2.268   1.838   9.117  0.0001 -0.2219  0.2123
   53CHL1  H21A 6381   2.275   1.876   9.012 -0.0675 -0.5249  0.0971
   53CHL1  H21B 6382   2.352   1.887   9.169  1.0954 -0.2087 -1.4746
   53CHL1  H21C 6383   2.165   1.870   9.143  0.9748  1.8887  1.7423
   53CHL1   C22 6384   2.230   1.634   8.981  0.4540 -0.2702 -0.8761
   53CHL1  H22A 6385   2.249   1.713   8.906 -2.1350  0.1980 -1.1148
   53CHL1  H22B 6386   2.268   1.535   8.946  0.4318 -1.1035  1.2945
   53CHL1   C23 6387   2.070   1.617   8.983  0.2388  0.2108 -0.3578
   53CHL1  H23A 6388   2.051   1.548   9.068 -0.4463  0.7943 -0.0341
   53CHL1  H23B 6389   2.026   1.716   9.008  0.6415 -0.0003  1.3344
   53CHL1   C24 6390   2.018   1.555   8.855  0.0520 -0.2988 -0.6303
   53CHL1  H24A 6391   2.067   1.456   8.849  0.3567 -0.2486  0.6216
   53CHL1  H24B 6392   1.910   1.549   8.880  0.2575  1.4247  0.9535
   53CHL1   C25 6393   2.043   1.635   8.725  0.3253  0.0680 -0.1262
   53CHL1   H25 6394   2.149   1.668   8.732  0.9094 -1.6780 -0.1109
   53CHL1   C26 6395   2.037   1.549   8.603 -0.6307 -0.2853  0.9180
   53CHL1  H26A 6396   2.073   1.599   8.511  1.0921 -2.7519  0.1614
   53CHL1  H26B 6397   2.116   1.471   8.608 -0.1219  0.0509 -1.1211
   53CHL1  H26C 6398   1.934   1.512   8.584 -0.7183  0.0475  0.7253
   53CHL1   C27 6399   1.952   1.760   8.710  0.2491  0.1963  0.8327
   53CHL1  H27A 6400   1.999   1.828   8.636 -1.8566 -0.9084 -1.6809
   53CHL1  H27B 6401   1.855   1.724   8.670 -0.5416  0.3792  2.4928
   53CHL1  H27C 6402   1.941   1.822   8.802 -0.2488 -0.7508  1.4238
   54CHL1    C3 6403   1.711   3.773  10.160  0.1196 -0.2762 -0.5838
   54CHL1    H3 6404   1.611   3.726  10.166  0.9960 -2.0706  1.2803
   54CHL1    O3 6405   1.776   3.783  10.289  0.0071 -0.0078 -0.6166
   54CHL1   H3' 6406   1.740   3.864  10.327 -0.7383 -0.3853 -0.5051
   54CHL1    C4 6407   1.793   3.676  10.078 -0.4402 -0.5539  0.1300
   54CHL1   H4A 6408   1.901   3.702  10.089 -0.2092 -2.2618  2.5975
   54CHL1   H4B 6409   1.778   3.576  10.123 -1.3959  0.2089  1.5786
   54CHL1    C5 6410   1.749   3.683   9.932  0.5871 -0.7703  0.6843
   54CHL1    C6 6411   1.704   3.571   9.865 -0.3766 -0.7950  0.4644
   54CHL1    H6 6412   1.712   3.476   9.918  1.5897  0.0273  1.7454
   54CHL1    C7 6413   1.661   3.566   9.718 -0.0513 -0.1795  0.4654
   54CHL1   H7A 6414   1.686   3.473   9.664  0.7518  1.7315 -2.7393
   54CHL1   H7B 6415   1.550   3.562   9.722 -0.0868  1.0322  2.3170
   54CHL1    C8 6416   1.710   3.692   9.646 -0.3006  0.1603  0.9147
   54CHL1    H8 6417   1.820   3.683   9.635 -0.1331  0.1485  2.4260
   54CHL1   C14 6418   1.637   3.698   9.516  0.2589 -0.1300  0.3337
   54CHL1   H14 6419   1.528   3.718   9.528  0.6260  2.0404  0.4332
   54CHL1   C15 6420   1.629   3.570   9.420 -0.1739  0.1616 -0.1364
   54CHL1  H15A 6421   1.728   3.521   9.434 -1.1311 -2.5495 -1.9218
   54CHL1  H15B 6422   1.551   3.496   9.447 -0.0842 -0.1099 -0.6041
   54CHL1   C16 6423   1.621   3.622   9.273 -0.1967  0.1759 -0.0090
   54CHL1  H16A 6424   1.714   3.583   9.225  0.3380 -0.9390  1.8210
   54CHL1  H16B 6425   1.534   3.572   9.227  0.9681 -1.6454 -0.3450
   54CHL1   C17 6426   1.602   3.775   9.293 -0.0485 -0.2252  0.0247
   54CHL1   H17 6427   1.493   3.792   9.304 -0.6274 -3.1735 -0.4125
   54CHL1   C13 6428   1.678   3.811   9.429 -0.3634 -0.2644  0.2237
   54CHL1   C18 6429   1.832   3.805   9.407 -0.3547 -0.4707 -0.5431
   54CHL1  H18A 6430   1.890   3.803   9.502 -1.6061  0.6370  0.2838
   54CHL1  H18B 6431   1.863   3.717   9.347  2.0657  0.9702 -1.5463
   54CHL1  H18C 6432   1.871   3.892   9.350  1.6381 -0.8358  0.1627
   54CHL1   C12 6433   1.647   3.949   9.495  0.2754  0.4023  0.6418
   54CHL1  H12A 6434   1.685   4.036   9.438  0.8628 -1.1737 -1.4880
   54CHL1  H12B 6435   1.536   3.950   9.504  0.1912 -0.8417  0.0692
   54CHL1   C11 6436   1.713   3.954   9.631 -0.3324  0.0721 -0.3218
   54CHL1  H11A 6437   1.823   3.962   9.622  0.0191  0.6034  3.1039
   54CHL1  H11B 6438   1.671   4.044   9.680 -1.8690 -0.2512 -0.9812
   54CHL1    C9 6439   1.681   3.825   9.723 -0.1627 -0.7613  0.2177
   54CHL1    H9 6440   1.570   3.822   9.726 -0.4649 -0.0633 -3.8092
   54CHL1   C10 6441   1.746   3.826   9.866 -0.4029  0.1384 -0.0625
   54CHL1   C19 6442   1.895   3.883   9.868  0.1581  0.2642  0.5356
   54CHL1  H19A 6443   1.903   3.989   9.837 -1.1020  0.3543  0.4626
   54CHL1  H19B 6444   1.943   3.861   9.966  1.9325 -1.8015 -0.7065
   54CHL1  H19C 6445   1.946   3.816   9.796  0.1961  0.7261  0.1332
   54CHL1    C1 6446   1.657   3.916   9.956  0.6759  0.2816 -0.2738
   54CHL1   H1A 6447   1.660   4.020   9.917  1.0149 -0.0416 -1.1268
   54CHL1   H1B 6448   1.557   3.868   9.954 -0.0481  1.6776  0.5172
   54CHL1    C2 6449   1.702   3.916  10.102  0.0320 -0.5067  0.3725
   54CHL1   H2A 6450   1.620   3.973  10.153 -0.8612 -0.9734 -0.5079
   54CHL1   H2B 6451   1.798   3.971  10.101 -0.5659  0.8134 -3.8289
   54CHL1   C20 6452   1.651   3.855   9.163 -0.7248 -0.1444 -0.6370
   54CHL1   H20 6453   1.692   3.954   9.194  0.2267  0.0015 -2.2550
   54CHL1   C21 6454   1.526   3.881   9.081 -0.2827 -0.0138 -0.3621
   54CHL1  H21A 6455   1.494   3.787   9.032 -0.5939 -0.8565  1.3929
   54CHL1  H21B 6456   1.536   3.946   8.991  0.3018 -1.3847 -1.3187
   54CHL1  H21C 6457   1.457   3.934   9.150  0.0290 -0.7329  0.5184
   54CHL1   C22 6458   1.767   3.787   9.078 -0.1193  0.1197  0.5323
   54CHL1  H22A 6459   1.865   3.792   9.130  0.4226  0.1803 -0.4720
   54CHL1  H22B 6460   1.732   3.686   9.049  2.3559 -0.8511  0.6769
   54CHL1   C23 6461   1.792   3.850   8.937  0.3376  0.2909 -0.0801
   54CHL1  H23A 6462   1.867   3.785   8.887 -1.0906 -1.3806 -0.1266
   54CHL1  H23B 6463   1.698   3.860   8.879 -0.0247  1.7741  0.7059
   54CHL1   C24 6464   1.837   4.001   8.933 -0.4856  0.6096  0.2678
   54CHL1  H24A 6465   1.755   4.064   8.974 -1.0613 -0.5314  0.8882
   54CHL1  H24B 6466   1.927   4.010   8.997  0.3073 -2.1396 -0.3379
   54CHL1   C25 6467   1.873   4.053   8.792  0.1040  0.3875  0.6308
   54CHL1   H25 6468   1.932   3.980   8.733 -1.1298  0.7264 -1.1201
   54CHL1   C26 6469   1.754   4.086   8.706  0.3381  0.1537  0.0116
   54CHL1  H26A 6470   1.694   4.168   8.750  2.1600  1.6511 -0.1819
   54CHL1  H26B 6471   1.782   4.114   8.602  0.1093 -1.4020 -0.4986
   54CHL1  H26C 6472   1.702   3.988   8.699  0.9877 -0.4934  2.9064
   54CHL1   C27 6473   1.958   4.181   8.803 -0.4686 -0.0421  0.5844
   54CHL1  H27A 6474   2.002   4.221   8.709  0.7126  0.1273  1.1873
   54CHL1  H27B 6475   1.892   4.263   8.839 -0.6476 -0.6980  1.8302
   54CHL1  H27C 6476   2.041   4.168   8.876  1.1501  2.1520 -0.7611
   55CHL1    C3 6477   1.350   0.660  10.040  0.5500 -0.3814 -0.3829
   55CHL1    H3 6478   1.289   0.581   9.991 -0.4022  0.4454 -0.5767
   55CHL1    O3 6479   1.416   0.610  10.153 -0.1842  0.1997 -0.1833
   55CHL1   H3' 6480   1.466   0.680  10.197  1.3097 -0.6007 -0.5449
   55CHL1    C4 6481   1.461   0.693   9.931  0.4133  0.4873 -0.4704
   55CHL1   H4A 6482   1.536   0.758   9.982 -1.3217  1.6945  0.6422
   55CHL1   H4B 6483   1.514   0.596   9.916  0.3349  0.4823 -0.7035
   55CHL1    C5 6484   1.413   0.760   9.810  0.3271 -0.1029  0.9104
   55CHL1    C6 6485   1.440   0.702   9.691  0.4252 -0.3670  0.3582
   55CHL1    H6 6486   1.504   0.613   9.682  0.5536 -0.1201 -1.3534
   55CHL1    C7 6487   1.396   0.745   9.551 -0.4760 -0.0418 -0.2349
   55CHL1   H7A 6488   1.481   0.749   9.480 -0.1119 -1.3155  0.0976
   55CHL1   H7B 6489   1.338   0.661   9.507  1.3613 -0.3255 -2.2643
   55CHL1    C8 6490   1.314   0.876   9.561 -0.7930 -0.6533 -0.3468
   55CHL1    H8 6491   1.382   0.964   9.564 -0.8106 -0.6560  0.1579
   55CHL1   C14 6492   1.230   0.877   9.438 -0.1330  0.1719 -0.3059
   55CHL1   H14 6493   1.172   0.783   9.449  2.1292 -1.1171  1.4839
   55CHL1   C15 6494   1.302   0.863   9.303  0.0817  0.2096 -0.9913
   55CHL1  H15A 6495   1.393   0.926   9.296  0.1256  0.5414  1.6026
   55CHL1  H15B 6496   1.335   0.758   9.289 -0.1437 -0.0913  0.6230
   55CHL1   C16 6497   1.197   0.896   9.199  0.7079  0.1655 -0.2201
   55CHL1  H16A 6498   1.232   0.980   9.135  0.4027  1.4507  1.2524
   55CHL1  H16B 6499   1.163   0.814   9.132  0.0468  1.3175 -1.3465
   55CHL1   C17 6500   1.073   0.945   9.283  0.1639 -0.7482 -0.4640
   55CHL1   H17 6501   1.018   0.850   9.301 -0.7463 -0.0658  0.4607
   55CHL1   C13 6502   1.127   0.983   9.422 -0.6385  0.3789 -0.3544
   55CHL1   C18 6503   1.191   1.118   9.401  0.2165 -0.3086 -0.2374
   55CHL1  H18A 6504   1.266   1.137   9.480 -0.5357 -0.2140  0.4721
   55CHL1  H18B 6505   1.249   1.134   9.308  0.5438 -1.3901 -0.2234
   55CHL1  H18C 6506   1.118   1.202   9.400 -1.8587 -1.9622  1.8445
   55CHL1   C12 6507   1.036   0.975   9.557 -0.9686 -0.4159  0.7369
   55CHL1  H12A 6508   0.960   1.056   9.560  2.8099  3.4524  2.1655
   55CHL1  H12B 6509   0.993   0.873   9.560  1.8563 -1.6937  0.5572
   55CHL1   C11 6510   1.128   0.997   9.677  0.2066 -0.7223  0.1506
   55CHL1  H11A 6511   1.179   1.096   9.675 -0.8293 -0.1534  0.9343
   55CHL1  H11B 6512   1.063   1.002   9.767  2.4022 -2.0642  1.9163
   55CHL1    C9 6513   1.228   0.880   9.687 -0.2840 -0.7114  1.0511
   55CHL1    H9 6514   1.157   0.795   9.680 -0.1015 -0.7360 -1.8827
   55CHL1   C10 6515   1.308   0.875   9.823 -0.6083  0.0356 -0.6735
   55CHL1   C19 6516   1.374   1.012   9.848  0.3515  0.1188  0.2908
   55CHL1  H19A 6517   1.417   1.063   9.759  1.9310 -0.6535  0.5859
   55CHL1  H19B 6518   1.290   1.079   9.875 -0.1816 -1.1483  1.9544
   55CHL1  H19C 6519   1.435   1.011   9.941  0.2745  0.8211  0.3585
   55CHL1    C1 6520   1.212   0.843   9.938  0.1547 -0.1037 -0.1754
   55CHL1   H1A 6521   1.151   0.931   9.968 -0.9692  0.5953 -4.0030
   55CHL1   H1B 6522   1.143   0.764   9.902  0.0252  0.3468 -0.9283
   55CHL1    C2 6523   1.273   0.796  10.072  0.0721  0.0657 -0.4501
   55CHL1   H2A 6524   1.192   0.778  10.146  0.5878 -0.6049 -0.0466
   55CHL1   H2B 6525   1.348   0.870  10.107 -0.2732 -0.5180  1.6850
   55CHL1   C20 6526   0.972   1.031   9.207  0.1273 -0.9695 -0.4954
   55CHL1   H20 6527   1.028   1.122   9.175  0.7441 -0.8717  0.8114
   55CHL1   C21 6528   0.858   1.075   9.300 -0.1671 -0.1694  0.8933
   55CHL1  H21A 6529   0.816   0.986   9.351 -0.1545 -0.8241 -0.2167
   55CHL1  H21B 6530   0.771   1.112   9.244 -0.0181 -0.0574  0.7352
   55CHL1  H21C 6531   0.898   1.147   9.375  1.4582  0.5620 -0.5962
   55CHL1   C22 6532   0.916   0.969   9.076 -0.0644  0.2866 -0.4463
   55CHL1  H22A 6533   1.002   0.923   9.022 -1.3474 -0.7782 -1.6618
   55CHL1  H22B 6534   0.850   0.889   9.116 -2.6333  0.9237 -3.0950
   55CHL1   C23 6535   0.827   1.063   8.988  0.1383  0.4767 -0.0086
   55CHL1  H23A 6536   0.742   1.097   9.051  0.6205 -1.4306  1.7866
   55CHL1  H23B 6537   0.890   1.153   8.972  0.7650 -0.0555 -0.5952
   55CHL1   C24 6538   0.777   0.994   8.866 -0.0089  0.1938  0.2386
   55CHL1  H24A 6539   0.861   0.952   8.806 -0.5845 -1.5356  0.5728
   55CHL1  H24B 6540   0.715   0.903   8.877 -0.4222  0.0752 -2.3638
   55CHL1   C25 6541   0.689   1.086   8.782  0.2505 -0.6911  0.4510
   55CHL1   H25 6542   0.738   1.185   8.772 -0.0673 -0.4340  1.3897
   55CHL1   C26 6543   0.676   1.025   8.640  0.0063  0.2245 -0.3761
   55CHL1  H26A 6544   0.773   1.031   8.586 -0.8486  1.2383 -1.8963
   55CHL1  H26B 6545   0.643   0.919   8.647 -3.7545  1.2923  0.2118
   55CHL1  H26C 6546   0.594   1.072   8.581 -1.7619 -1.8193  0.3269
   55CHL1   C27 6547   0.548   1.093   8.851  0.4639  0.0698 -0.0934
   55CHL1  H27A 6548   0.469   1.133   8.783 -1.0029 -2.1280  0.2405
   55CHL1  H27B 6549   0.526   0.986   8.866  0.6324  0.1380  0.6695
   55CHL1  H27C 6550   0.548   1.149   8.947  1.5767  1.3751 -0.8139
   56CHL1    C3 6551   1.461   4.586   9.973 -0.0470 -0.5649  0.0138
   56CHL1    H3 6552   1.519   4.516   9.909 -1.5846 -1.7217 -0.1858
   56CHL1    O3 6553   1.466   4.556  10.111  0.0129  0.1121 -0.5074
   56CHL1   H3' 6554   1.443   4.632  10.164  1.3025 -0.2958  0.7085
   56CHL1    C4 6555   1.514   4.723   9.950  0.0103  0.3344  0.0889
   56CHL1   H4A 6556   1.450   4.796  10.004 -0.5997  0.2631 -0.5307
   56CHL1   H4B 6557   1.615   4.730   9.995 -1.0500 -0.1336  2.7150
   56CHL1    C5 6558   1.498   4.765   9.810 -0.3097 -0.4699  0.1531
   56CHL1    C6 6559   1.608   4.813   9.744  0.5737 -0.6004  0.0341
   56CHL1    H6 6560   1.702   4.829   9.799  0.1985 -0.3536  0.6078
   56CHL1    C7 6561   1.615   4.846   9.602 -0.2793 -0.2354  0.8787
   56CHL1   H7A 6562   1.670   4.941   9.580  0.5643 -1.1709 -1.4091
   56CHL1   H7B 6563   1.670   4.768   9.545 -0.8304 -0.2585  0.3589
   56CHL1    C8 6564   1.478   4.861   9.533  0.2246  0.3584  0.4817
   56CHL1    H8 6565   1.442   4.965   9.545 -1.5538 -0.0205 -1.1258
   56CHL1   C14 6566   1.497   4.846   9.383 -0.3389  0.6901  0.1203
   56CHL1   H14 6567   1.523   4.739   9.368 -2.8391 -0.1625  1.3894
   56CHL1   C15 6568   1.614   4.923   9.316 -0.1810 -0.7697  0.0517
   56CHL1  H15A 6569   1.597   5.027   9.349 -1.6545 -1.2188  0.7946
   56CHL1  H15B 6570   1.714   4.888   9.349  0.3388  1.7205  1.3610
   56CHL1   C16 6571   1.571   4.916   9.172 -0.6496  0.3622  0.1395
   56CHL1  H16A 6572   1.567   5.018   9.129  2.4361  0.4744 -0.0888
   56CHL1  H16B 6573   1.652   4.853   9.128  2.1130  2.7592  1.4211
   56CHL1   C17 6574   1.430   4.850   9.163 -0.1125 -0.0897 -0.7950
   56CHL1   H17 6575   1.440   4.740   9.148 -0.2920 -0.1545 -0.4622
   56CHL1   C13 6576   1.369   4.871   9.303  0.3915 -0.5808  0.0327
   56CHL1   C18 6577   1.313   5.011   9.323  0.4731  0.0206 -0.0249
   56CHL1  H18A 6578   1.233   5.025   9.246 -0.0460 -1.1940  0.2572
   56CHL1  H18B 6579   1.270   5.023   9.425  0.2885  0.0697 -0.1081
   56CHL1  H18C 6580   1.394   5.083   9.299  2.2253 -0.9607  2.5664
   56CHL1   C12 6581   1.267   4.763   9.347 -0.1274 -0.6096  0.2394
   56CHL1  H12A 6582   1.164   4.764   9.306 -0.6215  3.1623  1.1806
   56CHL1  H12B 6583   1.309   4.665   9.315 -1.2148 -0.4305 -1.9353
   56CHL1   C11 6584   1.248   4.763   9.501 -0.4465  0.1928  0.1727
   56CHL1  H11A 6585   1.177   4.845   9.523 -2.7352 -1.5882 -0.2710
   56CHL1  H11B 6586   1.197   4.669   9.529  0.3667 -0.8934 -1.7511
   56CHL1    C9 6587   1.374   4.763   9.584 -0.3073 -0.2748  0.1589
   56CHL1    H9 6588   1.406   4.661   9.556 -1.3982 -0.7992  0.7705
   56CHL1   C10 6589   1.362   4.753   9.736  0.9430  0.3634  0.2927
   56CHL1   C19 6590   1.264   4.860   9.784 -0.9299  0.3223  0.4690
   56CHL1  H19A 6591   1.306   4.960   9.760 -0.2116  0.4018  1.9579
   56CHL1  H19B 6592   1.163   4.849   9.738 -0.0343 -3.1573 -1.0300
   56CHL1  H19C 6593   1.248   4.849   9.893 -1.4688 -1.3012  0.2551
   56CHL1    C1 6594   1.314   4.613   9.769 -0.1330  0.0364  0.0190
   56CHL1   H1A 6595   1.207   4.603   9.744 -0.1716 -0.8600  0.5052
   56CHL1   H1B 6596   1.373   4.540   9.709 -2.8985  0.0840 -3.0813
   56CHL1    C2 6597   1.314   4.587   9.923  0.0328  0.9333  0.2246
   56CHL1   H2A 6598   1.296   4.480   9.947  1.7631  0.6828  0.5327
   56CHL1   H2B 6599   1.253   4.661   9.978 -0.4664 -0.2300  1.2776
   56CHL1   C20 6600   1.343   4.893   9.041  0.0672  0.3502  0.1283
   56CHL1   H20 6601   1.331   5.003   9.049  2.8065  0.5686  3.4242
   56CHL1   C21 6602   1.208   4.810   9.022 -0.0145  0.3211 -0.6228
   56CHL1  H21A 6603   1.146   4.854   9.104  1.7204  1.2134  0.2698
   56CHL1  H21B 6604   1.218   4.699   9.029 -0.6156  0.2941 -0.0640
   56CHL1  H21C 6605   1.156   4.835   8.928 -2.1057  2.0617  0.8989
   56CHL1   C22 6606   1.416   4.877   8.906  0.0347  0.1654 -0.1180
   56CHL1  H22A 6607   1.527   4.886   8.903 -0.1075  2.1869 -0.8326
   56CHL1  H22B 6608   1.399   4.776   8.863  4.0652  0.0703 -1.9217
   56CHL1   C23 6609   1.369   4.975   8.798  1.1349  0.3578 -0.1264
   56CHL1  H23A 6610   1.259   4.966   8.797  1.0830  0.9190 -0.0963
   56CHL1  H23B 6611   1.387   5.079   8.835  2.1023 -0.9337  3.4513
   56CHL1   C24 6612   1.441   4.952   8.670 -0.0670  0.3638 -0.3851
   56CHL1  H24A 6613   1.550   4.964   8.685 -0.0186 -0.4170 -0.0744
   56CHL1  H24B 6614   1.423   4.849   8.632  1.8655  0.2262 -1.0305
   56CHL1   C25 6615   1.400   5.057   8.568  0.2209  0.4277  0.2045
   56CHL1   H25 6616   1.289   5.055   8.570  0.1012 -3.7984 -0.5369
   56CHL1   C26 6617   1.463   5.198   8.599 -0.4957 -0.1489 -0.2429
   56CHL1  H26A 6618   1.411   5.256   8.678  0.9254  2.7172 -1.2588
   56CHL1  H26B 6619   1.571   5.191   8.624 -0.6288 -3.2181 -0.1885
   56CHL1  H26C 6620   1.464   5.263   8.508 -1.5382 -0.2574 -0.3503
   56CHL1   C27 6621   1.437   5.017   8.427 -0.1943  0.3401 -0.3633
   56CHL1  H27A 6622   1.546   4.995   8.420 -0.1683 -0.3606  1.6431
   56CHL1  H27B 6623   1.390   4.924   8.389 -1.8992  1.2365 -0.5538
   56CHL1  H27C 6624   1.424   5.096   8.350 -2.7409 -0.7088 -1.1034
   57CHL1    C3 6625   1.980   0.812  10.117  0.0923 -0.0425 -1.0456
   57CHL1    H3 6626   2.040   0.894  10.072  0.4568  0.7655  0.8171
   57CHL1    O3 6627   1.970   0.850  10.254 -0.1729  0.3020  0.1651
   57CHL1   H3' 6628   1.946   0.770  10.303  0.5717  0.6905  1.2159
   57CHL1    C4 6629   1.839   0.807  10.042 -0.5595 -0.3133  0.1936
   57CHL1   H4A 6630   1.779   0.736  10.103 -0.1549  0.1973  1.2066
   57CHL1   H4B 6631   1.800   0.911  10.050  0.8559  0.1552  1.3170
   57CHL1    C5 6632   1.853   0.769   9.896  0.1910 -0.0663  0.0804
   57CHL1    C6 6633   1.805   0.844   9.796  0.1012  0.2907 -0.1878
   57CHL1    H6 6634   1.756   0.938   9.826  0.6076  0.2921  0.6876
   57CHL1    C7 6635   1.801   0.805   9.645 -0.2455  0.5258 -0.4444
   57CHL1   H7A 6636   1.698   0.813   9.603  0.8842 -0.9286 -3.7485
   57CHL1   H7B 6637   1.863   0.868   9.579  2.6838 -0.9792  0.6946
   57CHL1    C8 6638   1.832   0.656   9.632 -0.0308 -0.2695 -0.0503
   57CHL1    H8 6639   1.745   0.610   9.683  0.7924 -0.0332  1.6214
   57CHL1   C14 6640   1.856   0.605   9.493  0.1654  0.6602 -0.4712
   57CHL1   H14 6641   1.952   0.656   9.470  0.7580 -0.7288 -1.1695
   57CHL1   C15 6642   1.755   0.637   9.379  1.2956  1.2921 -0.6290
   57CHL1  H15A 6643   1.654   0.601   9.413  0.9524  1.7976 -1.1110
   57CHL1  H15B 6644   1.750   0.743   9.348  1.2683  1.4868  0.0119
   57CHL1   C16 6645   1.791   0.545   9.265 -0.3212  0.5899  0.6542
   57CHL1  H16A 6646   1.697   0.489   9.249  0.9638 -1.9193  1.3720
   57CHL1  H16B 6647   1.824   0.597   9.172  1.8578  1.8254  2.0500
   57CHL1   C17 6648   1.897   0.448   9.325 -0.7478 -0.3310 -0.1202
   57CHL1   H17 6649   1.995   0.488   9.291 -0.9724 -0.9543 -1.5562
   57CHL1   C13 6650   1.890   0.460   9.476 -0.7389  0.6650 -0.6716
   57CHL1   C18 6651   1.779   0.365   9.533  0.7096  0.2379  0.3559
   57CHL1  H18A 6652   1.682   0.402   9.495 -0.5817  2.3387  4.9076
   57CHL1  H18B 6653   1.796   0.256   9.517 -0.7246 -0.5036  3.1390
   57CHL1  H18C 6654   1.777   0.382   9.643 -0.8931 -1.0052  0.5496
   57CHL1   C12 6655   2.030   0.443   9.545  0.5803  0.0136  0.6288
   57CHL1  H12A 6656   2.056   0.335   9.544 -1.4311 -0.5730 -2.1701
   57CHL1  H12B 6657   2.107   0.501   9.489 -0.2414 -0.8681 -1.5338
   57CHL1   C11 6658   2.026   0.480   9.695  0.4006  0.5764  0.6618
   57CHL1  H11A 6659   1.968   0.409   9.757  0.2929  1.7463  1.9624
   57CHL1  H11B 6660   2.128   0.478   9.738  0.5078  0.3835  0.3960
   57CHL1    C9 6661   1.958   0.623   9.725  0.4026  0.0901  0.1969
   57CHL1    H9 6662   2.030   0.697   9.684 -2.8283  3.0267 -0.6015
   57CHL1   C10 6663   1.925   0.640   9.877 -1.0742 -0.0804 -0.0454
   57CHL1   C19 6664   1.838   0.525   9.923  0.1007 -0.3831 -1.2368
   57CHL1  H19A 6665   1.761   0.531  10.003  0.0712  0.0291 -1.2950
   57CHL1  H19B 6666   1.786   0.479   9.836 -3.1139  0.1852  0.2214
   57CHL1  H19C 6667   1.902   0.443   9.961  1.8313  1.5076  0.0900
   57CHL1    C1 6668   2.061   0.629   9.957 -0.6448 -0.1679  0.6548
   57CHL1   H1A 6669   2.098   0.525   9.951  2.9832  1.0536 -1.7753
   57CHL1   H1B 6670   2.125   0.700   9.900 -0.3245  0.8545  2.2145
   57CHL1    C2 6671   2.046   0.669  10.105  0.4448 -0.6761 -0.2832
   57CHL1   H2A 6672   2.147   0.683  10.149  0.3538  2.5519 -0.8524
   57CHL1   H2B 6673   1.993   0.593  10.166  1.0506 -2.3208 -1.7326
   57CHL1   C20 6674   1.893   0.314   9.255 -0.1045 -0.1803  0.4122
   57CHL1   H20 6675   1.796   0.264   9.278  0.1020 -0.2341  1.1973
   57CHL1   C21 6676   2.001   0.229   9.314 -0.4797  0.2962 -0.5042
   57CHL1  H21A 6677   1.963   0.194   9.412 -0.5441  2.3245  0.2411
   57CHL1  H21B 6678   2.097   0.284   9.322  0.3842 -1.3552  1.6796
   57CHL1  H21C 6679   2.021   0.146   9.243  0.2865  1.3724 -1.5964
   57CHL1   C22 6680   1.897   0.314   9.097 -0.7661  0.1955  0.5106
   57CHL1  H22A 6681   1.890   0.212   9.053  1.5877  0.6186 -1.0249
   57CHL1  H22B 6682   1.817   0.377   9.053  0.0416 -0.2043 -1.6833
   57CHL1   C23 6683   2.026   0.369   9.046 -0.0304 -0.7205  0.5534
   57CHL1  H23A 6684   2.031   0.476   9.074 -0.2888 -0.5279 -0.1132
   57CHL1  H23B 6685   2.105   0.315   9.103  0.5026 -0.3995  0.1303
   57CHL1   C24 6686   2.062   0.332   8.900 -0.2306 -0.0150  0.9688
   57CHL1  H24A 6687   2.049   0.223   8.882 -3.5094  0.3423  0.5440
   57CHL1  H24B 6688   1.993   0.381   8.828 -0.3938 -1.9223 -0.2448
   57CHL1   C25 6689   2.205   0.394   8.867  0.4276  0.1369  0.0175
   57CHL1   H25 6690   2.274   0.368   8.950  0.7683 -1.3522 -0.6948
   57CHL1   C26 6691   2.271   0.331   8.743  1.1983 -0.4785 -0.2557
   57CHL1  H26A 6692   2.224   0.389   8.662 -1.9786  1.8658  2.9483
   57CHL1  H26B 6693   2.371   0.376   8.727  0.8827  1.8431  3.1371
   57CHL1  H26C 6694   2.273   0.220   8.734  0.1562 -0.5486  0.1884
   57CHL1   C27 6695   2.217   0.545   8.853  0.1975 -0.0023 -0.0015
   57CHL1  H27A 6696   2.161   0.580   8.763 -0.0884 -0.6870 -0.0963
   57CHL1  H27B 6697   2.177   0.591   8.945 -1.5734 -4.2138  1.6174
   57CHL1  H27C 6698   2.322   0.580   8.850  1.2467 -2.8544  0.5150
   58CHL1    C3 6699   5.882   5.344   9.913 -0.5197 -0.2813 -0.0468
   58CHL1    H3 6700   5.991   5.324   9.900  0.2873  3.8936 -1.1422
   58CHL1    O3 6701   5.839   5.361  10.048 -0.0886 -0.6728  0.1648
   58CHL1   H3' 6702   5.921   5.396  10.084 -0.4602  1.5111 -0.9330
   58CHL1    C4 6703   5.864   5.482   9.845 -0.4667 -0.4292 -0.2226
   58CHL1   H4A 6704   5.763   5.518   9.872 -0.3133 -1.8386  2.5634
   58CHL1   H4B 6705   5.935   5.548   9.900  0.4925 -1.0920 -0.6203
   58CHL1    C5 6706   5.878   5.478   9.687  0.2143 -0.1406 -0.2683
   58CHL1    C6 6707   5.969   5.557   9.628 -0.1045 -0.2012 -0.5815
   58CHL1    H6 6708   6.021   5.636   9.685  0.6742 -0.6610 -0.6368
   58CHL1    C7 6709   5.968   5.568   9.476 -0.5271  0.4128  0.0669
   58CHL1   H7A 6710   5.974   5.674   9.441 -0.1899  0.7094  0.9901
   58CHL1   H7B 6711   6.066   5.528   9.441 -0.9049  0.3406 -0.9381
   58CHL1    C8 6712   5.869   5.489   9.398  0.5208 -0.5592 -0.0398
   58CHL1    H8 6713   5.790   5.568   9.396  1.3463  0.3771  1.6983
   58CHL1   C14 6714   5.904   5.467   9.251 -0.1588 -0.0092 -0.1697
   58CHL1   H14 6715   5.987   5.393   9.254 -0.4780 -0.3548  0.5176
   58CHL1   C15 6716   5.959   5.579   9.159 -0.2475 -0.2711 -0.2253
   58CHL1  H15A 6717   5.911   5.677   9.180  1.1852 -0.2671  4.1947
   58CHL1  H15B 6718   6.065   5.602   9.184 -0.2815  1.6653 -1.7081
   58CHL1   C16 6719   5.939   5.523   9.021  0.1739 -0.2517 -0.4882
   58CHL1  H16A 6720   5.882   5.587   8.950  0.0362 -0.7977 -0.8859
   58CHL1  H16B 6721   6.035   5.509   8.967 -0.2913  1.1903 -1.7753
   58CHL1   C17 6722   5.862   5.393   9.040 -0.7371 -0.3485  0.3729
   58CHL1   H17 6723   5.940   5.314   9.048  0.6054  0.7015 -1.5861
   58CHL1   C13 6724   5.793   5.403   9.170 -1.5505 -0.5873  0.1652
   58CHL1   C18 6725   5.676   5.506   9.155  0.4213  0.2978  0.3344
   58CHL1  H18A 6726   5.706   5.612   9.138 -0.9591  0.4418 -1.7327
   58CHL1  H18B 6727   5.622   5.480   9.061  0.8544 -1.0718  0.4486
   58CHL1  H18C 6728   5.610   5.501   9.244  0.6487  0.8731  0.5387
   58CHL1   C12 6729   5.757   5.267   9.235 -0.7711 -0.1243  0.0387
   58CHL1  H12A 6730   5.670   5.236   9.174  0.4992  1.5272 -2.7797
   58CHL1  H12B 6731   5.846   5.201   9.230  2.0042  3.3640 -0.4064
   58CHL1   C11 6732   5.720   5.281   9.382 -0.0903  0.1261 -0.3595
   58CHL1  H11A 6733   5.629   5.345   9.379  0.5697  1.0669 -1.2322
   58CHL1  H11B 6734   5.716   5.178   9.423  6.0693 -1.6998 -3.1870
   58CHL1    C9 6735   5.827   5.361   9.465 -0.1025 -0.0139 -0.1832
   58CHL1    H9 6736   5.918   5.298   9.458  0.5105  0.7669  0.5176
   58CHL1   C10 6737   5.790   5.369   9.616  0.1477  0.2800 -0.4250
   58CHL1   C19 6738   5.643   5.418   9.619 -0.4537 -0.4868 -0.3403
   58CHL1  H19A 6739   5.562   5.347   9.593 -0.5898 -1.2918  2.0337
   58CHL1  H19B 6740   5.616   5.447   9.723  2.9459 -1.6288  1.0070
   58CHL1  H19C 6741   5.636   5.512   9.560  2.5096 -0.2497 -0.4673
   58CHL1    C1 6742   5.814   5.233   9.692  0.5209  0.4194 -0.1050
   58CHL1   H1A 6743   5.742   5.161   9.648  2.7474 -1.4200 -0.9165
   58CHL1   H1B 6744   5.914   5.197   9.659 -0.2915 -0.9688 -1.1491
   58CHL1    C2 6745   5.792   5.237   9.842  0.2794 -0.0945  0.1313
   58CHL1   H2A 6746   5.803   5.137   9.889  1.2582  0.4879  1.2073
   58CHL1   H2B 6747   5.691   5.280   9.857  1.0642  2.0615 -0.2866
   58CHL1   C20 6748   5.777   5.333   8.923 -0.2642 -0.0624 -0.1452
   58CHL1   H20 6749   5.686   5.289   8.970 -0.1302  0.0108  0.1892
   58CHL1   C21 6750   5.859   5.219   8.852  0.6311 -0.3116 -0.1231
   58CHL1  H21A 6751   5.958   5.254   8.816  1.5767  0.7471  3.1460
   58CHL1  H21B 6752   5.800   5.170   8.771 -2.7221 -1.2300  2.6107
   58CHL1  H21C 6753   5.896   5.138   8.919  0.5278 -1.1301 -1.0318
   58CHL1   C22 6754   5.742   5.443   8.817 -0.4830 -0.2785 -0.0742
   58CHL1  H22A 6755   5.692   5.523   8.876 -0.4704  0.1408 -0.6228
   58CHL1  H22B 6756   5.837   5.480   8.772  0.8188 -0.2720  2.4873
   58CHL1   C23 6757   5.640   5.409   8.707 -0.4839  0.4651 -0.4372
   58CHL1  H23A 6758   5.628   5.503   8.648  0.1547  0.6674 -0.2505
   58CHL1  H23B 6759   5.696   5.331   8.650  1.8549 -0.8016  3.2566
   58CHL1   C24 6760   5.501   5.373   8.755  0.0674 -0.3554 -0.4690
   58CHL1  H24A 6761   5.509   5.274   8.805 -1.8249 -2.0983 -3.3551
   58CHL1  H24B 6762   5.462   5.451   8.824  0.5730 -0.8968  0.4377
   58CHL1   C25 6763   5.410   5.354   8.636  0.3455 -1.0060  0.4408
   58CHL1   H25 6764   5.426   5.422   8.550  1.2430 -3.5087 -1.5044
   58CHL1   C26 6765   5.436   5.212   8.567  0.2438 -0.1651 -0.0545
   58CHL1  H26A 6766   5.538   5.212   8.524  1.9189 -2.3257  3.4305
   58CHL1  H26B 6767   5.437   5.130   8.642  0.1440 -1.4688 -1.4358
   58CHL1  H26C 6768   5.357   5.192   8.491 -1.4357 -2.6303  2.1248
   58CHL1   C27 6769   5.263   5.350   8.684  0.4467  0.5249  0.1987
   58CHL1  H27A 6770   5.239   5.438   8.747 -1.5951  0.4589 -0.3993
   58CHL1  H27B 6771   5.201   5.354   8.591 -0.5403  2.3963  0.8834
   58CHL1  H27C 6772   5.241   5.259   8.744 -1.6299 -0.0400 -1.2810
   59CHL1    C3 6773   4.101   4.666  10.354 -0.0355 -0.2298  0.2232
   59CHL1    H3 6774   4.113   4.556  10.344  0.3257 -0.5006  2.8688
   59CHL1    O3 6775   4.139   4.703  10.483  0.9470  0.0169  0.0824
   59CHL1   H3' 6776   4.061   4.741  10.523  1.8812  0.2892  1.7318
   59CHL1    C4 6777   4.187   4.736  10.245  0.2337  0.1342  0.1925
   59CHL1   H4A 6778   4.170   4.845  10.259  1.5716  0.3382  0.3050
   59CHL1   H4B 6779   4.295   4.722  10.268  0.4663  1.3201 -0.1193
   59CHL1    C5 6780   4.146   4.694  10.109 -0.4359  0.1110  1.3196
   59CHL1    C6 6781   4.231   4.632  10.024  0.1981  0.6577 -0.1915
   59CHL1    H6 6782   4.332   4.615  10.063 -0.6170  0.4674  2.0163
   59CHL1    C7 6783   4.199   4.604   9.883  0.5882 -0.0384  0.6782
   59CHL1   H7A 6784   4.274   4.653   9.817 -0.7094  0.6006 -0.3769
   59CHL1   H7B 6785   4.192   4.494   9.863 -2.9403  0.1372  0.3494
   59CHL1    C8 6786   4.064   4.665   9.841  0.1180 -0.0317  0.1774
   59CHL1    H8 6787   4.072   4.774   9.824  0.4128 -0.0934 -0.0935
   59CHL1   C14 6788   4.027   4.598   9.705  0.4885  0.6359 -0.2828
   59CHL1   H14 6789   4.023   4.489   9.729  0.1603  0.4718 -1.0554
   59CHL1   C15 6790   4.125   4.612   9.590  0.4544  0.8639 -0.3546
   59CHL1  H15A 6791   4.169   4.714   9.592  1.0027  0.6284  1.1882
   59CHL1  H15B 6792   4.209   4.542   9.609  0.6764  1.1488 -0.2934
   59CHL1   C16 6793   4.044   4.588   9.461  0.0734  0.0220  0.4936
   59CHL1  H16A 6794   4.035   4.670   9.387 -2.4780  1.6999  2.4865
   59CHL1  H16B 6795   4.086   4.498   9.412  0.7687  1.6432 -2.0500
   59CHL1   C17 6796   3.902   4.553   9.512 -0.1100 -0.5899 -0.6476
   59CHL1   H17 6797   3.907   4.445   9.538  1.5598 -0.6340 -1.0528
   59CHL1   C13 6798   3.895   4.631   9.645  0.2652  0.3947 -1.3922
   59CHL1   C18 6799   3.889   4.789   9.616  0.4647 -0.1339 -0.1786
   59CHL1  H18A 6800   3.988   4.818   9.573  1.3630 -0.6837  1.4349
   59CHL1  H18B 6801   3.804   4.820   9.552 -0.2023 -1.4494  0.0263
   59CHL1  H18C 6802   3.884   4.842   9.713  0.2533  3.3653 -1.9472
   59CHL1   C12 6803   3.788   4.599   9.755 -0.2671  0.3889  0.3233
   59CHL1  H12A 6804   3.686   4.629   9.724 -0.4135 -2.0364 -1.8700
   59CHL1  H12B 6805   3.785   4.489   9.768 -2.5792  0.2630 -0.7100
   59CHL1   C11 6806   3.817   4.662   9.895 -0.4830 -0.2990 -0.5687
   59CHL1  H11A 6807   3.798   4.771   9.893  1.1524  0.0571  1.0017
   59CHL1  H11B 6808   3.740   4.627   9.966  0.0113  2.9645  1.8030
   59CHL1    C9 6809   3.962   4.640   9.943  0.6068  0.1289 -0.2189
   59CHL1    H9 6810   3.980   4.533   9.966 -1.8364  0.0617  1.9023
   59CHL1   C10 6811   3.997   4.715  10.076  0.0350  0.0166  0.3401
   59CHL1   C19 6812   3.963   4.866  10.063 -1.1698 -0.2197  0.3049
   59CHL1  H19A 6813   3.984   4.906  10.164  0.4096 -2.2079  0.8166
   59CHL1  H19B 6814   4.022   4.913   9.982  1.3519 -0.3488  1.9680
   59CHL1  H19C 6815   3.854   4.884  10.046 -1.1460 -0.5061 -0.1557
   59CHL1    C1 6816   3.909   4.656  10.198 -0.3834 -0.1616  0.1310
   59CHL1   H1A 6817   3.801   4.677  10.187 -0.4079 -0.4376 -0.1970
   59CHL1   H1B 6818   3.927   4.546  10.201  1.4252  0.1334  1.2291
   59CHL1    C2 6819   3.956   4.697  10.338 -0.6222 -0.3260  0.5342
   59CHL1   H2A 6820   3.900   4.651  10.422  1.4918  2.9752  4.0798
   59CHL1   H2B 6821   3.931   4.802  10.366  0.4533 -0.1256  0.7832
   59CHL1   C20 6822   3.798   4.568   9.403  0.1433 -0.4661  1.0026
   59CHL1   H20 6823   3.790   4.671   9.363 -1.3506 -0.9426  0.0151
   59CHL1   C21 6824   3.663   4.523   9.468 -1.0341 -0.1211 -0.2864
   59CHL1  H21A 6825   3.634   4.621   9.513  2.0018  0.2404  1.1538
   59CHL1  H21B 6826   3.687   4.454   9.551 -1.5117  0.6882  0.5428
   59CHL1  H21C 6827   3.593   4.485   9.391 -0.8078  1.8650 -1.5710
   59CHL1   C22 6828   3.825   4.476   9.279  0.5675 -0.0076  0.7370
   59CHL1  H22A 6829   3.934   4.485   9.259  0.6084 -2.4602 -0.4755
   59CHL1  H22B 6830   3.819   4.371   9.312  0.9857 -0.7872 -1.4871
   59CHL1   C23 6831   3.760   4.518   9.150  0.1885 -0.1754 -0.4147
   59CHL1  H23A 6832   3.650   4.522   9.163  0.2170  1.9731 -0.4272
   59CHL1  H23B 6833   3.795   4.618   9.116 -2.2986  0.7720 -0.3874
   59CHL1   C24 6834   3.790   4.413   9.041  0.5939  0.8398  0.0580
   59CHL1  H24A 6835   3.896   4.380   9.055  0.4496  0.3129 -0.0511
   59CHL1  H24B 6836   3.732   4.319   9.055 -0.3960  1.3189 -0.7711
   59CHL1   C25 6837   3.761   4.459   8.901 -0.3869  0.1159 -0.5694
   59CHL1   H25 6838   3.846   4.527   8.876 -2.6281  3.5827  0.4460
   59CHL1   C26 6839   3.761   4.333   8.813 -0.3745  0.0949  0.0335
   59CHL1  H26A 6840   3.769   4.355   8.704  2.0266 -0.6533 -0.0135
   59CHL1  H26B 6841   3.838   4.258   8.841 -0.2199  0.4533  0.5737
   59CHL1  H26C 6842   3.667   4.276   8.826  0.5078 -1.6383 -0.7929
   59CHL1   C27 6843   3.635   4.537   8.875  0.1839 -0.1638 -1.1655
   59CHL1  H27A 6844   3.548   4.476   8.908 -0.0211  0.3050 -0.8318
   59CHL1  H27B 6845   3.645   4.636   8.925  0.4434 -0.5275 -0.4823
   59CHL1  H27C 6846   3.624   4.559   8.766  1.2782 -2.5338 -1.8265
   60CHL1    C3 6847   3.610   2.054  10.171  0.1777  1.0458  0.7221
   60CHL1    H3 6848   3.615   1.948  10.139 -1.9407  0.6210  1.6424
   60CHL1    O3 6849   3.616   2.064  10.310  0.3779  0.3593  0.2323
   60CHL1   H3' 6850   3.640   2.156  10.328  0.7893  0.0218  1.4844
   60CHL1    C4 6851   3.735   2.125  10.110  0.2810 -0.0957  0.0133
   60CHL1   H4A 6852   3.722   2.227  10.152  2.7026  1.0011 -1.6590
   60CHL1   H4B 6853   3.826   2.071  10.144  2.1149  1.1084 -2.6478
   60CHL1    C5 6854   3.743   2.145   9.959 -0.6438  0.4181 -0.4649
   60CHL1    C6 6855   3.848   2.099   9.886  0.4357  0.3049  0.0369
   60CHL1    H6 6856   3.937   2.067   9.943  1.6821 -1.8994 -2.8832
   60CHL1    C7 6857   3.857   2.105   9.736  0.3638  0.7323  0.1195
   60CHL1   H7A 6858   3.956   2.141   9.701  0.1252 -0.3202 -1.7898
   60CHL1   H7B 6859   3.860   2.003   9.692  1.3434  0.7287  0.1802
   60CHL1    C8 6860   3.737   2.185   9.670  0.7846 -0.0540  0.1814
   60CHL1    H8 6861   3.758   2.293   9.688 -2.8994  0.7613  0.2991
   60CHL1   C14 6862   3.733   2.160   9.524 -0.2660  0.4212 -0.3090
   60CHL1   H14 6863   3.721   2.051   9.509 -3.3154  0.6560 -0.2462
   60CHL1   C15 6864   3.859   2.201   9.452 -0.1550  0.4585 -0.0636
   60CHL1  H15A 6865   3.890   2.303   9.484  1.5750  0.0302 -0.2750
   60CHL1  H15B 6866   3.951   2.140   9.446 -1.3339 -1.3982  0.0120
   60CHL1   C16 6867   3.808   2.197   9.309 -0.2209  0.2795  0.2367
   60CHL1  H16A 6868   3.831   2.299   9.273 -0.3691 -0.0831 -0.9242
   60CHL1  H16B 6869   3.848   2.118   9.242  1.8002  0.2571  1.3846
   60CHL1   C17 6870   3.650   2.183   9.311 -0.0032 -0.5609  0.4830
   60CHL1   H17 6871   3.634   2.074   9.316  1.8651 -0.8692  0.2675
   60CHL1   C13 6872   3.604   2.223   9.449 -0.4483  0.0228  0.0460
   60CHL1   C18 6873   3.608   2.376   9.463  0.0394 -0.1127  0.1408
   60CHL1  H18A 6874   3.507   2.417   9.441 -0.2231  0.5319  2.3492
   60CHL1  H18B 6875   3.620   2.415   9.566  2.1622 -0.1024 -0.0584
   60CHL1  H18C 6876   3.675   2.435   9.397 -1.2615 -0.9715 -2.0378
   60CHL1   C12 6877   3.485   2.171   9.513  0.1292 -0.9158 -0.1634
   60CHL1  H12A 6878   3.394   2.222   9.473  2.0732  2.0358 -1.1620
   60CHL1  H12B 6879   3.473   2.061   9.512 -2.8125 -0.7048  1.3466
   60CHL1   C11 6880   3.480   2.196   9.672  0.0913  0.1917  0.3629
   60CHL1  H11A 6881   3.455   2.303   9.688 -0.3430  0.4782 -1.8888
   60CHL1  H11B 6882   3.395   2.143   9.719 -0.1218  1.4604  1.4526
   60CHL1    C9 6883   3.604   2.150   9.746 -0.1846 -0.0122 -0.0864
   60CHL1    H9 6884   3.598   2.039   9.739 -0.9027 -0.0907  1.4586
   60CHL1   C10 6885   3.605   2.180   9.897 -0.2653  0.4512 -0.0310
   60CHL1   C19 6886   3.585   2.336   9.922 -0.9649  0.2000 -0.1107
   60CHL1  H19A 6887   3.475   2.353   9.918 -0.9196  0.3206 -1.2390
   60CHL1  H19B 6888   3.617   2.365  10.024 -1.9131  2.8184 -0.4848
   60CHL1  H19C 6889   3.650   2.402   9.860  1.7396 -1.3880  0.8696
   60CHL1    C1 6890   3.490   2.105   9.959 -0.6835  0.1481  0.0520
   60CHL1   H1A 6891   3.394   2.147   9.922 -0.9678 -1.9254 -1.8125
   60CHL1   H1B 6892   3.499   1.994   9.946 -0.9809  0.0304  0.8379
   60CHL1    C2 6893   3.482   2.116  10.114  0.2128  0.2884 -0.2047
   60CHL1   H2A 6894   3.391   2.063  10.150  1.2872  0.1858  2.6117
   60CHL1   H2B 6895   3.480   2.219  10.157  0.3192 -0.4398  1.6265
   60CHL1   C20 6896   3.584   2.256   9.195 -0.1953 -0.1655  0.7111
   60CHL1   H20 6897   3.600   2.364   9.216 -0.4824 -0.0130  0.1546
   60CHL1   C21 6898   3.439   2.216   9.189  0.2017  1.0772  0.0887
   60CHL1  H21A 6899   3.422   2.106   9.198  0.5825  0.9661 -0.5376
   60CHL1  H21B 6900   3.392   2.253   9.096 -1.0912  2.3423  1.1979
   60CHL1  H21C 6901   3.377   2.260   9.271 -0.6890  0.1070 -0.0397
   60CHL1   C22 6902   3.649   2.233   9.055  0.1362  0.4199 -0.2393
   60CHL1  H22A 6903   3.758   2.253   9.051 -0.0150  1.4161  0.3046
   60CHL1  H22B 6904   3.626   2.127   9.029 -3.3903  1.3812 -1.7065
   60CHL1   C23 6905   3.585   2.315   8.945  0.0634 -0.6211 -0.4792
   60CHL1  H23A 6906   3.488   2.269   8.917 -0.1300 -1.1078  0.9113
   60CHL1  H23B 6907   3.553   2.409   8.995 -2.1205 -1.7148  0.3072
   60CHL1   C24 6908   3.687   2.338   8.828 -0.3203  0.8561 -0.2046
   60CHL1  H24A 6909   3.643   2.400   8.747  1.0318 -1.4232 -2.8606
   60CHL1  H24B 6910   3.783   2.375   8.870 -0.7057  1.7357 -0.0917
   60CHL1   C25 6911   3.720   2.205   8.750 -0.3878  0.4699 -0.2433
   60CHL1   H25 6912   3.767   2.134   8.821  2.4206  0.9282 -1.4996
   60CHL1   C26 6913   3.589   2.127   8.701  0.5330  0.5478 -0.5037
   60CHL1  H26A 6914   3.620   2.030   8.657  0.5589 -0.3040  1.3258
   60CHL1  H26B 6915   3.532   2.107   8.793 -0.8135  0.1632 -1.3979
   60CHL1  H26C 6916   3.533   2.185   8.624  0.7435  0.8887 -0.4054
   60CHL1   C27 6917   3.804   2.222   8.630  0.8396 -0.1596  0.3603
   60CHL1  H27A 6918   3.899   2.277   8.651  0.3726  0.5571  0.6380
   60CHL1  H27B 6919   3.821   2.130   8.570  3.2253  1.0302 -0.9289
   60CHL1  H27C 6920   3.739   2.285   8.565  0.5903 -1.2129 -0.4284
   61CHL1    C3 6921   1.219   5.703  10.212 -0.4249 -0.0206  0.4028
   61CHL1    H3 6922   1.166   5.789  10.258  0.3742  0.7984 -0.1678
   61CHL1    O3 6923   1.270   5.650  10.334  0.5637  0.3523  0.2219
   61CHL1   H3' 6924   1.280   5.557  10.316  2.9202  0.5453  0.1529
   61CHL1    C4 6925   1.124   5.609  10.145  0.8175  0.1919  0.5528
   61CHL1   H4A 6926   1.164   5.506  10.138  1.6074  0.5309 -0.1991
   61CHL1   H4B 6927   1.030   5.597  10.203 -0.1115  1.0909 -0.6924
   61CHL1    C5 6928   1.091   5.644   9.998  0.3180  0.3371 -0.1530
   61CHL1    C6 6929   0.960   5.647   9.972  0.6393 -0.1770 -0.5728
   61CHL1    H6 6930   0.879   5.618  10.041  0.0189  1.9454 -0.3375
   61CHL1    C7 6931   0.909   5.684   9.830  0.2304 -0.6911  0.2501
   61CHL1   H7A 6932   0.826   5.614   9.807  0.4631 -1.3796  1.4062
   61CHL1   H7B 6933   0.862   5.785   9.828  1.0548 -0.3039 -0.0887
   61CHL1    C8 6934   1.019   5.674   9.723  0.2780  0.1147 -1.2822
   61CHL1    H8 6935   1.045   5.566   9.724  1.7200  0.4421 -0.3036
   61CHL1   C14 6936   0.978   5.712   9.585 -0.1709 -0.4987  0.2734
   61CHL1   H14 6937   0.953   5.820   9.580 -2.2705 -0.9973 -2.3371
   61CHL1   C15 6938   0.866   5.635   9.523  0.0539 -0.2622 -0.0465
   61CHL1  H15A 6939   0.882   5.527   9.544 -0.3157 -0.6984 -1.8846
   61CHL1  H15B 6940   0.775   5.678   9.570  0.8670 -0.0542  1.4097
   61CHL1   C16 6941   0.873   5.659   9.375  0.3797 -0.3202  0.1422
   61CHL1  H16A 6942   0.873   5.560   9.324  1.6352 -0.3828  0.2252
   61CHL1  H16B 6943   0.800   5.731   9.332  2.3571  2.0902  0.6042
   61CHL1   C17 6944   1.010   5.728   9.350 -0.0631 -1.0042 -0.1000
   61CHL1   H17 6945   1.002   5.839   9.354  1.2918 -0.9329  1.5108
   61CHL1   C13 6946   1.093   5.701   9.481 -0.3168 -0.4528  0.1821
   61CHL1   C18 6947   1.158   5.563   9.477  0.0447  0.3756  0.1901
   61CHL1  H18A 6948   1.203   5.541   9.576  0.5005  1.1745  0.1703
   61CHL1  H18B 6949   1.088   5.483   9.447 -0.3055  0.5839  0.4531
   61CHL1  H18C 6950   1.233   5.563   9.395 -1.5382  0.1903 -1.3124
   61CHL1   C12 6951   1.201   5.811   9.531  0.1213 -0.1925  0.3042
   61CHL1  H12A 6952   1.290   5.819   9.465 -0.1326  0.4294  0.0291
   61CHL1  H12B 6953   1.143   5.906   9.541  1.6159  0.7025  0.6930
   61CHL1   C11 6954   1.245   5.788   9.671  0.4777 -0.6822  0.4708
   61CHL1  H11A 6955   1.322   5.709   9.659  0.9943 -0.0200 -0.7916
   61CHL1  H11B 6956   1.298   5.876   9.713 -2.1852 -0.1900  3.1521
   61CHL1    C9 6957   1.137   5.754   9.774  0.3316 -0.1195  0.7294
   61CHL1    H9 6958   1.090   5.849   9.806 -0.5105 -1.0247  2.3161
   61CHL1   C10 6959   1.195   5.705   9.906 -0.2071  0.7291  0.0681
   61CHL1   C19 6960   1.287   5.584   9.871  0.0555 -0.4002  0.1276
   61CHL1  H19A 6961   1.381   5.632   9.835 -0.5448  1.0759  0.4818
   61CHL1  H19B 6962   1.321   5.524   9.958  0.1634  1.4403  1.4047
   61CHL1  H19C 6963   1.238   5.519   9.796 -1.1159  2.3005 -1.5944
   61CHL1    C1 6964   1.278   5.812   9.995  0.8587 -0.0163 -0.0982
   61CHL1   H1A 6965   1.367   5.848   9.940  2.5322  0.6253  2.8556
   61CHL1   H1B 6966   1.202   5.892  10.009 -0.3100 -0.9751 -0.6452
   61CHL1    C2 6967   1.334   5.754  10.122  0.0036  0.1119 -0.3184
   61CHL1   H2A 6968   1.390   5.839  10.166  0.0833  0.7860 -1.6711
   61CHL1   H2B 6969   1.402   5.669  10.097  0.5276  0.4857 -0.1880
   61CHL1   C20 6970   1.075   5.702   9.216  0.3836  0.0071  1.1658
   61CHL1   H20 6971   1.106   5.596   9.219  2.4032  0.5797  2.7712
   61CHL1   C21 6972   1.205   5.785   9.201  0.2056 -1.0409  0.0172
   61CHL1  H21A 6973   1.293   5.754   9.262 -0.2690  0.6409  1.6416
   61CHL1  H21B 6974   1.193   5.890   9.234 -1.3753 -0.4943 -2.0701
   61CHL1  H21C 6975   1.234   5.781   9.093  1.1442 -1.8321  0.2861
   61CHL1   C22 6976   0.983   5.704   9.090 -0.0025 -0.1940  0.7544
   61CHL1  H22A 6977   1.053   5.689   9.004 -1.0548  1.5752 -0.4742
   61CHL1  H22B 6978   0.911   5.620   9.098 -1.6852  1.0086 -0.8544
   61CHL1   C23 6979   0.896   5.830   9.066 -0.4126 -0.3827  0.5248
   61CHL1  H23A 6980   0.850   5.859   9.163 -2.0415 -0.7439 -0.0964
   61CHL1  H23B 6981   0.950   5.919   9.028 -1.8072  1.7656  3.1898
   61CHL1   C24 6982   0.791   5.812   8.954  0.6507 -0.6515 -0.0353
   61CHL1  H24A 6983   0.850   5.797   8.861  0.0867 -1.9419 -0.2101
   61CHL1  H24B 6984   0.738   5.714   8.957 -2.7978  1.0637  0.3959
   61CHL1   C25 6985   0.688   5.925   8.939  0.1617  0.3102  0.4876
   61CHL1   H25 6986   0.737   6.023   8.954  1.1967 -0.1333  0.0807
   61CHL1   C26 6987   0.617   5.916   8.804  0.2620 -0.1649  0.4231
   61CHL1  H26A 6988   0.681   5.914   8.713  1.0759  3.4522  0.7297
   61CHL1  H26B 6989   0.562   5.820   8.802  0.4479 -0.2768  0.5813
   61CHL1  H26C 6990   0.542   5.996   8.787  0.5829  0.2689  1.0161
   61CHL1   C27 6991   0.590   5.908   9.054 -0.4384  0.1325 -0.0298
   61CHL1  H27A 6992   0.544   5.807   9.059 -1.0290  0.4027  0.1689
   61CHL1  H27B 6993   0.640   5.923   9.152 -0.9170  2.7420 -0.1111
   61CHL1  H27C 6994   0.504   5.979   9.050 -1.5741 -1.1886  0.1460
   62CHL1    C3 6995   1.919   1.407  10.011  0.2885 -0.1218  0.4385
   62CHL1    H3 6996   2.018   1.390   9.964 -0.6427 -1.6289 -1.0853
   62CHL1    O3 6997   1.939   1.443  10.148  0.0091  0.4207 -0.0089
   62CHL1   H3' 6998   1.849   1.433  10.178  0.1409  0.2898  0.3397
   62CHL1    C4 6999   1.841   1.519   9.943  1.3732  0.1535  0.4197
   62CHL1   H4A 7000   1.748   1.551   9.995  0.8745  0.7976 -0.8113
   62CHL1   H4B 7001   1.915   1.601   9.953  1.5395  0.1262 -0.5080
   62CHL1    C5 7002   1.814   1.489   9.794 -0.4712  0.0828  0.5170
   62CHL1    C6 7003   1.866   1.559   9.699  0.1228  0.7005  0.3241
   62CHL1    H6 7004   1.921   1.651   9.723  2.5979 -0.6240  0.0607
   62CHL1    C7 7005   1.844   1.532   9.552 -0.1139  0.3385 -0.2232
   62CHL1   H7A 7006   1.796   1.622   9.509 -1.6480  0.4410  1.5908
   62CHL1   H7B 7007   1.939   1.510   9.499 -0.4147 -0.9662 -0.2717
   62CHL1    C8 7008   1.741   1.419   9.521  0.3833 -0.7822  0.6204
   62CHL1    H8 7009   1.640   1.465   9.526  0.4261 -0.6648  0.4165
   62CHL1   C14 7010   1.749   1.378   9.369  0.2372  0.1451  0.6187
   62CHL1   H14 7011   1.856   1.348   9.367  0.0624 -0.5976  1.6734
   62CHL1   C15 7012   1.722   1.483   9.253 -0.1494  0.7415 -0.0504
   62CHL1  H15A 7013   1.642   1.557   9.274  0.1685  1.0328  0.1482
   62CHL1  H15B 7014   1.815   1.531   9.215 -0.8715  0.9811 -1.5777
   62CHL1   C16 7015   1.689   1.384   9.131  0.6481 -0.3063  0.2171
   62CHL1  H16A 7016   1.591   1.406   9.085 -0.7757 -3.4061  1.4790
   62CHL1  H16B 7017   1.764   1.397   9.050 -1.8756 -1.9149 -2.5425
   62CHL1   C17 7018   1.674   1.242   9.185 -0.0696 -0.4374 -0.2581
   62CHL1   H17 7019   1.774   1.196   9.171  0.7953  0.2730  2.8138
   62CHL1   C13 7020   1.655   1.262   9.338  0.0972  0.2468  0.3889
   62CHL1   C18 7021   1.506   1.294   9.360  0.5352 -0.7583 -0.3292
   62CHL1  H18A 7022   1.447   1.201   9.347 -2.3051  1.0422 -1.2997
   62CHL1  H18B 7023   1.483   1.337   9.460  1.8138 -0.7957 -0.0033
   62CHL1  H18C 7024   1.475   1.369   9.283  1.2693 -1.7981 -1.6837
   62CHL1   C12 7025   1.679   1.137   9.430 -0.2156  0.9780 -0.2773
   62CHL1  H12A 7026   1.596   1.064   9.419  0.6634 -0.2547  0.8859
   62CHL1  H12B 7027   1.779   1.093   9.405  0.7347  2.9467 -0.1298
   62CHL1   C11 7028   1.682   1.178   9.577  0.0064 -0.2132 -0.7214
   62CHL1  H11A 7029   1.581   1.204   9.616  0.2852 -0.0617 -0.0938
   62CHL1  H11B 7030   1.725   1.088   9.626 -0.7757 -0.2609 -0.0934
   62CHL1    C9 7031   1.762   1.303   9.615 -0.2800 -0.0800  0.4834
   62CHL1    H9 7032   1.870   1.274   9.608 -0.4447 -0.3402 -2.3809
   62CHL1   C10 7033   1.743   1.351   9.768  1.1416  0.6149 -0.0203
   62CHL1   C19 7034   1.593   1.377   9.801 -0.2311 -0.0685 -0.8228
   62CHL1  H19A 7035   1.530   1.286   9.796  0.6788 -0.7879  0.3200
   62CHL1  H19B 7036   1.579   1.419   9.902 -0.8201  1.0777 -1.3660
   62CHL1  H19C 7037   1.556   1.436   9.714 -1.1014 -0.6585 -0.8604
   62CHL1    C1 7038   1.801   1.242   9.859  0.1062 -0.4524 -0.0376
   62CHL1   H1A 7039   1.740   1.150   9.846  0.2301 -0.7997  1.5652
   62CHL1   H1B 7040   1.903   1.217   9.822  1.2352  1.5258  1.5098
   62CHL1    C2 7041   1.832   1.280  10.001 -0.1706  0.0013  0.1305
   62CHL1   H2A 7042   1.883   1.193  10.047 -2.3034 -1.1159  0.5183
   62CHL1   H2B 7043   1.745   1.297  10.067  1.8172  2.1968  2.3885
   62CHL1   C20 7044   1.580   1.153   9.111  0.3637 -0.5105 -0.5459
   62CHL1   H20 7045   1.479   1.143   9.157 -0.3213  1.8353 -1.3978
   62CHL1   C21 7046   1.637   1.011   9.115  0.0092  0.1334  0.5309
   62CHL1  H21A 7047   1.732   0.995   9.061 -0.3300  0.0149 -0.0376
   62CHL1  H21B 7048   1.561   0.934   9.088  1.4630 -1.5840  1.0956
   62CHL1  H21C 7049   1.661   0.985   9.220 -0.8273 -4.4375 -0.1828
   62CHL1   C22 7050   1.542   1.195   8.966  0.2172  0.0575  0.2007
   62CHL1  H22A 7051   1.487   1.291   8.971 -0.7121 -0.3995 -0.8154
   62CHL1  H22B 7052   1.623   1.220   8.894  0.8441  0.1742  0.9263
   62CHL1   C23 7053   1.452   1.093   8.897  0.0024 -0.5969  0.6087
   62CHL1  H23A 7054   1.509   1.007   8.856  0.6279 -0.3714  1.0059
   62CHL1  H23B 7055   1.379   1.053   8.970  0.4091  1.4016  2.2093
   62CHL1   C24 7056   1.395   1.166   8.770 -0.3170 -0.7460  0.6024
   62CHL1  H24A 7057   1.471   1.237   8.733 -0.8070 -0.5782 -0.1121
   62CHL1  H24B 7058   1.364   1.085   8.700 -0.2645 -1.6829  1.6387
   62CHL1   C25 7059   1.279   1.256   8.793  0.6017  0.4491  0.9729
   62CHL1   H25 7060   1.300   1.337   8.866 -1.5155 -0.1339  2.3127
   62CHL1   C26 7061   1.227   1.324   8.661 -0.2618  0.4402 -0.4413
   62CHL1  H26A 7062   1.294   1.409   8.639 -0.8443  1.4840  1.5978
   62CHL1  H26B 7063   1.236   1.259   8.571  1.3275  1.3721 -1.0087
   62CHL1  H26C 7064   1.128   1.370   8.676 -0.8151 -0.6249 -0.6929
   62CHL1   C27 7065   1.165   1.168   8.850  0.2314  0.2437 -0.1697
   62CHL1  H27A 7066   1.160   1.081   8.781 -0.6285  0.4813 -0.4162
   62CHL1  H27B 7067   1.187   1.148   8.957  2.8933  2.3789 -0.1796
   62CHL1  H27C 7068   1.070   1.224   8.848  1.1900  1.9287 -1.0955
   63CHL1    C3 7069   3.473   0.989  10.225 -0.3427  0.1721 -0.1655
   63CHL1    H3 7070   3.369   1.028  10.219  0.3785  2.0111 -1.9484
   63CHL1    O3 7071   3.477   0.947  10.360  0.0085 -0.2633  0.1769
   63CHL1   H3' 7072   3.565   0.915  10.381  0.8008  1.2564 -0.6501
   63CHL1    C4 7073   3.496   0.875  10.121  0.3914  0.4472  0.2174
   63CHL1   H4A 7074   3.586   0.820  10.156 -0.6539 -0.0811  2.2634
   63CHL1   H4B 7075   3.415   0.802  10.140  1.7116 -0.5468  2.4767
   63CHL1    C5 7076   3.512   0.924   9.979 -0.6906 -0.1511 -0.0699
   63CHL1    C6 7077   3.437   0.882   9.881  0.6197  0.3222  0.5733
   63CHL1    H6 7078   3.369   0.797   9.899  2.0833 -1.1986 -0.7126
   63CHL1    C7 7079   3.453   0.920   9.732 -0.5000 -0.2165  0.2831
   63CHL1   H7A 7080   3.449   0.821   9.682  1.1784 -0.0106 -0.3221
   63CHL1   H7B 7081   3.370   0.981   9.689  0.0048  0.3789  0.1390
   63CHL1    C8 7082   3.586   0.998   9.704  0.0706 -1.0285 -0.5189
   63CHL1    H8 7083   3.672   0.927   9.701  1.8086  0.9704 -0.6428
   63CHL1   C14 7084   3.577   1.071   9.568 -0.0306  0.1537 -0.1737
   63CHL1   H14 7085   3.492   1.142   9.570 -0.6338 -0.5779  0.5439
   63CHL1   C15 7086   3.549   0.982   9.450  0.0461  0.2812 -0.1267
   63CHL1  H15A 7087   3.618   0.896   9.457  1.9936  1.8532  1.5036
   63CHL1  H15B 7088   3.451   0.940   9.419  0.1196 -1.7115  2.0646
   63CHL1   C16 7089   3.604   1.068   9.339 -0.2720 -0.3753  0.0863
   63CHL1  H16A 7090   3.672   1.008   9.275 -1.4231 -2.7363  0.9613
   63CHL1  H16B 7091   3.523   1.092   9.266 -0.4880 -1.7712 -0.1618
   63CHL1   C17 7092   3.669   1.196   9.391  0.1949  0.0181 -0.8062
   63CHL1   H17 7093   3.585   1.268   9.395 -1.4276 -1.8222  0.2102
   63CHL1   C13 7094   3.702   1.154   9.541  0.3185  0.1798  0.9801
   63CHL1   C18 7095   3.828   1.063   9.542 -0.0188  0.4580 -0.6777
   63CHL1  H18A 7096   3.820   0.973   9.476  0.5306 -0.8451  0.9617
   63CHL1  H18B 7097   3.916   1.122   9.509 -1.4680  2.5561 -0.9655
   63CHL1  H18C 7098   3.848   1.026   9.644  1.7406  0.0619 -1.1298
   63CHL1   C12 7099   3.719   1.262   9.643 -0.2613  0.3235  0.2436
   63CHL1  H12A 7100   3.802   1.327   9.609 -0.9395 -0.6908 -3.7785
   63CHL1  H12B 7101   3.629   1.328   9.652  0.5367  1.2333  2.1243
   63CHL1   C11 7102   3.732   1.204   9.783  0.1442  0.1086  0.2631
   63CHL1  H11A 7103   3.832   1.158   9.798  0.2549  0.0728 -0.5263
   63CHL1  H11B 7104   3.730   1.286   9.858  2.2785 -1.1478  1.8003
   63CHL1    C9 7105   3.610   1.105   9.819 -0.8103  0.2811  0.4204
   63CHL1    H9 7106   3.520   1.169   9.815  1.2275  3.3844  0.8126
   63CHL1   C10 7107   3.613   1.039   9.960 -0.0520 -0.3231 -0.0443
   63CHL1   C19 7108   3.758   0.988   9.986  0.0143  0.6187  0.0080
   63CHL1  H19A 7109   3.802   0.962   9.887 -2.1630 -0.7511 -0.6756
   63CHL1  H19B 7110   3.828   1.066  10.023  0.3899 -0.1471  0.9354
   63CHL1  H19C 7111   3.766   0.902  10.055 -0.6619  1.7534  1.5656
   63CHL1    C1 7112   3.565   1.149  10.064  0.5891  0.4404  0.0853
   63CHL1   H1A 7113   3.628   1.241  10.064 -1.7385  2.1796  2.0097
   63CHL1   H1B 7114   3.464   1.190  10.039  0.9534  1.1866 -0.2130
   63CHL1    C2 7115   3.559   1.108  10.208  0.2315  0.2382  0.3401
   63CHL1   H2A 7116   3.519   1.189  10.273 -0.8441  0.9047 -1.1195
   63CHL1   H2B 7117   3.660   1.077  10.243  0.7648 -1.5112 -2.4064
   63CHL1   C20 7118   3.776   1.255   9.300 -0.2622 -0.3729 -1.0512
   63CHL1   H20 7119   3.866   1.192   9.282 -0.2054 -0.2813 -1.0877
   63CHL1   C21 7120   3.841   1.374   9.374  0.1808 -0.5371 -0.5084
   63CHL1  H21A 7121   3.907   1.349   9.460  0.8276  0.7927 -0.5865
   63CHL1  H21B 7122   3.759   1.443   9.404 -0.5995 -2.5425  2.3565
   63CHL1  H21C 7123   3.909   1.419   9.299  1.4180 -0.8464  0.3853
   63CHL1   C22 7124   3.714   1.300   9.161  0.4411 -0.8308 -0.6014
   63CHL1  H22A 7125   3.667   1.207   9.121 -1.6331 -0.2568  0.3786
   63CHL1  H22B 7126   3.630   1.371   9.175  0.0510 -1.1826 -1.1429
   63CHL1   C23 7127   3.821   1.353   9.059  1.1285 -0.0510  0.1673
   63CHL1  H23A 7128   3.869   1.447   9.094  1.0968 -0.3436  1.0161
   63CHL1  H23B 7129   3.909   1.286   9.064  0.3937 -0.9758  1.0820
   63CHL1   C24 7130   3.768   1.360   8.918 -0.5026 -0.1712 -0.0602
   63CHL1  H24A 7131   3.670   1.412   8.927  0.1488  0.8710  1.3286
   63CHL1  H24B 7132   3.814   1.433   8.849 -2.0397 -0.1613 -1.1229
   63CHL1   C25 7133   3.759   1.231   8.842  0.4358  0.1737 -0.1256
   63CHL1   H25 7134   3.715   1.147   8.900  1.8596 -1.2051 -0.9752
   63CHL1   C26 7135   3.688   1.255   8.711 -0.5169  0.2253  0.2499
   63CHL1  H26A 7136   3.580   1.280   8.714 -0.9562 -1.5164  0.3183
   63CHL1  H26B 7137   3.739   1.338   8.657  0.5480 -0.4083  0.2343
   63CHL1  H26C 7138   3.682   1.169   8.640 -3.2899  0.3009  0.2898
   63CHL1   C27 7139   3.894   1.163   8.801  0.0353  0.2542  0.1737
   63CHL1  H27A 7140   3.875   1.060   8.763 -0.2732  0.0880  0.7723
   63CHL1  H27B 7141   3.954   1.212   8.721  0.9452 -2.3209 -0.8423
   63CHL1  H27C 7142   3.965   1.159   8.886 -1.2110 -2.1048  1.1974
   64CHL1    C3 7143   2.546   0.743  10.199  0.1698  0.5067 -0.5334
   64CHL1    H3 7144   2.495   0.645  10.192  0.8086  0.2273 -1.3950
   64CHL1    O3 7145   2.581   0.786  10.332 -0.0103 -0.2811 -0.0247
   64CHL1   H3' 7146   2.535   0.870  10.338  0.6320  0.3016 -2.3111
   64CHL1    C4 7147   2.681   0.719  10.131  0.2342 -0.4591  0.4058
   64CHL1   H4A 7148   2.739   0.813  10.139 -0.5338  0.0088  0.5538
   64CHL1   H4B 7149   2.738   0.646  10.191  1.0780  0.2536  0.4919
   64CHL1    C5 7150   2.668   0.678   9.983 -0.4544  0.0582  0.4610
   64CHL1    C6 7151   2.731   0.574   9.933 -0.4625 -0.2057 -0.8223
   64CHL1    H6 7152   2.808   0.533  10.000  0.5922  1.8805 -0.6880
   64CHL1    C7 7153   2.735   0.532   9.793  0.7421 -0.1318  0.0513
   64CHL1   H7A 7154   2.837   0.534   9.750 -0.0095 -1.0364 -1.8998
   64CHL1   H7B 7155   2.697   0.429   9.776  2.1966 -0.5125 -1.0608
   64CHL1    C8 7156   2.644   0.619   9.705  0.1873 -0.7119 -0.0807
   64CHL1    H8 7157   2.713   0.699   9.672  0.7158 -0.8585  0.6440
   64CHL1   C14 7158   2.599   0.530   9.590 -0.5174  0.1025  0.7328
   64CHL1   H14 7159   2.524   0.458   9.628  2.0375 -3.1201  0.0740
   64CHL1   C15 7160   2.704   0.453   9.508 -0.1817  0.3290 -0.0577
   64CHL1  H15A 7161   2.801   0.506   9.501 -0.4531  0.7109 -0.9641
   64CHL1  H15B 7162   2.731   0.351   9.544  0.2719  0.5343  0.1980
   64CHL1   C16 7163   2.648   0.438   9.366 -0.4113  0.9014 -0.4551
   64CHL1  H16A 7164   2.715   0.488   9.292 -0.6638 -1.5148 -2.4639
   64CHL1  H16B 7165   2.652   0.332   9.331 -1.1977  0.0958  1.7628
   64CHL1   C17 7166   2.510   0.502   9.371  0.3704  0.3164  0.7884
   64CHL1   H17 7167   2.441   0.420   9.400 -1.7278  0.5306 -2.8773
   64CHL1   C13 7168   2.516   0.602   9.490  0.8148  0.0332  0.8231
   64CHL1   C18 7169   2.590   0.722   9.439  0.1619  0.0871  0.6918
   64CHL1  H18A 7170   2.606   0.788   9.526  0.9747  0.6012  0.1714
   64CHL1  H18B 7171   2.688   0.712   9.388  0.8766 -0.7843  2.1834
   64CHL1  H18C 7172   2.522   0.791   9.384 -0.0699 -1.3636 -0.9512
   64CHL1   C12 7173   2.382   0.641   9.559 -0.3522  0.3864  0.1940
   64CHL1  H12A 7174   2.316   0.705   9.496  0.2810  0.7166 -0.1459
   64CHL1  H12B 7175   2.326   0.548   9.581 -0.7925 -0.4675 -3.8363
   64CHL1   C11 7176   2.409   0.717   9.691  0.3334  0.6468 -0.2247
   64CHL1  H11A 7177   2.439   0.823   9.673  0.9923  0.9586  2.2888
   64CHL1  H11B 7178   2.311   0.713   9.742  0.6468 -1.3530  0.2893
   64CHL1    C9 7179   2.515   0.660   9.786 -0.5269 -0.2449  0.0758
   64CHL1    H9 7180   2.468   0.565   9.820 -1.0427  0.6603  1.9498
   64CHL1   C10 7181   2.554   0.747   9.911  0.3232 -0.6935 -0.3397
   64CHL1   C19 7182   2.614   0.883   9.869  0.6622 -0.0820  0.0177
   64CHL1  H19A 7183   2.533   0.942   9.822  0.2452 -1.5135 -1.1385
   64CHL1  H19B 7184   2.656   0.941   9.954  0.0860  0.2002  0.1106
   64CHL1  H19C 7185   2.688   0.883   9.786 -2.0154 -0.6593 -2.5608
   64CHL1    C1 7186   2.427   0.779   9.996  0.3131  0.3355 -0.2112
   64CHL1   H1A 7187   2.361   0.848   9.938 -0.1849  0.0539  0.0125
   64CHL1   H1B 7188   2.365   0.691  10.022  0.3121  0.6002  0.7028
   64CHL1    C2 7189   2.459   0.846  10.135 -0.2862 -0.0929  0.3917
   64CHL1   H2A 7190   2.373   0.875  10.198 -1.7502  1.9118 -2.3028
   64CHL1   H2B 7191   2.509   0.944  10.117 -0.6091  0.1844  0.9892
   64CHL1   C20 7192   2.440   0.556   9.241 -0.4025  0.0442 -1.1583
   64CHL1   H20 7193   2.451   0.667   9.247 -2.2212  0.2266 -0.2582
   64CHL1   C21 7194   2.291   0.525   9.232 -0.4867 -0.2555 -0.0322
   64CHL1  H21A 7195   2.244   0.569   9.323  2.4198  1.7901  0.6177
   64CHL1  H21B 7196   2.278   0.415   9.237 -0.0442 -0.2794  0.7577
   64CHL1  H21C 7197   2.252   0.562   9.135 -0.2359 -2.4434 -1.0320
   64CHL1   C22 7198   2.506   0.490   9.117 -0.4744  0.0048 -0.0043
   64CHL1  H22A 7199   2.542   0.385   9.119 -1.0998 -0.2124  0.0436
   64CHL1  H22B 7200   2.425   0.469   9.045  0.8053 -1.8865 -0.9996
   64CHL1   C23 7201   2.597   0.589   9.043  0.0481 -0.3906 -0.0810
   64CHL1  H23A 7202   2.537   0.675   9.008 -2.3897 -2.8895 -2.5536
   64CHL1  H23B 7203   2.680   0.617   9.112 -1.3801  0.2862  1.4313
   64CHL1   C24 7204   2.653   0.530   8.915  0.5205 -0.2804 -0.3611
   64CHL1  H24A 7205   2.688   0.426   8.928  1.5973  0.2552  1.5214
   64CHL1  H24B 7206   2.568   0.519   8.845 -0.4544 -1.9543  1.0193
   64CHL1   C25 7207   2.755   0.623   8.840  0.0074  0.3670 -0.4603
   64CHL1   H25 7208   2.717   0.726   8.825  1.0619  0.4920 -2.6922
   64CHL1   C26 7209   2.883   0.629   8.919 -0.2074  0.5306  1.1664
   64CHL1  H26A 7210   2.949   0.542   8.901  0.8985  1.5126  0.2852
   64CHL1  H26B 7211   2.936   0.719   8.881  0.9172 -1.0030 -1.2032
   64CHL1  H26C 7212   2.870   0.647   9.027  1.0949 -0.5815  1.5397
   64CHL1   C27 7213   2.776   0.573   8.698  0.4060 -0.1290 -0.1557
   64CHL1  H27A 7214   2.688   0.604   8.638 -0.2735 -0.7168  0.5144
   64CHL1  H27B 7215   2.869   0.614   8.655  0.5250 -0.8061 -0.5561
   64CHL1  H27C 7216   2.768   0.462   8.695 -2.6513 -0.0686  1.2254
   65CHL1    C3 7217   5.236   3.764  10.043  0.3608  0.4093  0.1343
   65CHL1    H3 7218   5.125   3.762  10.046  0.0934  1.6299 -3.7712
   65CHL1    O3 7219   5.300   3.734  10.160 -0.3663 -0.1234 -0.2741
   65CHL1   H3' 7220   5.315   3.814  10.211 -0.4906  0.7333 -1.5589
   65CHL1    C4 7221   5.287   3.669   9.925  0.1263 -0.3253  0.5157
   65CHL1   H4A 7222   5.398   3.659   9.923 -0.0083 -2.0969 -1.1214
   65CHL1   H4B 7223   5.246   3.569   9.953  0.0702 -0.6525 -0.6805
   65CHL1    C5 7224   5.234   3.714   9.792 -0.0293 -0.4756 -0.4074
   65CHL1    C6 7225   5.165   3.638   9.707  1.0335 -0.1265 -0.2779
   65CHL1    H6 7226   5.149   3.533   9.737  0.7510  0.7258  2.9448
   65CHL1    C7 7227   5.109   3.674   9.572 -0.5587 -0.1046 -0.2553
   65CHL1   H7A 7228   5.141   3.594   9.503  2.6877  0.7156  0.1233
   65CHL1   H7B 7229   4.998   3.672   9.569 -0.5363 -0.2039 -2.9974
   65CHL1    C8 7230   5.161   3.810   9.523  0.4318  0.2699  0.9329
   65CHL1    H8 7231   5.262   3.791   9.481 -0.8795  0.7081 -2.8236
   65CHL1   C14 7232   5.083   3.864   9.401 -0.5731 -0.1515 -0.1619
   65CHL1   H14 7233   4.977   3.883   9.429 -1.6072 -1.4330 -2.8543
   65CHL1   C15 7234   5.068   3.770   9.278 -0.6740 -0.1286 -0.3589
   65CHL1  H15A 7235   5.161   3.714   9.254 -1.2541 -1.7693  1.0111
   65CHL1  H15B 7236   4.985   3.696   9.287  1.1710 -2.0705  2.3419
   65CHL1   C16 7237   5.033   3.869   9.172  1.0703  0.1870 -0.1148
   65CHL1  H16A 7238   5.095   3.838   9.086  0.4815 -0.6600 -0.2467
   65CHL1  H16B 7239   4.925   3.850   9.154  1.0913  0.6337 -0.7632
   65CHL1   C17 7240   5.055   4.016   9.217  0.4177  0.7307  0.0778
   65CHL1   H17 7241   4.959   4.060   9.253 -0.1572  0.1685 -0.7162
   65CHL1   C13 7242   5.136   4.002   9.352 -0.1162  0.4722  0.1752
   65CHL1   C18 7243   5.289   3.977   9.318  0.6309 -0.8290 -0.3548
   65CHL1  H18A 7244   5.327   4.070   9.270 -0.1963 -1.0175 -1.4208
   65CHL1  H18B 7245   5.358   3.954   9.402  0.6284 -0.4715 -0.2506
   65CHL1  H18C 7246   5.298   3.906   9.233 -0.2981  1.7002 -2.7296
   65CHL1   C12 7247   5.114   4.096   9.460 -0.2091  0.2320 -0.6603
   65CHL1  H12A 7248   5.156   4.196   9.437  0.5100  0.2880  0.7450
   65CHL1  H12B 7249   5.007   4.109   9.489 -1.1515 -2.6969 -2.3922
   65CHL1   C11 7250   5.189   4.048   9.592  0.2041 -0.7504 -0.2311
   65CHL1  H11A 7251   5.296   4.061   9.566  0.4831 -1.3553  0.5926
   65CHL1  H11B 7252   5.160   4.124   9.667 -0.1801  0.4042 -1.4923
   65CHL1    C9 7253   5.166   3.902   9.639  0.8154 -0.9137  0.4269
   65CHL1    H9 7254   5.061   3.908   9.675 -0.3655  2.2389 -2.8791
   65CHL1   C10 7255   5.252   3.863   9.758 -1.1096  0.5383  0.7388
   65CHL1   C19 7256   5.408   3.888   9.727 -0.1530 -0.3812 -0.1272
   65CHL1  H19A 7257   5.431   3.994   9.705 -1.9707 -0.1615 -1.2008
   65CHL1  H19B 7258   5.465   3.866   9.820  0.0952 -1.2653 -0.4801
   65CHL1  H19C 7259   5.442   3.822   9.645  0.2598 -0.5327  0.1617
   65CHL1    C1 7260   5.209   3.959   9.874 -0.5492 -0.4745  0.2267
   65CHL1   H1A 7261   5.254   4.059   9.856 -0.5977 -0.5775 -0.5101
   65CHL1   H1B 7262   5.099   3.961   9.883 -0.5392  1.7939  0.4169
   65CHL1    C2 7263   5.271   3.912  10.011 -0.0458  0.6288  0.5639
   65CHL1   H2A 7264   5.225   3.981  10.084  2.3324  1.0722  1.7646
   65CHL1   H2B 7265   5.381   3.930  10.012  0.1094 -0.1952 -0.3352
   65CHL1   C20 7266   5.115   4.116   9.118 -0.5277 -0.4661 -0.2501
   65CHL1   H20 7267   5.210   4.075   9.078 -0.9649 -1.7043 -0.0724
   65CHL1   C21 7268   5.145   4.258   9.176  0.1078 -0.1422 -0.3373
   65CHL1  H21A 7269   5.230   4.256   9.248 -0.9243  2.1206  1.0272
   65CHL1  H21B 7270   5.050   4.302   9.213  0.2655 -0.3996  0.3982
   65CHL1  H21C 7271   5.178   4.325   9.094  0.5797 -0.1565 -0.1663
   65CHL1   C22 7272   5.034   4.123   8.990  0.8677 -0.1184 -0.3715
   65CHL1  H22A 7273   5.088   4.179   8.911 -0.7759  0.1017 -1.3795
   65CHL1  H22B 7274   5.023   4.028   8.934 -0.5530  0.2939 -0.8487
   65CHL1   C23 7275   4.892   4.184   9.008  0.0713  0.2591  0.0533
   65CHL1  H23A 7276   4.844   4.110   9.076  2.0241 -0.3497  0.8420
   65CHL1  H23B 7277   4.890   4.286   9.052 -1.1363  1.1772 -1.9654
   65CHL1   C24 7278   4.802   4.176   8.876  0.0452 -0.0325  0.2436
   65CHL1  H24A 7279   4.843   4.244   8.798  3.1479 -1.6296  0.3337
   65CHL1  H24B 7280   4.811   4.071   8.840 -0.0487  0.2376 -0.5935
   65CHL1   C25 7281   4.658   4.219   8.903 -0.6731  0.1266 -0.0356
   65CHL1   H25 7282   4.651   4.318   8.951  0.7931 -0.4301  1.3971
   65CHL1   C26 7283   4.579   4.243   8.763 -0.3399  0.3174 -0.4336
   65CHL1  H26A 7284   4.472   4.267   8.779 -0.4272  0.7456 -1.6252
   65CHL1  H26B 7285   4.633   4.330   8.721  0.9104  1.2995  2.8900
   65CHL1  H26C 7286   4.591   4.160   8.690  1.0264  1.7833 -1.9679
   65CHL1   C27 7287   4.584   4.123   9.002  0.0111 -0.4656  0.3230
   65CHL1  H27A 7288   4.480   4.100   8.971 -0.2044  0.1235  0.5875
   65CHL1  H27B 7289   4.648   4.033   9.003  1.0484  0.0260 -3.5690
   65CHL1  H27C 7290   4.582   4.167   9.104 -1.0859 -2.4938  1.2310
   66CHL1    C3 7291   3.851   3.070  10.554  0.0953 -0.5311 -0.0428
   66CHL1    H3 7292   3.941   3.130  10.530 -0.5644  2.1277  3.3654
   66CHL1    O3 7293   3.865   3.046  10.695  0.2110  0.3603  0.0030
   66CHL1   H3' 7294   3.804   2.972  10.705  2.0590 -1.2051  0.3267
   66CHL1    C4 7295   3.727   3.159  10.524 -0.2840 -0.0921  0.0104
   66CHL1   H4A 7296   3.647   3.119  10.589  0.4519  0.5986  1.3724
   66CHL1   H4B 7297   3.760   3.255  10.570 -3.2139  0.9513  0.1519
   66CHL1    C5 7298   3.691   3.169  10.379 -0.2635  0.5434  0.0021
   66CHL1    C6 7299   3.678   3.284  10.311  0.0479  0.2463  0.2491
   66CHL1    H6 7300   3.696   3.378  10.365  1.3153 -0.3650  0.9239
   66CHL1    C7 7301   3.625   3.295  10.172 -0.5075 -0.2354 -0.5228
   66CHL1   H7A 7302   3.538   3.365  10.172  1.5794  2.7702  3.1644
   66CHL1   H7B 7303   3.709   3.331  10.110 -0.3206 -1.0249 -0.7303
   66CHL1    C8 7304   3.579   3.156  10.114  0.7125  0.1079 -0.1116
   66CHL1    H8 7305   3.480   3.143  10.162  2.3840 -2.6735  3.0247
   66CHL1   C14 7306   3.565   3.154   9.964  0.5992  0.4104  0.0033
   66CHL1   H14 7307   3.666   3.154   9.918  1.5060  0.8863  1.9082
   66CHL1   C15 7308   3.490   3.270   9.913 -0.1637 -0.3857 -0.0577
   66CHL1  H15A 7309   3.404   3.298   9.978 -0.3062  0.6710 -0.6869
   66CHL1  H15B 7310   3.556   3.359   9.909 -1.5895  0.6713 -0.9542
   66CHL1   C16 7311   3.449   3.237   9.765 -0.5057  0.1247 -0.0628
   66CHL1  H16A 7312   3.344   3.273   9.753 -0.8108  0.2942  2.5256
   66CHL1  H16B 7313   3.505   3.293   9.687 -2.9260  0.8525 -1.3701
   66CHL1   C17 7314   3.486   3.080   9.754  0.3564 -0.6402  0.7619
   66CHL1   H17 7315   3.587   3.089   9.709  0.2333  2.3703  0.8882
   66CHL1   C13 7316   3.505   3.030   9.900 -0.4580  0.0510 -0.2015
   66CHL1   C18 7317   3.361   3.004   9.949 -0.2745 -0.0805 -0.6756
   66CHL1  H18A 7318   3.301   3.095   9.927  1.1154  1.2063  0.6321
   66CHL1  H18B 7319   3.313   2.912   9.909 -0.8688 -0.3372  0.5767
   66CHL1  H18C 7320   3.351   2.994  10.059  2.5898  0.8895 -0.2662
   66CHL1   C12 7321   3.605   2.912   9.928 -0.4026 -0.1736  0.8683
   66CHL1  H12A 7322   3.570   2.816   9.885 -0.0260  0.6008 -1.2895
   66CHL1  H12B 7323   3.699   2.935   9.874 -0.3168 -0.2045  1.0026
   66CHL1   C11 7324   3.627   2.902  10.087  0.7307  0.7137 -0.8443
   66CHL1  H11A 7325   3.528   2.872  10.128  1.5973 -0.0135  0.8037
   66CHL1  H11B 7326   3.707   2.827  10.105 -0.4138 -0.1259  1.0594
   66CHL1    C9 7327   3.662   3.037  10.154  0.5024  0.0549 -0.4749
   66CHL1    H9 7328   3.767   3.060  10.124  0.9416  0.7906  1.4772
   66CHL1   C10 7329   3.682   3.029  10.306  0.5555  0.4723 -0.4048
   66CHL1   C19 7330   3.549   2.973  10.363 -1.0503  0.1964 -0.1767
   66CHL1  H19A 7331   3.546   2.951  10.472  0.1152  1.4312  0.1371
   66CHL1  H19B 7332   3.461   3.032  10.330  0.1017  1.5706 -0.9030
   66CHL1  H19C 7333   3.534   2.871  10.322  2.1569  0.6697 -2.9698
   66CHL1    C1 7334   3.806   2.939  10.334 -0.2345 -0.2858 -0.1569
   66CHL1   H1A 7335   3.791   2.834  10.302  0.6311 -0.2897 -0.5726
   66CHL1   H1B 7336   3.897   2.985  10.290  0.0001  2.2954  2.7210
   66CHL1    C2 7337   3.839   2.936  10.488  0.0141  0.6978 -0.4792
   66CHL1   H2A 7338   3.929   2.875  10.512 -1.1253 -0.1658  1.8400
   66CHL1   H2B 7339   3.753   2.882  10.533  0.2826 -0.8961 -1.8018
   66CHL1   C20 7340   3.384   3.004   9.657 -0.1126  0.2875 -0.3708
   66CHL1   H20 7341   3.285   3.002   9.707 -1.3007 -1.0715 -2.6364
   66CHL1   C21 7342   3.439   2.862   9.637  0.0876  0.0071 -0.1931
   66CHL1  H21A 7343   3.538   2.855   9.589  0.7690  1.1768  0.9914
   66CHL1  H21B 7344   3.360   2.799   9.590  2.0792 -2.7684 -0.0929
   66CHL1  H21C 7345   3.453   2.814   9.737 -0.1161  0.9606  0.3029
   66CHL1   C22 7346   3.364   3.068   9.517  0.6094  0.6999  0.4059
   66CHL1  H22A 7347   3.324   3.170   9.538  0.8127  0.9599 -0.4020
   66CHL1  H22B 7348   3.463   3.089   9.470  0.5237 -0.5787 -0.4000
   66CHL1   C23 7349   3.262   3.006   9.418  0.2346  0.3130 -0.4097
   66CHL1  H23A 7350   3.306   2.919   9.365 -0.9421 -0.8945  0.5096
   66CHL1  H23B 7351   3.169   2.979   9.473 -0.1047  1.5139 -0.3648
   66CHL1   C24 7352   3.238   3.101   9.303 -0.2119 -0.6994  0.1398
   66CHL1  H24A 7353   3.215   3.202   9.343  2.6315  0.4876 -0.9862
   66CHL1  H24B 7354   3.324   3.110   9.234 -1.4760  1.4605 -1.2554
   66CHL1   C25 7355   3.128   3.058   9.209  0.0930  0.1326 -1.0833
   66CHL1   H25 7356   3.140   2.948   9.198 -0.2130 -0.1099  0.6706
   66CHL1   C26 7357   2.980   3.057   9.265 -0.5881  0.0970 -1.0925
   66CHL1  H26A 7358   2.978   3.024   9.371  0.3224  0.1062 -1.0583
   66CHL1  H26B 7359   2.939   3.160   9.265 -1.7336 -0.3475 -0.4977
   66CHL1  H26C 7360   2.914   2.999   9.197  0.8846 -0.9542 -1.6709
   66CHL1   C27 7361   3.132   3.124   9.073 -0.1882  0.3157  0.8488
   66CHL1  H27A 7362   3.124   3.234   9.089  1.6286  0.1728  3.4063
   66CHL1  H27B 7363   3.231   3.106   9.026 -0.9082 -1.9276  0.0688
   66CHL1  H27C 7364   3.054   3.074   9.012 -0.2650 -2.0443  2.7075
   67CHL1    C3 7365   0.579   2.593  10.255 -0.1056 -0.6607  0.2970
   67CHL1    H3 7366   0.485   2.652  10.266 -0.6858 -0.2243 -4.5437
   67CHL1    O3 7367   0.627   2.550  10.379  0.1452 -0.2965 -0.4232
   67CHL1   H3' 7368   0.711   2.503  10.371  0.0198 -0.7772  0.7899
   67CHL1    C4 7369   0.552   2.469  10.167 -0.0013  0.4588  0.0892
   67CHL1   H4A 7370   0.641   2.403  10.168  0.0026  0.4469 -0.5704
   67CHL1   H4B 7371   0.468   2.420  10.220  2.6171 -1.2254  2.9287
   67CHL1    C5 7372   0.530   2.492  10.015  0.5094 -1.1131 -0.5597
   67CHL1    C6 7373   0.415   2.450   9.954 -0.6686 -0.0499 -0.2610
   67CHL1    H6 7374   0.351   2.385  10.016  0.6253 -1.5096 -0.3886
   67CHL1    C7 7375   0.390   2.476   9.812  0.4223  0.5046 -0.3466
   67CHL1   H7A 7376   0.365   2.379   9.764  1.1231  0.4790 -0.6575
   67CHL1   H7B 7377   0.300   2.541   9.806 -0.0217 -0.0896 -0.2327
   67CHL1    C8 7378   0.499   2.538   9.731 -0.2801  0.7106 -0.2976
   67CHL1    H8 7379   0.571   2.457   9.709 -0.8258  0.1220  0.0559
   67CHL1   C14 7380   0.442   2.594   9.604 -0.1427  0.9386  0.9283
   67CHL1   H14 7381   0.367   2.672   9.628  0.9375  2.0773  0.6989
   67CHL1   C15 7382   0.342   2.514   9.527 -0.6212  1.1158 -0.4078
   67CHL1  H15A 7383   0.378   2.411   9.506 -1.5945  0.7646 -0.4123
   67CHL1  H15B 7384   0.245   2.510   9.581 -1.3180  1.7194 -1.5770
   67CHL1   C16 7385   0.334   2.589   9.392 -0.1893 -0.3541  0.5459
   67CHL1  H16A 7386   0.385   2.526   9.317  1.8963  1.6739  0.1439
   67CHL1  H16B 7387   0.232   2.614   9.358 -1.1577 -4.7822 -0.3900
   67CHL1   C17 7388   0.438   2.713   9.406  0.0974 -0.0933  0.4498
   67CHL1   H17 7389   0.381   2.798   9.448  3.1276  2.1378  0.3551
   67CHL1   C13 7390   0.535   2.673   9.512 -0.1343  0.0420  0.1160
   67CHL1   C18 7391   0.638   2.579   9.447  0.1811 -0.0473  0.0145
   67CHL1  H18A 7392   0.678   2.513   9.527 -0.0067 -1.5649 -1.1034
   67CHL1  H18B 7393   0.596   2.525   9.359  0.4810  2.2909 -1.6333
   67CHL1  H18C 7394   0.726   2.640   9.417 -0.5880  0.8731 -0.3934
   67CHL1   C12 7395   0.602   2.778   9.592  0.1691 -0.6374  0.6924
   67CHL1  H12A 7396   0.676   2.837   9.533  0.3530  0.7520  2.2365
   67CHL1  H12B 7397   0.531   2.852   9.635  0.9925  1.2175 -0.9598
   67CHL1   C11 7398   0.672   2.723   9.714  0.5432 -0.8090  0.3662
   67CHL1  H11A 7399   0.750   2.649   9.684 -0.0209 -1.0169 -0.6207
   67CHL1  H11B 7400   0.721   2.808   9.766  2.6153 -1.3544 -0.5828
   67CHL1    C9 7401   0.570   2.652   9.808  0.5057  0.3974  0.2111
   67CHL1    H9 7402   0.492   2.730   9.823  1.2852  1.5414 -1.3989
   67CHL1   C10 7403   0.624   2.595   9.950  0.2129 -0.4506  1.0610
   67CHL1   C19 7404   0.758   2.533   9.919  0.1593  0.3756 -0.8431
   67CHL1  H19A 7405   0.833   2.605   9.880  1.0476  0.0106  0.1243
   67CHL1  H19B 7406   0.802   2.475  10.003 -0.2434  0.2734 -0.6983
   67CHL1  H19C 7407   0.741   2.458   9.839 -2.1305 -1.4420  1.1887
   67CHL1    C1 7408   0.647   2.718  10.050  0.5674  0.2568  0.0730
   67CHL1   H1A 7409   0.723   2.786  10.006  1.2890 -0.5549  0.0383
   67CHL1   H1B 7410   0.548   2.769  10.058 -0.2746 -1.4826  1.3843
   67CHL1    C2 7411   0.691   2.682  10.190 -0.1503  0.0325  0.3837
   67CHL1   H2A 7412   0.708   2.771  10.254  0.7964  1.0963 -1.2732
   67CHL1   H2B 7413   0.785   2.623  10.184 -0.1095  0.0040  1.1915
   67CHL1   C20 7414   0.484   2.758   9.268  0.1575 -0.6898  0.5807
   67CHL1   H20 7415   0.535   2.675   9.216  0.9532  0.5834 -0.7484
   67CHL1   C21 7416   0.586   2.873   9.270 -0.2539  0.0079  0.0393
   67CHL1  H21A 7417   0.545   2.959   9.327  1.8142  2.0309 -1.3135
   67CHL1  H21B 7418   0.618   2.896   9.166  2.4215 -1.0510  0.5183
   67CHL1  H21C 7419   0.675   2.845   9.331  2.5965  2.3547 -2.6580
   67CHL1   C22 7420   0.372   2.813   9.181  0.6291  0.3702 -0.3464
   67CHL1  H22A 7421   0.273   2.767   9.199  0.4415  1.1831  0.7805
   67CHL1  H22B 7422   0.347   2.920   9.195 -1.9921 -0.0460 -1.3457
   67CHL1   C23 7423   0.402   2.795   9.033 -0.6942 -0.0733  0.5966
   67CHL1  H23A 7424   0.491   2.855   9.006 -0.5949 -0.7970 -0.7806
   67CHL1  H23B 7425   0.433   2.693   9.005  2.1826  0.2745  2.2126
   67CHL1   C24 7426   0.304   2.871   8.939 -0.4949 -0.5065  0.1575
   67CHL1  H24A 7427   0.205   2.821   8.945 -0.3852 -0.9733 -1.4125
   67CHL1  H24B 7428   0.287   2.972   8.981  2.0072 -0.0714  0.2832
   67CHL1   C25 7429   0.339   2.878   8.788 -0.0708 -0.0075 -0.0059
   67CHL1   H25 7430   0.443   2.915   8.781 -0.9523  2.5641 -0.6797
   67CHL1   C26 7431   0.340   2.744   8.720  0.5268  0.2711  0.5431
   67CHL1  H26A 7432   0.405   2.671   8.773  2.3385  1.1708 -0.3184
   67CHL1  H26B 7433   0.237   2.702   8.714  0.0835  1.4723 -0.9312
   67CHL1  H26C 7434   0.378   2.737   8.616 -0.2491  3.6324 -0.0823
   67CHL1   C27 7435   0.248   2.975   8.701 -0.5064 -0.2148  0.5863
   67CHL1  H27A 7436   0.269   2.979   8.592 -0.9964  0.3792  0.5103
   67CHL1  H27B 7437   0.142   2.943   8.701 -0.3911 -0.8404 -1.8170
   67CHL1  H27C 7438   0.255   3.078   8.740 -0.4934  0.6569 -1.6016
   68CHL1    C3 7439   5.704   4.346  10.214  0.4956 -1.4023 -0.6521
   68CHL1    H3 7440   5.712   4.456  10.225  1.9731 -1.5984  0.5295
   68CHL1    O3 7441   5.737   4.296  10.345  0.3411 -0.0552 -0.6398
   68CHL1   H3' 7442   5.669   4.340  10.396  1.1657  2.5632 -1.6465
   68CHL1    C4 7443   5.557   4.310  10.177  0.3010  0.3649  0.3267
   68CHL1   H4A 7444   5.535   4.202  10.181 -2.1029  0.8474  2.1931
   68CHL1   H4B 7445   5.494   4.357  10.255  0.3056 -2.2028  2.0084
   68CHL1    C5 7446   5.527   4.346  10.027  0.5020  0.0269  0.3806
   68CHL1    C6 7447   5.423   4.433   9.993 -0.4336 -0.1261 -0.2777
   68CHL1    H6 7448   5.350   4.466  10.068 -2.6151 -1.6198 -1.6266
   68CHL1    C7 7449   5.374   4.463   9.856  0.0080  0.3764 -0.2174
   68CHL1   H7A 7450   5.271   4.429   9.831  0.6300 -1.2611 -0.6839
   68CHL1   H7B 7451   5.378   4.573   9.843  1.2543  0.5271  1.2631
   68CHL1    C8 7452   5.467   4.387   9.745  0.2328  0.4830  0.1916
   68CHL1    H8 7453   5.428   4.283   9.734  2.8890 -0.4940 -0.8065
   68CHL1   C14 7454   5.453   4.468   9.615 -0.4262 -0.5114  0.5967
   68CHL1   H14 7455   5.495   4.569   9.635 -0.6040 -0.1388 -0.8252
   68CHL1   C15 7456   5.313   4.502   9.565 -0.1062  0.5871 -0.4174
   68CHL1  H15A 7457   5.253   4.408   9.569  1.3193 -0.3156  0.2427
   68CHL1  H15B 7458   5.265   4.580   9.627  0.5043  1.5995 -1.1929
   68CHL1   C16 7459   5.331   4.540   9.420 -0.4598 -0.0036 -0.0855
   68CHL1  H16A 7460   5.256   4.485   9.360  2.4093 -0.7615 -3.2775
   68CHL1  H16B 7461   5.304   4.646   9.402  0.6245  0.5736  1.4355
   68CHL1   C17 7462   5.486   4.513   9.387  0.6401 -0.7752 -0.2978
   68CHL1   H17 7463   5.538   4.610   9.400  1.1689 -1.1238  0.2935
   68CHL1   C13 7464   5.533   4.416   9.497 -0.7066  0.0030 -0.2506
   68CHL1   C18 7465   5.496   4.275   9.456  0.4914 -0.1879  0.1417
   68CHL1  H18A 7466   5.562   4.238   9.375  1.5455  0.0558  0.8685
   68CHL1  H18B 7467   5.513   4.210   9.545 -1.0470 -0.7059  0.0798
   68CHL1  H18C 7468   5.391   4.271   9.421 -0.1125 -1.6930  1.9405
   68CHL1   C12 7469   5.684   4.421   9.541  0.8798 -0.4196  0.3393
   68CHL1  H12A 7470   5.755   4.374   9.471  0.2525 -1.4249  0.3504
   68CHL1  H12B 7471   5.705   4.530   9.553 -0.4059 -0.2075  0.8299
   68CHL1   C11 7472   5.707   4.348   9.673  0.0847 -0.2166 -0.1425
   68CHL1  H11A 7473   5.719   4.238   9.664  2.8388  0.0500 -0.5279
   68CHL1  H11B 7474   5.810   4.382   9.699  0.2354 -0.6917 -0.1171
   68CHL1    C9 7475   5.607   4.380   9.787  0.3381 -0.4363 -0.7796
   68CHL1    H9 7476   5.627   4.487   9.808  0.0359 -0.9840  2.9741
   68CHL1   C10 7477   5.627   4.302   9.922  0.7154  0.9054 -0.3733
   68CHL1   C19 7478   5.622   4.151   9.897  0.0507  0.2748  0.2639
   68CHL1  H19A 7479   5.537   4.106   9.843  0.1931 -0.3328  0.5267
   68CHL1  H19B 7480   5.700   4.109   9.830 -1.0365 -2.2832  0.4625
   68CHL1  H19C 7481   5.641   4.096   9.992 -0.1753 -2.1955 -1.0446
   68CHL1    C1 7482   5.766   4.349   9.972  0.0621  0.1399  0.0436
   68CHL1   H1A 7483   5.853   4.322   9.908  0.6677 -2.6083  1.8610
   68CHL1   H1B 7484   5.753   4.459   9.967 -1.1927 -0.0079 -0.3593
   68CHL1    C2 7485   5.801   4.298  10.111 -0.5369  0.5237 -0.1146
   68CHL1   H2A 7486   5.904   4.337  10.126 -0.4711  1.3996 -2.4703
   68CHL1   H2B 7487   5.799   4.187  10.116  1.8674  0.3418 -1.7971
   68CHL1   C20 7488   5.505   4.470   9.238  0.0546 -0.0745  0.2140
   68CHL1   H20 7489   5.443   4.378   9.232  0.2677 -0.2203  0.2264
   68CHL1   C21 7490   5.651   4.445   9.205  0.4516  0.1834  0.4280
   68CHL1  H21A 7491   5.676   4.401   9.106 -1.6543 -0.3468  0.0771
   68CHL1  H21B 7492   5.690   4.378   9.284 -1.3632 -2.4361 -0.7393
   68CHL1  H21C 7493   5.704   4.541   9.223 -0.8767  1.4107 -1.7121
   68CHL1   C22 7494   5.442   4.562   9.141  0.3260  0.8157 -0.1443
   68CHL1  H22A 7495   5.348   4.604   9.185  0.6385  1.2848  0.0884
   68CHL1  H22B 7496   5.505   4.650   9.117 -0.6633  1.6218  0.1137
   68CHL1   C23 7497   5.413   4.489   9.014 -0.6283 -0.1694  0.2787
   68CHL1  H23A 7498   5.510   4.448   8.979 -0.4661  1.4430 -1.3008
   68CHL1  H23B 7499   5.345   4.403   9.032  0.2707 -1.0890 -0.5926
   68CHL1   C24 7500   5.341   4.577   8.907  0.3234 -0.1480  0.1161
   68CHL1  H24A 7501   5.251   4.629   8.945  2.0622  1.5861  2.1061
   68CHL1  H24B 7502   5.404   4.665   8.880 -2.5047  2.0625  0.2347
   68CHL1   C25 7503   5.310   4.522   8.771 -0.1815 -0.2603  0.6646
   68CHL1   H25 7504   5.254   4.603   8.720  0.1490  0.9723  2.2026
   68CHL1   C26 7505   5.431   4.469   8.694 -0.4086  0.1547  0.4521
   68CHL1  H26A 7506   5.402   4.424   8.597  2.1653 -1.8942  0.5285
   68CHL1  H26B 7507   5.503   4.552   8.682  0.6376 -0.9182 -1.0791
   68CHL1  H26C 7508   5.489   4.401   8.761  3.0170  0.6537 -1.7947
   68CHL1   C27 7509   5.217   4.405   8.788  0.1097  0.5047  0.0543
   68CHL1  H27A 7510   5.266   4.324   8.847 -1.4679 -1.6143 -1.3779
   68CHL1  H27B 7511   5.121   4.437   8.834 -1.4074 -2.7376 -0.5351
   68CHL1  H27C 7512   5.194   4.355   8.692  1.0878  2.2727 -1.1583
   69CHL1    C3 7513   5.429   2.746   6.809  0.0578 -0.4769 -0.5043
   69CHL1    H3 7514   5.534   2.782   6.804  0.7841 -2.4295 -0.2115
   69CHL1    O3 7515   5.396   2.712   6.676 -0.1451  0.1425  0.0428
   69CHL1   H3' 7516   5.423   2.783   6.618 -1.2166  0.2420 -0.3646
   69CHL1    C4 7517   5.425   2.619   6.896 -0.8634 -0.4185 -0.4148
   69CHL1   H4A 7518   5.320   2.584   6.890 -1.0644  0.1748 -0.4178
   69CHL1   H4B 7519   5.488   2.538   6.853  1.9124  1.5880 -0.4336
   69CHL1    C5 7520   5.455   2.652   7.046 -0.0887 -0.4710  0.4715
   69CHL1    C6 7521   5.558   2.587   7.113 -0.2876  0.0883 -0.3596
   69CHL1    H6 7522   5.617   2.509   7.062 -2.5996 -1.3048 -1.0668
   69CHL1    C7 7523   5.582   2.606   7.259 -0.1256  0.2946 -0.4000
   69CHL1   H7A 7524   5.599   2.510   7.313  3.2804  0.8670 -0.2394
   69CHL1   H7B 7525   5.677   2.663   7.271  1.2739 -1.0383 -3.9663
   69CHL1    C8 7526   5.468   2.684   7.331  0.2844 -0.5173  0.4053
   69CHL1    H8 7527   5.384   2.611   7.337 -0.1238 -0.1922 -1.0209
   69CHL1   C14 7528   5.519   2.731   7.473 -0.1177  0.3934  0.2215
   69CHL1   H14 7529   5.607   2.797   7.457  1.1530 -1.2916  0.0080
   69CHL1   C15 7530   5.555   2.619   7.574 -0.2187 -0.3698 -0.0448
   69CHL1  H15A 7531   5.481   2.536   7.566 -0.6179  0.0636 -0.8789
   69CHL1  H15B 7532   5.657   2.581   7.549 -0.1606  0.6383 -1.3793
   69CHL1   C16 7533   5.544   2.686   7.715 -0.5070  0.8044  0.0043
   69CHL1  H16A 7534   5.484   2.612   7.772 -0.4737  0.0487 -0.9153
   69CHL1  H16B 7535   5.641   2.707   7.765 -1.2948 -1.2249  2.6071
   69CHL1   C17 7536   5.471   2.825   7.690 -0.5916  0.2628 -0.7252
   69CHL1   H17 7537   5.548   2.904   7.687  0.2094 -0.3305  1.9950
   69CHL1   C13 7538   5.415   2.811   7.545  0.0543 -0.4654  0.1194
   69CHL1   C18 7539   5.276   2.746   7.549 -0.4268 -0.4669 -0.3543
   69CHL1  H18A 7540   5.244   2.717   7.446 -1.1802  1.0739 -0.5758
   69CHL1  H18B 7541   5.266   2.652   7.607  0.6203  0.0441  0.6963
   69CHL1  H18C 7542   5.200   2.823   7.572 -0.1798 -0.4265  0.3485
   69CHL1   C12 7543   5.416   2.936   7.462  0.2874 -0.3258  0.3257
   69CHL1  H12A 7544   5.360   3.014   7.518  0.2544 -1.3626  1.8066
   69CHL1  H12B 7545   5.511   2.991   7.449 -0.4612  0.7268 -0.9645
   69CHL1   C11 7546   5.354   2.918   7.323 -0.1985  0.2896  0.1261
   69CHL1  H11A 7547   5.248   2.891   7.341  0.2101 -0.0511  2.4265
   69CHL1  H11B 7548   5.355   3.011   7.264 -1.0748  0.8041  0.8934
   69CHL1    C9 7549   5.433   2.809   7.246  1.2492  0.4358  0.6228
   69CHL1    H9 7550   5.531   2.858   7.227  1.6951 -1.2548 -1.8353
   69CHL1   C10 7551   5.370   2.769   7.113 -0.3789 -0.1136  0.3274
   69CHL1   C19 7552   5.224   2.733   7.136 -0.5755 -0.1132 -0.2247
   69CHL1  H19A 7553   5.185   2.698   7.038  1.0663  1.8879 -1.6756
   69CHL1  H19B 7554   5.205   2.659   7.217  2.6820 -0.2423  0.5472
   69CHL1  H19C 7555   5.174   2.831   7.151 -1.4617 -0.5020 -0.5543
   69CHL1    C1 7556   5.378   2.890   7.015 -0.0841  0.8064 -0.2280
   69CHL1   H1A 7557   5.308   2.965   7.058 -1.3006 -1.4384  1.9968
   69CHL1   H1B 7558   5.479   2.935   7.021 -0.9410  3.1654 -1.8454
   69CHL1    C2 7559   5.343   2.857   6.868  0.0535 -0.5853  0.3690
   69CHL1   H2A 7560   5.342   2.950   6.808 -0.8107  0.0186  1.2858
   69CHL1   H2B 7561   5.238   2.821   6.871  0.8749 -3.1792  2.3705
   69CHL1   C20 7562   5.376   2.865   7.812  0.0032 -0.1700  0.2755
   69CHL1   H20 7563   5.290   2.795   7.810  0.8366 -1.2177 -0.1911
   69CHL1   C21 7564   5.326   3.005   7.786 -0.2333 -0.0587 -0.5525
   69CHL1  H21A 7565   5.246   3.002   7.709  0.2615  0.3524 -1.0892
   69CHL1  H21B 7566   5.394   3.079   7.739  0.2060 -1.5188 -2.3467
   69CHL1  H21C 7567   5.289   3.056   7.877 -1.4175  0.1041 -1.1065
   69CHL1   C22 7568   5.436   2.862   7.951 -0.1718 -0.3434  0.0846
   69CHL1  H22A 7569   5.542   2.894   7.955 -0.5679  0.9742  0.4500
   69CHL1  H22B 7570   5.381   2.932   8.018 -1.0732  0.9432 -1.9013
   69CHL1   C23 7571   5.454   2.726   8.030 -0.7102  0.4309  0.0673
   69CHL1  H23A 7572   5.549   2.671   8.010  0.1266 -0.3865  4.9491
   69CHL1  H23B 7573   5.466   2.765   8.133 -2.1634  0.1393  0.3711
   69CHL1   C24 7574   5.336   2.632   8.025 -0.1012  0.6603 -0.2115
   69CHL1  H24A 7575   5.257   2.692   8.075  0.0976  1.1850 -0.5149
   69CHL1  H24B 7576   5.304   2.614   7.920  0.8144 -0.2899 -0.3465
   69CHL1   C25 7577   5.363   2.498   8.103  0.5461 -0.3545  0.1429
   69CHL1   H25 7578   5.471   2.473   8.091  1.0954  0.7846  2.1821
   69CHL1   C26 7579   5.342   2.514   8.248  0.1088  0.1499  0.3988
   69CHL1  H26A 7580   5.403   2.594   8.294 -0.4955  0.0480  1.4190
   69CHL1  H26B 7581   5.232   2.521   8.260 -0.1911 -2.4537 -0.0752
   69CHL1  H26C 7582   5.362   2.419   8.304  2.0782  1.0357  1.3006
   69CHL1   C27 7583   5.283   2.387   8.031  0.3331  0.3521  0.4568
   69CHL1  H27A 7584   5.317   2.295   8.082  0.1471 -1.2289 -2.0829
   69CHL1  H27B 7585   5.174   2.400   8.048  0.1847 -0.5110  0.1885
   69CHL1  H27C 7586   5.310   2.396   7.923  0.5817  0.7769  0.5532
   70CHL1    C3 7587   4.582   6.036   7.023 -0.1938  0.1210  0.3310
   70CHL1    H3 7588   4.677   6.094   7.025  1.1354 -1.9317 -0.5519
   70CHL1    O3 7589   4.512   6.041   6.897  0.2636 -0.0231  0.4306
   70CHL1   H3' 7590   4.426   6.000   6.910 -0.3761  1.1722  0.0812
   70CHL1    C4 7591   4.623   5.894   7.070 -0.4263 -0.5187 -0.5359
   70CHL1   H4A 7592   4.534   5.830   7.084  0.0118 -1.6004 -2.3407
   70CHL1   H4B 7593   4.684   5.840   6.995 -0.3302 -1.6342  0.3194
   70CHL1    C5 7594   4.700   5.892   7.199 -0.5667 -0.4257  0.0908
   70CHL1    C6 7595   4.827   5.843   7.222  0.7961  0.4228 -0.2259
   70CHL1    H6 7596   4.887   5.802   7.140  0.5015 -0.4746 -0.0023
   70CHL1    C7 7597   4.895   5.835   7.355  0.4562  0.2812  0.2605
   70CHL1   H7A 7598   4.937   5.734   7.369 -1.0225 -0.5539 -0.9718
   70CHL1   H7B 7599   4.980   5.906   7.345  1.3187 -0.4410  2.1419
   70CHL1    C8 7600   4.803   5.863   7.478  0.1439  0.6067 -0.1695
   70CHL1    H8 7601   4.740   5.773   7.494  0.1869  0.4947 -0.6397
   70CHL1   C14 7602   4.879   5.892   7.606  0.1337  0.1369  0.3965
   70CHL1   H14 7603   4.947   5.975   7.579  1.8608 -1.1551  0.5696
   70CHL1   C15 7604   4.979   5.776   7.649  0.8170 -0.2968  0.5019
   70CHL1  H15A 7605   4.916   5.685   7.635 -0.2830  0.6008 -0.6168
   70CHL1  H15B 7606   5.070   5.771   7.586  0.6369 -2.9029  0.3694
   70CHL1   C16 7607   5.007   5.817   7.795  0.0763 -0.0867  0.1770
   70CHL1  H16A 7608   5.001   5.717   7.844  0.2144 -0.6788 -0.9820
   70CHL1  H16B 7609   5.110   5.854   7.816  0.3243 -1.2100  1.0500
   70CHL1   C17 7610   4.906   5.926   7.843  0.3322  0.4931 -0.1922
   70CHL1   H17 7611   4.961   6.022   7.831  0.7990  0.1166 -1.2536
   70CHL1   C13 7612   4.797   5.918   7.735 -0.0902  0.2880  0.9996
   70CHL1   C18 7613   4.696   5.807   7.773 -0.0461  0.0948 -1.1015
   70CHL1  H18A 7614   4.627   5.842   7.853  2.6476  0.5422  1.1899
   70CHL1  H18B 7615   4.626   5.795   7.688 -1.9502  3.0188 -0.0901
   70CHL1  H18C 7616   4.751   5.717   7.809  0.2127  0.7814  0.2933
   70CHL1   C12 7617   4.728   6.053   7.700  0.1810 -0.4397 -0.1304
   70CHL1  H12A 7618   4.657   6.080   7.780 -1.6552  0.1337 -1.8593
   70CHL1  H12B 7619   4.800   6.134   7.681  0.8687 -1.1180 -0.4793
   70CHL1   C11 7620   4.639   6.037   7.574 -0.1741  0.2459 -0.2098
   70CHL1  H11A 7621   4.545   5.985   7.602  0.3215 -1.2637 -1.2150
   70CHL1  H11B 7622   4.597   6.138   7.553 -0.3163  0.5739  1.5411
   70CHL1    C9 7623   4.713   5.983   7.446 -0.8256 -0.8977 -0.0401
   70CHL1    H9 7624   4.787   6.062   7.421  0.8724 -1.8164  1.7848
   70CHL1   C10 7625   4.624   5.951   7.320  0.2723 -0.1988  0.8246
   70CHL1   C19 7626   4.502   5.861   7.355  0.0910 -0.3668  0.1562
   70CHL1  H19A 7627   4.450   5.914   7.438 -0.1502  2.5981 -1.7484
   70CHL1  H19B 7628   4.429   5.840   7.274 -0.9747 -0.4858  1.1122
   70CHL1  H19C 7629   4.544   5.762   7.383 -0.7044 -0.9098 -0.5206
   70CHL1    C1 7630   4.560   6.084   7.271  0.0411  0.0319 -0.2115
   70CHL1   H1A 7631   4.487   6.133   7.339 -1.1786  3.8920 -3.8974
   70CHL1   H1B 7632   4.642   6.157   7.256  0.5186 -0.8692 -2.4004
   70CHL1    C2 7633   4.494   6.086   7.132  0.0740  0.6328  0.4760
   70CHL1   H2A 7634   4.461   6.187   7.099 -0.7733  0.9723  2.2374
   70CHL1   H2B 7635   4.402   6.023   7.124  0.1601  0.7194 -2.1352
   70CHL1   C20 7636   4.873   5.910   7.992 -1.0721  0.3981 -0.4190
   70CHL1   H20 7637   4.813   5.819   8.016  1.1691 -0.5605  2.0029
   70CHL1   C21 7638   4.802   6.033   8.034 -0.3611  0.0439 -0.6483
   70CHL1  H21A 7639   4.857   6.129   8.023  1.3303 -0.9152 -0.9228
   70CHL1  H21B 7640   4.757   6.023   8.135 -0.9796  0.7535 -0.8441
   70CHL1  H21C 7641   4.715   6.051   7.967 -1.9461 -0.4741  1.1594
   70CHL1   C22 7642   5.003   5.891   8.084  0.1051 -0.7203 -0.2699
   70CHL1  H22A 7643   5.070   5.810   8.047  1.2306  1.2840 -2.9386
   70CHL1  H22B 7644   5.064   5.984   8.087 -0.4891 -0.2863 -1.2400
   70CHL1   C23 7645   4.971   5.856   8.237  0.4822  0.3697  0.1263
   70CHL1  H23A 7646   4.908   5.939   8.275  1.2195 -0.3759  3.3695
   70CHL1  H23B 7647   4.908   5.765   8.238  0.9243  0.0548  0.7210
   70CHL1   C24 7648   5.098   5.827   8.317  1.0216 -0.6015  0.0560
   70CHL1  H24A 7649   5.145   5.757   8.244 -0.6737 -0.3082 -1.3790
   70CHL1  H24B 7650   5.162   5.919   8.321  1.8813 -1.0724 -1.7297
   70CHL1   C25 7651   5.072   5.746   8.449  0.2134 -0.7146 -0.4830
   70CHL1   H25 7652   5.003   5.663   8.423 -0.9256 -0.2538  0.9713
   70CHL1   C26 7653   5.200   5.687   8.505 -0.7251 -0.1621  0.0363
   70CHL1  H26A 7654   5.170   5.649   8.605 -0.1844  0.4874  0.4458
   70CHL1  H26B 7655   5.237   5.612   8.432 -0.1869  0.6530 -0.5487
   70CHL1  H26C 7656   5.279   5.760   8.530 -0.6459 -0.4792  0.7127
   70CHL1   C27 7657   5.011   5.845   8.544  0.4328 -0.2068 -0.2489
   70CHL1  H27A 7658   4.941   5.789   8.610  1.0672 -1.5202 -0.6671
   70CHL1  H27B 7659   5.081   5.900   8.611 -0.6899 -0.6773  1.3749
   70CHL1  H27C 7660   4.939   5.909   8.488  0.1025 -1.2865 -1.0967
   71CHL1    C3 7661   1.991   3.539   6.734  0.6542  0.3522  1.2457
   71CHL1    H3 7662   2.000   3.649   6.726  1.5780  0.1422 -2.2999
   71CHL1    O3 7663   2.000   3.477   6.606 -0.3526  0.1582  0.4661
   71CHL1   H3' 7664   1.956   3.392   6.608 -0.9145  0.4453  0.5514
   71CHL1    C4 7665   2.099   3.486   6.827  0.3726 -0.0643 -0.1324
   71CHL1   H4A 7666   2.104   3.376   6.811  0.6885 -0.0401 -0.2058
   71CHL1   H4B 7667   2.198   3.524   6.796  0.5989 -1.2834 -0.9748
   71CHL1    C5 7668   2.075   3.520   6.968  0.0672 -0.0577  0.5035
   71CHL1    C6 7669   2.164   3.596   7.036  0.2687  0.5184  0.6073
   71CHL1    H6 7670   2.245   3.656   6.991 -0.7617 -0.8682 -3.5696
   71CHL1    C7 7671   2.151   3.621   7.189  0.2932 -0.2626  0.4907
   71CHL1   H7A 7672   2.249   3.628   7.241  1.1673 -0.4840 -1.0644
   71CHL1   H7B 7673   2.103   3.721   7.195  0.5350 -0.0873 -0.3234
   71CHL1    C8 7674   2.061   3.517   7.251  0.1323 -0.9595  0.1717
   71CHL1    H8 7675   2.113   3.420   7.243  0.3333 -0.7573 -1.2729
   71CHL1   C14 7676   2.033   3.555   7.399  0.2473  0.4301 -0.8230
   71CHL1   H14 7677   1.979   3.651   7.387 -1.5009 -0.5365 -0.9661
   71CHL1   C15 7678   2.140   3.590   7.501 -0.3678  0.0698 -1.1246
   71CHL1  H15A 7679   2.221   3.514   7.497  2.5482  2.9345 -0.5633
   71CHL1  H15B 7680   2.186   3.690   7.484  2.4989 -1.0031 -0.3007
   71CHL1   C16 7681   2.077   3.594   7.639  0.3104 -0.0397 -0.5111
   71CHL1  H16A 7682   2.136   3.522   7.700 -1.5258 -1.7544 -0.6538
   71CHL1  H16B 7683   2.060   3.688   7.697 -0.9316 -0.4344 -0.2065
   71CHL1   C17 7684   1.935   3.536   7.619  0.4364  0.2681 -0.2619
   71CHL1   H17 7685   1.871   3.626   7.605  0.5099  0.8649  2.5995
   71CHL1   C13 7686   1.931   3.471   7.476 -0.0041 -1.1695 -0.5691
   71CHL1   C18 7687   1.988   3.331   7.493 -0.8090 -0.8549  0.5163
   71CHL1  H18A 7688   1.929   3.260   7.555 -4.2223  1.0530 -0.2957
   71CHL1  H18B 7689   2.025   3.297   7.394 -1.6631 -0.7072  0.1321
   71CHL1  H18C 7690   2.079   3.327   7.557 -1.1150 -0.7998  0.9604
   71CHL1   C12 7691   1.796   3.476   7.400  0.6098 -0.6436 -0.1364
   71CHL1  H12A 7692   1.715   3.417   7.447 -1.2374  1.8573  0.0505
   71CHL1  H12B 7693   1.754   3.579   7.401 -0.8901 -1.2400  0.7779
   71CHL1   C11 7694   1.812   3.425   7.258 -0.9083 -0.7642  0.0769
   71CHL1  H11A 7695   1.847   3.320   7.260  1.5914 -0.0048 -0.8270
   71CHL1  H11B 7696   1.714   3.424   7.204  0.0584 -1.5718 -1.7681
   71CHL1    C9 7697   1.924   3.509   7.179 -0.2741 -0.6911  0.0214
   71CHL1    H9 7698   1.886   3.613   7.169  2.7885  0.5934  0.6866
   71CHL1   C10 7699   1.949   3.463   7.031 -0.1577 -0.6178  0.0263
   71CHL1   C19 7700   1.942   3.306   7.012 -0.4828  0.6852 -0.7580
   71CHL1  H19A 7701   2.020   3.255   7.073 -1.9327 -1.8999 -0.9226
   71CHL1  H19B 7702   1.846   3.266   7.051  0.4433 -1.9370 -0.9956
   71CHL1  H19C 7703   1.953   3.267   6.909  1.1886 -0.5086 -0.1795
   71CHL1    C1 7704   1.836   3.522   6.944  0.2407 -0.1740 -1.4715
   71CHL1   H1A 7705   1.738   3.481   6.976  0.6735 -0.3746 -0.3467
   71CHL1   H1B 7706   1.834   3.633   6.952  0.7677 -0.2593  0.1899
   71CHL1    C2 7707   1.851   3.504   6.791 -0.1023 -0.6237  0.1891
   71CHL1   H2A 7708   1.776   3.566   6.738  0.3964  1.0883  1.4150
   71CHL1   H2B 7709   1.829   3.400   6.757  0.3781  0.7660 -5.2683
   71CHL1   C20 7710   1.881   3.458   7.747 -0.7592 -0.3665  0.5118
   71CHL1   H20 7711   1.951   3.374   7.770  2.4218  1.1442 -2.6674
   71CHL1   C21 7712   1.737   3.423   7.716 -0.5925  0.1210  0.1192
   71CHL1  H21A 7713   1.677   3.515   7.699 -1.1764 -0.4033 -0.7303
   71CHL1  H21B 7714   1.693   3.384   7.811  0.9498 -0.6828  0.5402
   71CHL1  H21C 7715   1.733   3.350   7.632 -0.5091  0.1551  0.0862
   71CHL1   C22 7716   1.874   3.547   7.867  0.3134 -0.4143  0.5785
   71CHL1  H22A 7717   1.852   3.654   7.844  0.0276 -0.3078  1.3082
   71CHL1  H22B 7718   1.796   3.505   7.933  0.7570 -0.9161  0.7936
   71CHL1   C23 7719   2.006   3.541   7.945  0.5684 -0.4063 -0.6818
   71CHL1  H23A 7720   2.042   3.436   7.941  2.9109  0.3167 -0.0609
   71CHL1  H23B 7721   2.088   3.598   7.896  0.2752 -0.9899 -1.8876
   71CHL1   C24 7722   1.992   3.590   8.094  0.6289  0.6021  0.0183
   71CHL1  H24A 7723   1.962   3.697   8.103  0.2209  0.6590 -1.5831
   71CHL1  H24B 7724   1.920   3.524   8.146  0.6273 -0.0851 -0.8294
   71CHL1   C25 7725   2.123   3.580   8.177  0.7122  0.2283 -0.1341
   71CHL1   H25 7726   2.195   3.649   8.129 -0.1948  1.4477  0.2051
   71CHL1   C26 7727   2.098   3.611   8.325  0.1701  0.8876 -0.2019
   71CHL1  H26A 7728   2.194   3.618   8.382 -0.2671  0.4151  0.6096
   71CHL1  H26B 7729   2.037   3.701   8.346 -1.1035 -0.1069  0.5033
   71CHL1  H26C 7730   2.034   3.529   8.363 -0.3142  1.9918  1.4326
   71CHL1   C27 7731   2.204   3.451   8.167  0.4365 -0.6599 -1.2148
   71CHL1  H27A 7732   2.231   3.428   8.061 -0.0535  1.2844 -1.8111
   71CHL1  H27B 7733   2.287   3.453   8.239 -1.4864 -0.2071  1.1151
   71CHL1  H27C 7734   2.121   3.380   8.188 -0.2178  0.4545  0.0975
   72CHL1    C3 7735   5.856   0.574   7.104 -0.3406  0.0252 -0.0075
   72CHL1    H3 7736   5.960   0.611   7.113 -1.4949  3.2244  1.7767
   72CHL1    O3 7737   5.824   0.562   6.963 -0.2412 -0.2815 -0.0395
   72CHL1   H3' 7738   5.895   0.502   6.940 -0.6138 -1.0093  0.6580
   72CHL1    C4 7739   5.847   0.437   7.165 -0.1486  0.4101 -0.1559
   72CHL1   H4A 7740   5.741   0.406   7.152 -0.4782  1.3589  0.1993
   72CHL1   H4B 7741   5.912   0.369   7.106  3.3430  2.8586  0.5967
   72CHL1    C5 7742   5.881   0.426   7.310  0.0623  0.8347  1.0787
   72CHL1    C6 7743   5.967   0.337   7.353 -0.4260  1.0782  0.1130
   72CHL1    H6 7744   6.003   0.261   7.282  1.3150  1.9613  0.0144
   72CHL1    C7 7745   6.010   0.328   7.491 -0.2995  0.7011  0.1219
   72CHL1   H7A 7746   6.037   0.226   7.526 -1.3833  0.4440  0.2164
   72CHL1   H7B 7747   6.109   0.379   7.499 -0.9292  2.0481 -0.4678
   72CHL1    C8 7748   5.915   0.402   7.594 -0.0402 -0.9150 -0.2420
   72CHL1    H8 7749   5.819   0.347   7.606 -0.9102  0.4337 -0.8046
   72CHL1   C14 7750   5.985   0.416   7.726  0.1259  0.3521  0.5351
   72CHL1   H14 7751   6.077   0.477   7.715 -0.7612  1.7318  0.5397
   72CHL1   C15 7752   6.037   0.283   7.786  0.1751 -0.8961  0.3134
   72CHL1  H15A 7753   5.970   0.196   7.770  0.7716 -1.3647  0.3274
   72CHL1  H15B 7754   6.134   0.260   7.739 -0.5773 -1.9136 -0.7903
   72CHL1   C16 7755   6.046   0.314   7.936 -0.0103  0.4083 -0.8267
   72CHL1  H16A 7756   5.987   0.234   7.984  1.7994 -1.5006 -1.6444
   72CHL1  H16B 7757   6.149   0.302   7.974 -0.1444 -2.7202 -1.2075
   72CHL1   C17 7758   6.003   0.459   7.953  0.2222 -0.3401  0.0062
   72CHL1   H17 7759   6.092   0.521   7.930  0.2668 -0.6848 -0.7932
   72CHL1   C13 7760   5.907   0.488   7.834 -0.1235  0.1247  0.0801
   72CHL1   C18 7761   5.779   0.407   7.875 -0.4131  0.1616 -0.1746
   72CHL1  H18A 7762   5.796   0.306   7.919  2.1590  0.7357  0.3159
   72CHL1  H18B 7763   5.714   0.468   7.941 -0.1169  1.0587 -0.7045
   72CHL1  H18C 7764   5.716   0.394   7.785  2.0098  0.7393 -2.0478
   72CHL1   C12 7765   5.883   0.623   7.785 -0.3054  0.6736  0.1199
   72CHL1  H12A 7766   5.817   0.674   7.859  2.0779  1.7706  1.6004
   72CHL1  H12B 7767   5.973   0.685   7.764 -0.1617 -0.4951 -3.2200
   72CHL1   C11 7768   5.808   0.623   7.645 -0.4318 -0.4889  0.6748
   72CHL1  H11A 7769   5.712   0.574   7.674  0.7885 -2.3299  1.8498
   72CHL1  H11B 7770   5.789   0.726   7.609  0.7152 -0.5579 -0.1733
   72CHL1    C9 7771   5.886   0.539   7.530  0.6903 -0.0944 -0.8432
   72CHL1    H9 7772   5.987   0.584   7.516  0.1707  0.9266 -1.4978
   72CHL1   C10 7773   5.810   0.529   7.396 -0.4261 -0.6908 -1.3965
   72CHL1   C19 7774   5.659   0.495   7.427  0.2422 -0.3660  0.4988
   72CHL1  H19A 7775   5.606   0.575   7.483 -0.0267 -1.2334  1.5215
   72CHL1  H19B 7776   5.619   0.488   7.324  1.3374 -0.6371  0.0803
   72CHL1  H19C 7777   5.646   0.396   7.477 -0.1511 -0.5535  0.0309
   72CHL1    C1 7778   5.818   0.672   7.330  0.0654  0.0436  0.1225
   72CHL1   H1A 7779   5.757   0.743   7.389  2.9961  2.3747  0.5624
   72CHL1   H1B 7780   5.922   0.711   7.320  0.6877 -1.7593 -0.9466
   72CHL1    C2 7781   5.771   0.670   7.185  0.0559 -0.7354  0.5789
   72CHL1   H2A 7782   5.785   0.767   7.133  1.4690 -1.3299 -0.1886
   72CHL1   H2B 7783   5.664   0.640   7.182 -0.2653  0.0759  2.5301
   72CHL1   C20 7784   5.958   0.490   8.099  0.1560 -0.1511  0.2728
   72CHL1   H20 7785   5.890   0.411   8.138 -0.3045  0.0066 -0.2084
   72CHL1   C21 7786   5.885   0.626   8.110 -0.3424  0.4590 -0.0138
   72CHL1  H21A 7787   5.933   0.719   8.073 -0.6186  1.0142  0.9873
   72CHL1  H21B 7788   5.855   0.637   8.217 -0.1278 -2.4684  0.4172
   72CHL1  H21C 7789   5.793   0.620   8.048  1.3444  0.8975 -2.7372
   72CHL1   C22 7790   6.069   0.502   8.193 -0.2040  0.0105 -0.2790
   72CHL1  H22A 7791   6.019   0.510   8.292  1.3507  1.0392  0.4474
   72CHL1  H22B 7792   6.133   0.411   8.199 -1.8417 -1.3078 -1.5231
   72CHL1   C23 7793   6.172   0.610   8.166  0.0825  0.2604  0.0987
   72CHL1  H23A 7794   6.229   0.602   8.071  1.5598  0.9833  0.8880
   72CHL1  H23B 7795   6.121   0.709   8.169 -1.1944 -0.3707 -0.0335
   72CHL1   C24 7796   6.279   0.601   8.276 -0.2307 -0.0310 -0.0102
   72CHL1  H24A 7797   6.241   0.602   8.381  0.2496 -1.2418  0.1917
   72CHL1  H24B 7798   6.318   0.498   8.256 -0.6257 -0.2991  0.5677
   72CHL1   C25 7799   6.393   0.700   8.262  0.3775 -0.0250 -0.8060
   72CHL1   H25 7800   6.418   0.702   8.154  0.4173  1.9985 -0.7844
   72CHL1   C26 7801   6.367   0.841   8.320 -0.3480  0.1223 -0.5041
   72CHL1  H26A 7802   6.342   0.839   8.428  2.0796 -1.7082  0.1049
   72CHL1  H26B 7803   6.460   0.898   8.299 -0.7162  1.5794  1.5690
   72CHL1  H26C 7804   6.283   0.888   8.264  0.2218  0.5418 -1.0240
   72CHL1   C27 7805   6.517   0.654   8.344  0.0065 -0.2168 -0.5540
   72CHL1  H27A 7806   6.483   0.656   8.449 -1.2947  0.9961 -0.9724
   72CHL1  H27B 7807   6.552   0.551   8.321 -0.2858 -0.7653  1.2893
   72CHL1  H27C 7808   6.603   0.723   8.332  0.6402 -0.2345  2.9942
   73CHL1    C3 7809   3.923   3.208   6.629  0.3800 -0.2601 -0.3085
   73CHL1    H3 7810   3.829   3.149   6.625  0.8387 -1.0434  0.1005
   73CHL1    O3 7811   3.964   3.250   6.501 -0.2621 -0.0078 -0.0725
   73CHL1   H3' 7812   4.048   3.295   6.515 -0.0497 -0.2739 -0.4647
   73CHL1    C4 7813   3.909   3.335   6.720  0.2033  0.2651  0.6002
   73CHL1   H4A 7814   3.992   3.408   6.705 -1.6465  1.9574 -2.6672
   73CHL1   H4B 7815   3.828   3.402   6.684  2.7664  3.1429 -0.3840
   73CHL1    C5 7816   3.885   3.296   6.869 -0.1030 -0.3510  0.3513
   73CHL1    C6 7817   3.783   3.343   6.943  0.1338 -0.2248  0.2172
   73CHL1    H6 7818   3.722   3.416   6.888  0.4216 -0.6321 -0.6595
   73CHL1    C7 7819   3.765   3.307   7.089 -0.6262  0.8827  0.2866
   73CHL1   H7A 7820   3.736   3.398   7.146  0.5729  0.5056  1.5499
   73CHL1   H7B 7821   3.682   3.233   7.094  0.8030 -0.9241 -1.1433
   73CHL1    C8 7822   3.893   3.247   7.150  0.1688 -0.1454  0.2904
   73CHL1    H8 7823   3.955   3.340   7.149 -2.3466  1.6627  2.0301
   73CHL1   C14 7824   3.869   3.188   7.281 -0.0763 -0.3089  0.4699
   73CHL1   H14 7825   3.806   3.098   7.264  0.6832 -0.7641  0.0182
   73CHL1   C15 7826   3.782   3.261   7.381 -0.9552  0.0847 -0.8153
   73CHL1  H15A 7827   3.807   3.369   7.369  0.1033 -0.2042 -1.2477
   73CHL1  H15B 7828   3.673   3.257   7.360 -0.8383  1.1749 -1.7272
   73CHL1   C16 7829   3.820   3.199   7.517  0.6710 -0.1287  0.3277
   73CHL1  H16A 7830   3.859   3.290   7.568 -3.5543  1.8433  0.4140
   73CHL1  H16B 7831   3.729   3.165   7.571  0.3261  1.1948  0.6093
   73CHL1   C17 7832   3.926   3.099   7.495 -0.5925  0.3416  0.0467
   73CHL1   H17 7833   3.879   2.999   7.479  0.5659 -0.3915  1.0501
   73CHL1   C13 7834   3.988   3.131   7.355  0.0526  0.6650 -0.2030
   73CHL1   C18 7835   4.098   3.243   7.374 -1.0704 -0.0453 -0.0630
   73CHL1  H18A 7836   4.155   3.273   7.283  1.1441  0.3585  1.3756
   73CHL1  H18B 7837   4.053   3.336   7.413  1.9960  2.3159 -1.6527
   73CHL1  H18C 7838   4.173   3.203   7.446 -1.1580 -0.3381 -0.1305
   73CHL1   C12 7839   4.039   3.012   7.263  1.0861 -0.0196 -0.5673
   73CHL1  H12A 7840   4.127   2.964   7.311  0.5283 -0.0544  0.4394
   73CHL1  H12B 7841   3.958   2.937   7.252  0.4004  0.5777  0.2485
   73CHL1   C11 7842   4.075   3.063   7.124 -0.6148  0.0843  0.9930
   73CHL1  H11A 7843   4.171   3.118   7.136 -0.7457  0.5727 -0.1189
   73CHL1  H11B 7844   4.095   2.975   7.058 -1.1944  1.2337 -0.8069
   73CHL1    C9 7845   3.959   3.145   7.059 -0.5686 -0.1542  0.1711
   73CHL1    H9 7846   3.883   3.067   7.036 -1.2982  0.2951  0.9676
   73CHL1   C10 7847   3.990   3.202   6.923 -0.3168  1.0461  0.0920
   73CHL1   C19 7848   4.122   3.290   6.924  0.6793  0.1203  0.0416
   73CHL1  H19A 7849   4.108   3.375   6.994  0.3424 -0.2211  0.3945
   73CHL1  H19B 7850   4.208   3.227   6.955 -0.4270 -1.5165 -0.1020
   73CHL1  H19C 7851   4.139   3.334   6.823 -0.9376 -0.7541 -0.6391
   73CHL1    C1 7852   4.012   3.075   6.832 -0.4243 -0.0925  0.2369
   73CHL1   H1A 7853   4.095   3.005   6.856 -0.7368 -1.1916 -1.6805
   73CHL1   H1B 7854   3.924   3.008   6.843 -0.9726  0.7510  1.1054
   73CHL1    C2 7855   4.032   3.115   6.685 -0.4176 -1.4486 -0.4642
   73CHL1   H2A 7856   4.056   3.026   6.623  2.0333 -0.4312 -1.1289
   73CHL1   H2B 7857   4.126   3.174   6.675 -0.6630 -0.9677  0.0502
   73CHL1   C20 7858   4.014   3.069   7.617  0.1485 -0.2667  0.2829
   73CHL1   H20 7859   4.067   3.164   7.642 -0.0633  0.2428 -1.0628
   73CHL1   C21 7860   4.125   2.964   7.583 -0.0701  0.8461  0.2831
   73CHL1  H21A 7861   4.079   2.864   7.573  1.7591  0.1489 -1.9255
   73CHL1  H21B 7862   4.201   2.947   7.662  0.7107  0.7124 -0.4828
   73CHL1  H21C 7863   4.186   2.985   7.493 -0.9776 -0.8722 -0.7566
   73CHL1   C22 7864   3.931   3.019   7.732 -0.1177  0.6010  1.0747
   73CHL1  H22A 7865   3.855   3.095   7.761 -0.6973  0.0094  1.1182
   73CHL1  H22B 7866   3.879   2.924   7.707  1.7760 -0.0023 -0.9204
   73CHL1   C23 7867   4.002   2.987   7.859  0.7680  0.1220 -0.7518
   73CHL1  H23A 7868   4.070   2.899   7.850 -0.1484 -0.7477  0.5489
   73CHL1  H23B 7869   4.068   3.075   7.874  1.1240  0.0075 -1.5829
   73CHL1   C24 7870   3.907   2.961   7.978 -0.8511  0.0367 -0.1568
   73CHL1  H24A 7871   3.842   3.049   7.999 -1.0816 -0.1986  0.1242
   73CHL1  H24B 7872   3.830   2.885   7.949 -2.3683  1.5491 -0.2783
   73CHL1   C25 7873   3.975   2.929   8.118  0.4218 -0.2065  0.5989
   73CHL1   H25 7874   4.061   2.999   8.126  0.7823 -0.5105 -0.3606
   73CHL1   C26 7875   3.877   2.936   8.243 -0.3441 -0.2829 -0.9633
   73CHL1  H26A 7876   3.943   2.914   8.329 -0.2567 -0.8492 -1.1684
   73CHL1  H26B 7877   3.828   3.033   8.266 -0.7771 -0.7880  0.3068
   73CHL1  H26C 7878   3.797   2.858   8.237  0.0220 -0.9285  1.5705
   73CHL1   C27 7879   4.039   2.789   8.123 -0.6555  0.1261 -0.3150
   73CHL1  H27A 7880   4.100   2.770   8.214  1.3645 -1.2515 -1.8585
   73CHL1  H27B 7881   3.965   2.707   8.116 -1.6607  0.6534  2.6338
   73CHL1  H27C 7882   4.095   2.776   8.028 -0.2659  2.8810 -0.5280
   74CHL1    C3 7883   1.668   1.421   6.840 -0.1920  0.2965 -1.2439
   74CHL1    H3 7884   1.575   1.479   6.857  0.3611  1.3484 -1.7199
   74CHL1    O3 7885   1.712   1.432   6.704 -0.2077  0.0447 -0.1965
   74CHL1   H3' 7886   1.793   1.381   6.699 -0.7862 -0.8981 -0.1236
   74CHL1    C4 7887   1.778   1.486   6.921 -0.1444 -0.4927  0.3350
   74CHL1   H4A 7888   1.877   1.442   6.899  0.3146 -0.0328  1.4072
   74CHL1   H4B 7889   1.781   1.593   6.889 -2.0065 -0.0639  1.4100
   74CHL1    C5 7890   1.760   1.485   7.071  0.6784 -0.2208 -0.2031
   74CHL1    C6 7891   1.746   1.598   7.148  0.0935 -0.1779  0.6372
   74CHL1    H6 7892   1.748   1.700   7.105  0.2536 -1.1360 -1.7484
   74CHL1    C7 7893   1.726   1.600   7.301  0.6737 -0.1260 -0.4044
   74CHL1   H7A 7894   1.805   1.662   7.348  0.7073  1.1577 -2.0790
   74CHL1   H7B 7895   1.623   1.631   7.329  1.2449 -0.8719  2.9209
   74CHL1    C8 7896   1.758   1.450   7.357  0.0497 -0.1947 -0.2214
   74CHL1    H8 7897   1.869   1.447   7.360  0.0376 -1.3267 -0.6862
   74CHL1   C14 7898   1.705   1.443   7.501 -0.5108 -0.1891 -0.1069
   74CHL1   H14 7899   1.594   1.446   7.503 -0.4806  2.3883  1.4334
   74CHL1   C15 7900   1.739   1.559   7.599  0.6569 -0.0454 -0.2094
   74CHL1  H15A 7901   1.846   1.585   7.586  0.3562  1.1616 -0.3740
   74CHL1  H15B 7902   1.681   1.653   7.588  2.0267  0.8424 -0.0348
   74CHL1   C16 7903   1.718   1.495   7.739  0.7371 -0.2358  0.6897
   74CHL1  H16A 7904   1.811   1.515   7.797  0.9736  2.7379 -0.5279
   74CHL1  H16B 7905   1.634   1.542   7.795  0.1037  0.3241 -0.6649
   74CHL1   C17 7906   1.694   1.338   7.710  0.6349  0.2944  0.1180
   74CHL1   H17 7907   1.583   1.340   7.710  0.6148  2.5467 -0.6938
   74CHL1   C13 7908   1.742   1.308   7.569 -0.8875 -0.0904  0.1804
   74CHL1   C18 7909   1.892   1.291   7.585 -0.2415  0.2295  0.2875
   74CHL1  H18A 7910   1.939   1.284   7.485 -2.0108 -0.3644 -0.5500
   74CHL1  H18B 7911   1.948   1.371   7.638  2.1188  0.0428 -1.7843
   74CHL1  H18C 7912   1.908   1.197   7.642 -1.1651 -0.2775 -0.2522
   74CHL1   C12 7913   1.680   1.197   7.488 -0.1716  0.0653  0.0336
   74CHL1  H12A 7914   1.696   1.096   7.531  1.5477  1.0886  1.9277
   74CHL1  H12B 7915   1.572   1.222   7.500  0.0276  0.3424  1.4591
   74CHL1   C11 7916   1.723   1.197   7.341 -0.4934  0.6371  0.5578
   74CHL1  H11A 7917   1.831   1.172   7.349 -0.4470  1.1647  1.9627
   74CHL1  H11B 7918   1.666   1.120   7.286  0.9488 -0.1357  0.0943
   74CHL1    C9 7919   1.704   1.337   7.272 -0.0558  0.4564 -0.1213
   74CHL1    H9 7920   1.596   1.360   7.285  0.0165 -0.3989  2.8667
   74CHL1   C10 7921   1.745   1.343   7.120  0.2465 -1.1019 -0.8387
   74CHL1   C19 7922   1.876   1.267   7.103  0.5989  0.1937 -0.2423
   74CHL1  H19A 7923   1.920   1.276   7.002  3.1215  1.3825  0.8943
   74CHL1  H19B 7924   1.952   1.288   7.181  0.8464 -0.9581 -0.1479
   74CHL1  H19C 7925   1.856   1.158   7.118  1.5059 -0.2729 -2.1337
   74CHL1    C1 7926   1.634   1.271   7.049  0.2469 -0.1288 -0.0606
   74CHL1   H1A 7927   1.623   1.163   7.075 -0.4589 -0.2576 -0.8444
   74CHL1   H1B 7928   1.538   1.328   7.057 -0.3186 -0.8851 -1.2000
   74CHL1    C2 7929   1.653   1.274   6.891  0.6904 -0.4066 -0.4052
   74CHL1   H2A 7930   1.563   1.227   6.847  0.7442  0.6355 -1.6672
   74CHL1   H2B 7931   1.748   1.224   6.864  0.8933  0.2651 -0.9341
   74CHL1   C20 7932   1.743   1.251   7.838  0.6713  0.0237  0.1169
   74CHL1   H20 7933   1.850   1.274   7.854  0.0977  2.6808  0.6943
   74CHL1   C21 7934   1.721   1.103   7.814  0.7140  0.0814  0.0284
   74CHL1  H21A 7935   1.618   1.065   7.799  0.8852  0.3399 -2.1751
   74CHL1  H21B 7936   1.764   1.047   7.900  0.8236  0.4719  0.2297
   74CHL1  H21C 7937   1.779   1.072   7.724  2.7490 -0.8168  1.5631
   74CHL1   C22 7938   1.673   1.290   7.968 -0.2957  0.4404 -0.3317
   74CHL1  H22A 7939   1.658   1.399   7.959 -1.3801  0.2128 -1.6057
   74CHL1  H22B 7940   1.580   1.229   7.976  0.8530 -1.4470 -0.5272
   74CHL1   C23 7941   1.775   1.276   8.085  0.4625 -0.2629 -0.2791
   74CHL1  H23A 7942   1.799   1.171   8.110  0.7357  0.3113  2.1364
   74CHL1  H23B 7943   1.866   1.334   8.058  2.3457 -2.8807  0.0500
   74CHL1   C24 7944   1.715   1.321   8.223  0.5031  0.0434  0.1496
   74CHL1  H24A 7945   1.611   1.284   8.230  0.0861  1.5035  3.2054
   74CHL1  H24B 7946   1.777   1.259   8.291 -1.6019 -2.2513  0.0931
   74CHL1   C25 7947   1.732   1.473   8.268 -0.0892  0.4195 -0.7068
   74CHL1   H25 7948   1.661   1.523   8.199  0.5572 -0.0245 -1.7087
   74CHL1   C26 7949   1.700   1.491   8.417 -0.1487  0.6069 -0.0262
   74CHL1  H26A 7950   1.784   1.446   8.475 -1.1565 -0.7597  0.4293
   74CHL1  H26B 7951   1.695   1.597   8.452 -1.5547 -0.0671  2.0308
   74CHL1  H26C 7952   1.603   1.441   8.439 -0.1262  0.7202  0.3403
   74CHL1   C27 7953   1.877   1.523   8.241  0.5120  0.0461  0.6784
   74CHL1  H27A 7954   1.891   1.619   8.295  2.5947  0.5562 -0.6174
   74CHL1  H27B 7955   1.944   1.457   8.299  0.4231  1.1820  2.1130
   74CHL1  H27C 7956   1.911   1.523   8.135  0.8471  0.8001  0.7755
   75CHL1    C3 7957   0.371   2.872   6.677 -0.0820 -0.3398 -0.6631
   75CHL1    H3 7958   0.301   2.790   6.650 -2.1144  0.6890  1.1509
   75CHL1    O3 7959   0.449   2.899   6.561  0.1590 -0.1208  0.1404
   75CHL1   H3' 7960   0.401   2.949   6.495 -0.9208 -1.3612 -0.0648
   75CHL1    C4 7961   0.296   2.992   6.717  0.7220 -0.6433 -0.4562
   75CHL1   H4A 7962   0.367   3.070   6.750 -0.7062  0.9738 -1.0622
   75CHL1   H4B 7963   0.232   3.034   6.637 -0.2673  1.1147  1.1790
   75CHL1    C5 7964   0.201   2.957   6.831 -0.3013  0.1143  0.2570
   75CHL1    C6 7965   0.068   2.963   6.823 -0.2268 -0.1273 -0.4348
   75CHL1    H6 7966   0.016   2.986   6.729  0.5443  1.3440 -0.5350
   75CHL1    C7 7967  -0.023   2.946   6.942 -0.3973  0.3397  0.1679
   75CHL1   H7A 7968  -0.114   3.009   6.930 -0.1565  0.1515 -4.0243
   75CHL1   H7B 7969  -0.055   2.839   6.941  2.3884 -0.5572 -1.0705
   75CHL1    C8 7970   0.053   2.957   7.081 -0.1232 -0.2417 -0.3588
   75CHL1    H8 7971   0.070   3.065   7.103 -2.7247 -0.6111  5.0054
   75CHL1   C14 7972  -0.032   2.919   7.200 -0.5020 -0.3268  0.4153
   75CHL1   H14 7973  -0.063   2.812   7.193 -1.4803 -0.1186  1.3149
   75CHL1   C15 7974  -0.167   3.000   7.213 -0.2128 -0.5058  0.0932
   75CHL1  H15A 7975  -0.136   3.103   7.183  3.3621 -0.9551  1.6727
   75CHL1  H15B 7976  -0.244   2.959   7.144  0.4849 -0.3288 -0.8217
   75CHL1   C16 7977  -0.197   2.979   7.362 -0.0168 -1.1613  0.3662
   75CHL1  H16A 7978  -0.195   3.081   7.408  0.3614 -0.9489 -0.1125
   75CHL1  H16B 7979  -0.297   2.933   7.377 -1.1105  1.2371  1.0278
   75CHL1   C17 7980  -0.075   2.904   7.426  1.2852  0.7171 -0.4642
   75CHL1   H17 7981  -0.104   2.799   7.405 -2.4129  1.0444  1.9930
   75CHL1   C13 7982   0.042   2.928   7.334 -0.1318  0.3717  0.3581
   75CHL1   C18 7983   0.092   3.069   7.361  1.2309  0.0078 -0.5816
   75CHL1  H18A 7984   0.105   3.097   7.468  0.1790 -0.6693 -0.2621
   75CHL1  H18B 7985   0.191   3.086   7.315  1.2938  0.2849 -0.3484
   75CHL1  H18C 7986   0.023   3.149   7.327  0.0378 -0.0886  1.4220
   75CHL1   C12 7987   0.152   2.817   7.324 -0.1432  0.0797 -0.2833
   75CHL1  H12A 7988   0.217   2.809   7.414 -1.7884 -0.0127  0.9333
   75CHL1  H12B 7989   0.111   2.714   7.314  1.3640 -0.5637 -0.1681
   75CHL1   C11 7990   0.254   2.850   7.221 -0.5150  0.1607 -0.5294
   75CHL1  H11A 7991   0.311   2.938   7.255  0.0637 -0.0548 -0.9361
   75CHL1  H11B 7992   0.327   2.767   7.209  0.7332  1.2812 -0.8958
   75CHL1    C9 7993   0.181   2.871   7.082 -0.0290 -0.0498 -0.1013
   75CHL1    H9 7994   0.141   2.771   7.056 -0.3312 -0.2616  1.1097
   75CHL1   C10 7995   0.274   2.917   6.962  0.4796  0.7442  0.0289
   75CHL1   C19 7996   0.362   3.032   7.022 -0.4159 -0.2148  0.0820
   75CHL1  H19A 7997   0.417   3.090   6.944  0.1752 -1.1834 -0.2339
   75CHL1  H19B 7998   0.295   3.101   7.079  1.4214 -0.3261  2.5348
   75CHL1  H19C 7999   0.439   2.998   7.094 -1.2393  0.3710  1.2648
   75CHL1    C1 8000   0.358   2.796   6.922 -0.2286  0.4330  0.3077
   75CHL1   H1A 8001   0.422   2.765   7.007 -1.2240  0.1882  0.9816
   75CHL1   H1B 8002   0.280   2.719   6.900  0.3684  0.1479 -0.9271
   75CHL1    C2 8003   0.453   2.810   6.797  0.3581 -0.2328 -0.2080
   75CHL1   H2A 8004   0.504   2.718   6.761 -0.8402 -0.1472 -2.2903
   75CHL1   H2B 8005   0.533   2.886   6.812  0.3102 -0.3437  0.6632
   75CHL1   C20 8006  -0.070   2.918   7.582 -0.7300 -0.9200 -0.5014
   75CHL1   H20 8007  -0.009   3.009   7.604 -1.3037 -0.5980 -0.2401
   75CHL1   C21 8008  -0.009   2.788   7.634  0.1408  0.4406 -0.6797
   75CHL1  H21A 8009  -0.007   2.782   7.745 -2.1940 -1.5905 -0.6613
   75CHL1  H21B 8010   0.090   2.767   7.587 -0.5897  1.4376 -2.8065
   75CHL1  H21C 8011  -0.073   2.700   7.612 -4.0490  2.8358  0.8200
   75CHL1   C22 8012  -0.208   2.946   7.653  0.1429  0.2927  0.0910
   75CHL1  H22A 8013  -0.254   3.040   7.616 -0.8234  0.2553  1.1429
   75CHL1  H22B 8014  -0.275   2.861   7.627  0.1837  0.1199  0.5372
   75CHL1   C23 8015  -0.199   2.964   7.806 -0.2928 -0.5871  0.1388
   75CHL1  H23A 8016  -0.169   2.878   7.870  1.0455 -0.7815 -0.7107
   75CHL1  H23B 8017  -0.118   3.036   7.829 -0.1665  0.0885 -2.1784
   75CHL1   C24 8018  -0.324   3.029   7.877 -0.5572  0.6102  0.3842
   75CHL1  H24A 8019  -0.319   3.134   7.840 -1.1484  0.1879 -0.9307
   75CHL1  H24B 8020  -0.414   2.979   7.836 -0.5648  2.1252 -1.6126
   75CHL1   C25 8021  -0.312   3.028   8.032  0.7849  0.6210  0.4807
   75CHL1   H25 8022  -0.400   3.077   8.079  0.0764  0.0104 -0.1728
   75CHL1   C26 8023  -0.304   2.884   8.086  0.2056  0.0487 -0.6131
   75CHL1  H26A 8024  -0.213   2.828   8.055  0.8643 -0.4028  1.9306
   75CHL1  H26B 8025  -0.302   2.896   8.196  0.9455 -1.3643 -0.4496
   75CHL1  H26C 8026  -0.384   2.818   8.046  1.4230 -2.3724  0.7615
   75CHL1   C27 8027  -0.194   3.114   8.083 -0.0111  0.0457 -0.2449
   75CHL1  H27A 8028  -0.099   3.055   8.077  0.1536  0.3166 -0.3382
   75CHL1  H27B 8029  -0.179   3.204   8.020  0.3939  0.8997  1.0457
   75CHL1  H27C 8030  -0.211   3.140   8.189 -0.0128 -0.3721 -0.1382
   76CHL1    C3 8031   3.058   5.725   7.307  0.0838  0.5597  0.6223
   76CHL1    H3 8032   3.155   5.681   7.340 -0.8577 -0.2969  2.3723
   76CHL1    O3 8033   3.026   5.717   7.174  0.2182  0.3387  0.9546
   76CHL1   H3' 8034   2.983   5.632   7.163  3.8559 -1.8542  2.0052
   76CHL1    C4 8035   2.946   5.647   7.380  0.5159 -0.3065 -0.7341
   76CHL1   H4A 8036   2.847   5.689   7.350  0.0476 -1.9257 -1.5482
   76CHL1   H4B 8037   2.947   5.538   7.360  2.1341 -0.7238  1.2580
   76CHL1    C5 8038   2.944   5.666   7.532 -0.5209  0.7904  0.0054
   76CHL1    C6 8039   2.973   5.561   7.616  0.0120 -0.4029  1.0216
   76CHL1    H6 8040   2.982   5.461   7.570 -0.9851  1.1642 -3.0514
   76CHL1    C7 8041   2.975   5.578   7.762 -0.3923 -0.0400 -0.2374
   76CHL1   H7A 8042   2.901   5.513   7.813  1.0387 -0.6222  1.2072
   76CHL1   H7B 8043   3.078   5.558   7.800 -0.5504  1.1305  0.8799
   76CHL1    C8 8044   2.938   5.720   7.813  0.0579 -0.2725 -0.0597
   76CHL1    H8 8045   2.827   5.728   7.818  0.1578  0.4627  1.8029
   76CHL1   C14 8046   2.994   5.746   7.957 -0.3172 -0.0088 -0.0349
   76CHL1   H14 8047   3.104   5.747   7.948 -0.2794 -1.3387  0.1026
   76CHL1   C15 8048   2.967   5.637   8.067 -0.1168  0.7343 -0.3416
   76CHL1  H15A 8049   2.862   5.601   8.067  1.0981 -3.2474 -1.2354
   76CHL1  H15B 8050   3.041   5.554   8.057 -0.8520 -0.5083  3.0103
   76CHL1   C16 8051   2.980   5.718   8.200 -0.0877  0.2591  0.9085
   76CHL1  H16A 8052   2.884   5.713   8.258 -0.7919 -1.5125 -0.3362
   76CHL1  H16B 8053   3.062   5.668   8.256  0.8559 -0.3337 -0.9540
   76CHL1   C17 8054   3.022   5.864   8.158  0.0420  0.7466  0.0979
   76CHL1   H17 8055   3.130   5.848   8.139 -0.0823 -1.2261  0.8457
   76CHL1   C13 8056   2.957   5.875   8.019 -0.1713 -0.3254 -0.1099
   76CHL1   C18 8057   2.803   5.880   8.037 -0.3069 -0.3259  0.3146
   76CHL1  H18A 8058   2.746   5.902   7.944  2.0843  1.7907 -0.8030
   76CHL1  H18B 8059   2.763   5.789   8.087 -2.5726 -0.5191 -1.6551
   76CHL1  H18C 8060   2.777   5.967   8.102  0.1467 -0.1182  0.2223
   76CHL1   C12 8061   3.012   5.995   7.933  0.0762  0.2852 -0.2973
   76CHL1  H12A 8062   2.970   6.087   7.977 -0.7695  1.3815 -3.1885
   76CHL1  H12B 8063   3.123   5.988   7.936  0.2388 -0.7872 -4.0697
   76CHL1   C11 8064   2.966   5.973   7.783  0.0482 -1.1784  0.0083
   76CHL1  H11A 8065   2.859   6.005   7.779  0.4803  0.1950 -1.3840
   76CHL1  H11B 8066   3.025   6.049   7.728 -1.4442  0.5314  0.6449
   76CHL1    C9 8067   2.991   5.830   7.723 -0.2773 -0.1562 -0.3172
   76CHL1    H9 8068   3.102   5.824   7.726 -0.2037  0.8490 -0.5340
   76CHL1   C10 8069   2.947   5.817   7.574 -0.8261 -0.3741 -0.8837
   76CHL1   C19 8070   2.793   5.842   7.566  0.2836 -0.2473 -0.1857
   76CHL1  H19A 8071   2.721   5.787   7.630 -0.7705  0.1066 -1.0382
   76CHL1  H19B 8072   2.778   5.951   7.586 -1.0916 -0.5951  0.8561
   76CHL1  H19C 8073   2.771   5.821   7.460  0.0572  0.2858 -0.2487
   76CHL1    C1 8074   3.035   5.909   7.490 -0.7251 -0.2575  0.3801
   76CHL1   H1A 8075   3.011   6.016   7.509  0.5986  0.0680  0.3429
   76CHL1   H1B 8076   3.137   5.891   7.530 -0.0582 -1.5017 -1.7126
   76CHL1    C2 8077   3.033   5.876   7.337 -0.5115 -0.0619  0.0994
   76CHL1   H2A 8078   3.114   5.939   7.294 -1.2993  1.4685  0.8045
   76CHL1   H2B 8079   2.930   5.896   7.300 -0.6216 -0.2121  0.3225
   76CHL1   C20 8080   2.995   5.982   8.243 -0.0586 -0.4451 -0.2082
   76CHL1   H20 8081   2.983   6.079   8.191 -0.6230 -0.7431 -0.6543
   76CHL1   C21 8082   3.121   5.996   8.335  0.2125 -0.4693  0.2257
   76CHL1  H21A 8083   3.199   6.021   8.260 -0.9068 -1.0324 -1.1801
   76CHL1  H21B 8084   3.138   5.902   8.390  1.6372 -0.0658  0.5001
   76CHL1  H21C 8085   3.109   6.088   8.397  0.4754 -0.2334 -0.0664
   76CHL1   C22 8086   2.875   5.967   8.342  0.3069 -0.8805  0.2501
   76CHL1  H22A 8087   2.783   5.918   8.301 -1.2131  1.7711  0.2494
   76CHL1  H22B 8088   2.914   5.896   8.417  3.3281 -0.9796 -1.2735
   76CHL1   C23 8089   2.818   6.103   8.414 -0.2538 -0.0642  0.4816
   76CHL1  H23A 8090   2.763   6.081   8.508 -1.4641 -0.3743 -0.2857
   76CHL1  H23B 8091   2.911   6.160   8.438  1.2555 -1.1524 -2.2829
   76CHL1   C24 8092   2.724   6.185   8.327 -0.3774  0.1761 -0.7188
   76CHL1  H24A 8093   2.790   6.215   8.242 -0.6712 -0.9025 -1.3443
   76CHL1  H24B 8094   2.638   6.124   8.291 -0.4589 -0.4443  0.4961
   76CHL1   C25 8095   2.666   6.313   8.394  0.1775 -0.4250  1.1334
   76CHL1   H25 8096   2.595   6.264   8.465 -0.0475  0.3989  1.4868
   76CHL1   C26 8097   2.769   6.388   8.481  0.2770  0.0068 -0.7694
   76CHL1  H26A 8098   2.872   6.403   8.444  0.1838  0.3201 -0.9025
   76CHL1  H26B 8099   2.731   6.491   8.495  0.8828  0.2816 -1.1159
   76CHL1  H26C 8100   2.769   6.339   8.580  1.0278  1.6160  0.0510
   76CHL1   C27 8101   2.594   6.411   8.293 -0.6700 -0.0203 -0.2933
   76CHL1  H27A 8102   2.529   6.478   8.353 -0.0520  1.6367 -1.3940
   76CHL1  H27B 8103   2.667   6.472   8.235 -0.7195  1.5618  1.2185
   76CHL1  H27C 8104   2.525   6.353   8.228 -2.4152 -0.3511  1.7272
   77CHL1    C3 8105   4.263   2.479   6.745  0.1756  0.3279 -0.5245
   77CHL1    H3 8106   4.322   2.388   6.769  2.3407  2.3877  2.7434
   77CHL1    O3 8107   4.280   2.519   6.612  0.6850 -0.5325 -0.5178
   77CHL1   H3' 8108   4.209   2.583   6.606  0.5163 -0.5844  0.6131
   77CHL1    C4 8109   4.116   2.478   6.764  0.5768 -0.4883 -0.9106
   77CHL1   H4A 8110   4.078   2.576   6.729 -0.8572 -1.1106 -1.1465
   77CHL1   H4B 8111   4.065   2.403   6.700  0.5852 -0.6470 -0.7348
   77CHL1    C5 8112   4.088   2.447   6.911  0.6736 -0.7549 -0.5130
   77CHL1    C6 8113   4.016   2.343   6.956  0.0041  0.9434  0.0844
   77CHL1    H6 8114   3.970   2.276   6.882 -1.3311  2.3078 -0.3661
   77CHL1    C7 8115   3.987   2.307   7.097 -0.9151  0.5483 -0.1025
   77CHL1   H7A 8116   3.880   2.279   7.106 -1.4202  2.0283 -1.1142
   77CHL1   H7B 8117   4.051   2.219   7.118 -1.2218  0.1233 -0.9058
   77CHL1    C8 8118   4.022   2.427   7.193  0.3328 -0.2765  0.3687
   77CHL1    H8 8119   3.938   2.498   7.175 -0.8674 -1.8700 -0.4867
   77CHL1   C14 8120   4.026   2.384   7.334 -0.4369  0.0800  0.2037
   77CHL1   H14 8121   4.109   2.311   7.342  1.5461  2.1352 -0.6181
   77CHL1   C15 8122   3.908   2.299   7.389 -0.2677  0.2994 -0.0825
   77CHL1  H15A 8123   3.809   2.333   7.351 -0.4754 -1.1288 -0.8963
   77CHL1  H15B 8124   3.915   2.189   7.373 -2.0578 -0.7101  4.4996
   77CHL1   C16 8125   3.910   2.310   7.542 -0.1728 -0.2080 -0.1315
   77CHL1  H16A 8126   3.811   2.333   7.588 -0.2827  1.3076 -1.0416
   77CHL1  H16B 8127   3.947   2.213   7.580  3.8863  0.8380 -0.9783
   77CHL1   C17 8128   4.025   2.409   7.576 -0.6691 -0.3791 -0.2442
   77CHL1   H17 8129   4.113   2.344   7.595 -0.5347 -1.2246 -3.1964
   77CHL1   C13 8130   4.048   2.493   7.443  0.2167 -0.1608  0.0192
   77CHL1   C18 8131   3.941   2.608   7.438  0.2952  0.5769 -0.9373
   77CHL1  H18A 8132   3.977   2.703   7.482 -0.1733 -0.1146  1.0282
   77CHL1  H18B 8133   3.918   2.641   7.334 -0.4977  2.3470 -0.2358
   77CHL1  H18C 8134   3.845   2.577   7.485 -0.2355  2.2744 -0.8537
   77CHL1   C12 8135   4.187   2.535   7.419 -0.3667 -0.0788 -1.3944
   77CHL1  H12A 8136   4.219   2.626   7.474 -1.3897  0.1526 -1.1553
   77CHL1  H12B 8137   4.265   2.458   7.434 -1.1906 -0.3995  2.0176
   77CHL1   C11 8138   4.207   2.590   7.276  0.1116 -0.7665 -0.7390
   77CHL1  H11A 8139   4.149   2.684   7.266  1.9464  0.7354  1.5676
   77CHL1  H11B 8140   4.315   2.614   7.265  0.8242 -3.5891 -0.8252
   77CHL1    C9 8141   4.154   2.496   7.165 -0.1887  0.6923  0.0028
   77CHL1    H9 8142   4.230   2.414   7.166  1.5067  2.0351 -2.8773
   77CHL1   C10 8143   4.162   2.541   7.015 -0.3584 -0.6530 -0.1449
   77CHL1   C19 8144   4.099   2.689   7.010  0.0850 -0.3717 -0.1796
   77CHL1  H19A 8145   3.996   2.678   7.049  1.0713 -0.0103  2.8021
   77CHL1  H19B 8146   4.151   2.758   7.080 -1.7469 -1.3935  2.3315
   77CHL1  H19C 8147   4.103   2.729   6.907  2.0115  2.8021  0.9656
   77CHL1    C1 8148   4.308   2.546   6.980 -0.5294 -0.0052 -0.2563
   77CHL1   H1A 8149   4.355   2.610   7.059 -0.9338  0.9406 -0.7616
   77CHL1   H1B 8150   4.343   2.442   6.994 -1.6890 -0.3680 -0.0210
   77CHL1    C2 8151   4.332   2.589   6.833 -0.4083  0.7589 -0.3757
   77CHL1   H2A 8152   4.443   2.588   6.829 -0.3632  1.7943  0.1533
   77CHL1   H2B 8153   4.296   2.692   6.814  0.9838  1.4887  0.6924
   77CHL1   C20 8154   3.999   2.490   7.707  0.2465  0.3066  0.3398
   77CHL1   H20 8155   3.904   2.547   7.711  0.0780 -0.0312  1.5753
   77CHL1   C21 8156   4.124   2.578   7.723 -0.3502  0.3957 -0.9138
   77CHL1  H21A 8157   4.131   2.618   7.827  2.0092 -2.4738  0.1847
   77CHL1  H21B 8158   4.130   2.664   7.654  0.7640  0.8869 -0.2416
   77CHL1  H21C 8159   4.206   2.502   7.725 -2.8010 -2.4157 -0.6066
   77CHL1   C22 8160   3.981   2.398   7.829  0.2556  0.1142 -0.7234
   77CHL1  H22A 8161   3.889   2.339   7.811  0.1906 -0.1032  0.2724
   77CHL1  H22B 8162   4.057   2.318   7.820 -0.5395 -0.5797 -1.4119
   77CHL1   C23 8163   3.991   2.448   7.972 -0.8292 -0.4087  0.0261
   77CHL1  H23A 8164   4.093   2.490   7.983 -0.3081 -1.9700  1.6695
   77CHL1  H23B 8165   3.922   2.534   7.980  2.5155  2.4398  0.8704
   77CHL1   C24 8166   3.969   2.335   8.075  0.1607 -0.3065  0.4111
   77CHL1  H24A 8167   3.870   2.285   8.072  0.2288 -0.5225  1.4965
   77CHL1  H24B 8168   4.044   2.256   8.056  2.1086  0.7043  3.2842
   77CHL1   C25 8169   3.993   2.377   8.218 -0.0988  0.0381 -0.0141
   77CHL1   H25 8170   4.042   2.477   8.214 -2.1969  1.1770  1.1021
   77CHL1   C26 8171   3.874   2.403   8.308  0.5890  0.1707 -0.7059
   77CHL1  H26A 8172   3.797   2.463   8.255  1.5048  3.1752  1.1319
   77CHL1  H26B 8173   3.833   2.300   8.319  2.4525 -0.4721  0.7535
   77CHL1  H26C 8174   3.899   2.434   8.412  0.0008 -4.1917  0.9526
   77CHL1   C27 8175   4.084   2.269   8.282 -0.5145  0.3822  0.3589
   77CHL1  H27A 8176   4.193   2.270   8.259 -0.4410 -0.8724  0.5479
   77CHL1  H27B 8177   4.073   2.264   8.392 -1.1169  0.0160  0.2876
   77CHL1  H27C 8178   4.041   2.168   8.263 -1.9979  1.3727 -2.0191
   78CHL1    C3 8179   6.173   4.171   6.671 -0.1318 -0.5210  0.0845
   78CHL1    H3 8180   6.067   4.170   6.705 -0.0924 -0.5984  0.2028
   78CHL1    O3 8181   6.177   4.167   6.533  0.0911  0.2011 -0.1487
   78CHL1   H3' 8182   6.164   4.075   6.510  0.8665 -0.5522  2.1085
   78CHL1    C4 8183   6.237   4.303   6.725 -0.0454  0.0829 -0.1280
   78CHL1   H4A 8184   6.338   4.320   6.682  0.5445 -0.6245  0.9461
   78CHL1   H4B 8185   6.159   4.375   6.693  0.0828  0.7540  1.0126
   78CHL1    C5 8186   6.248   4.299   6.879  0.0140  0.2715 -0.3417
   78CHL1    C6 8187   6.182   4.392   6.949  0.0428 -0.4965 -0.1727
   78CHL1    H6 8188   6.137   4.468   6.884  2.9711  0.7292 -0.9263
   78CHL1    C7 8189   6.189   4.414   7.094 -0.3526  0.0842 -0.1593
   78CHL1   H7A 8190   6.191   4.518   7.132 -0.2911  0.9467 -2.4341
   78CHL1   H7B 8191   6.097   4.364   7.132  0.8537 -1.8472  0.4379
   78CHL1    C8 8192   6.309   4.325   7.151  0.7776  0.0962 -0.4727
   78CHL1    H8 8193   6.404   4.378   7.129  1.3210 -1.1128 -1.1120
   78CHL1   C14 8194   6.290   4.319   7.304  0.8285 -0.0019 -0.8053
   78CHL1   H14 8195   6.194   4.264   7.318  0.1381  1.2024 -0.6186
   78CHL1   C15 8196   6.249   4.448   7.389  1.0468  0.4927 -0.1591
   78CHL1  H15A 8197   6.316   4.531   7.359 -0.2858  0.9694 -1.9249
   78CHL1  H15B 8198   6.142   4.475   7.382  1.4295  2.0442 -0.2561
   78CHL1   C16 8199   6.282   4.408   7.543  0.1550 -0.1143  0.1030
   78CHL1  H16A 8200   6.357   4.485   7.570  1.0136 -1.2244  0.9462
   78CHL1  H16B 8201   6.191   4.404   7.607  0.6663 -2.2909  0.7621
   78CHL1   C17 8202   6.353   4.272   7.539  0.7004 -0.3356  0.8580
   78CHL1   H17 8203   6.270   4.198   7.537  0.2916  0.1183 -0.0467
   78CHL1   C13 8204   6.400   4.253   7.383  0.6278 -0.4834 -0.4450
   78CHL1   C18 8205   6.531   4.334   7.365 -0.1343  0.3663 -0.1157
   78CHL1  H18A 8206   6.567   4.325   7.260 -2.1616 -0.2772 -0.7974
   78CHL1  H18B 8207   6.510   4.443   7.375  1.5611  1.0512 -2.9755
   78CHL1  H18C 8208   6.611   4.292   7.429  0.5110  1.1425 -0.3948
   78CHL1   C12 8209   6.413   4.118   7.336  0.6937  0.7302 -0.2753
   78CHL1  H12A 8210   6.503   4.071   7.380 -0.6232  1.6006  3.7905
   78CHL1  H12B 8211   6.331   4.050   7.368  1.7711  0.1531  1.3762
   78CHL1   C11 8212   6.413   4.103   7.177  0.1672  0.0917 -0.4776
   78CHL1  H11A 8213   6.518   4.125   7.146  0.3951  0.0318  0.2229
   78CHL1  H11B 8214   6.402   3.994   7.160 -1.2644 -0.7258  4.2015
   78CHL1    C9 8215   6.312   4.182   7.098 -0.2290  0.5380  0.2784
   78CHL1    H9 8216   6.210   4.142   7.117  0.5983 -1.2454  1.0965
   78CHL1   C10 8217   6.329   4.188   6.946 -0.1995 -0.4682  0.8362
   78CHL1   C19 8218   6.482   4.204   6.918  0.0929 -0.5944  0.2217
   78CHL1  H19A 8219   6.531   4.112   6.955 -1.1985 -1.5375 -0.3434
   78CHL1  H19B 8220   6.496   4.212   6.808  0.6408  0.4633  0.3568
   78CHL1  H19C 8221   6.519   4.298   6.964 -0.3818 -0.5665  0.5493
   78CHL1    C1 8222   6.274   4.058   6.886  0.6695  0.3471  0.3516
   78CHL1   H1A 8223   6.340   3.972   6.910  1.1720  0.4786 -0.5165
   78CHL1   H1B 8224   6.171   4.034   6.922  0.2003  1.6821 -0.0331
   78CHL1    C2 8225   6.256   4.060   6.730  0.5171  0.8726 -0.7460
   78CHL1   H2A 8226   6.207   3.965   6.700 -1.0695  0.8233  1.7570
   78CHL1   H2B 8227   6.354   4.065   6.678  0.9746  0.1355  0.0253
   78CHL1   C20 8228   6.454   4.263   7.660 -0.9878 -0.3668  0.5521
   78CHL1   H20 8229   6.540   4.331   7.642 -0.2252 -1.7290 -1.1712
   78CHL1   C21 8230   6.504   4.120   7.648 -0.0895  0.1198 -0.0361
   78CHL1  H21A 8231   6.570   4.123   7.558 -0.0501 -1.6446 -0.1062
   78CHL1  H21B 8232   6.419   4.049   7.634  0.3920 -0.7387  1.2117
   78CHL1  H21C 8233   6.570   4.085   7.731 -0.0714  2.8528  1.1941
   78CHL1   C22 8234   6.386   4.270   7.799  0.3077 -0.8429  0.9630
   78CHL1  H22A 8235   6.314   4.354   7.802  1.4859  0.2564 -0.2355
   78CHL1  H22B 8236   6.331   4.175   7.813 -2.1354  0.4568  0.6949
   78CHL1   C23 8237   6.481   4.285   7.919 -0.1241  0.7238 -0.2551
   78CHL1  H23A 8238   6.523   4.188   7.955  1.1564  0.5202 -2.2125
   78CHL1  H23B 8239   6.559   4.361   7.902  0.0932  0.4982 -0.2696
   78CHL1   C24 8240   6.395   4.335   8.044  0.1805  0.2883 -0.5325
   78CHL1  H24A 8241   6.373   4.443   8.038 -2.9615 -0.2877 -0.7179
   78CHL1  H24B 8242   6.297   4.284   8.041  0.0962  0.5067 -2.6701
   78CHL1   C25 8243   6.465   4.321   8.178 -0.3552  0.0921 -0.4682
   78CHL1   H25 8244   6.495   4.214   8.183 -0.9389 -0.0181  2.2024
   78CHL1   C26 8245   6.587   4.403   8.175 -1.4032  0.0497  0.3835
   78CHL1  H26A 8246   6.670   4.360   8.114 -1.7399 -0.4977  0.3045
   78CHL1  H26B 8247   6.561   4.496   8.121  0.2764  0.3792  0.1001
   78CHL1  H26C 8248   6.619   4.445   8.272  0.6362 -0.2009 -0.1427
   78CHL1   C27 8249   6.373   4.356   8.296 -0.3484  0.0599  0.0603
   78CHL1  H27A 8250   6.327   4.456   8.285  0.1308  0.2788  0.0375
   78CHL1  H27B 8251   6.290   4.282   8.294  1.1983 -1.7377 -1.0480
   78CHL1  H27C 8252   6.435   4.358   8.388  1.1997  0.7852 -0.9434
   79CHL1    C3 8253   4.747   4.917   7.067  0.4493 -0.3670  0.2762
   79CHL1    H3 8254   4.668   4.853   7.112  1.0198 -0.1676  1.5911
   79CHL1    O3 8255   4.691   4.988   6.962 -0.0022 -0.6167 -0.1049
   79CHL1   H3' 8256   4.764   5.001   6.901  0.9939 -0.0570  1.1702
   79CHL1    C4 8257   4.804   5.020   7.173  0.4839  0.2712  0.4768
   79CHL1   H4A 8258   4.888   5.079   7.132  2.2101 -2.5031 -0.2330
   79CHL1   H4B 8259   4.719   5.084   7.207  0.1982  0.1621 -0.0104
   79CHL1    C5 8260   4.853   4.941   7.294  0.8630  1.0394  0.2121
   79CHL1    C6 8261   4.807   4.956   7.419 -0.0339  0.3354 -0.0730
   79CHL1    H6 8262   4.725   5.029   7.434  0.0148  0.9983 -2.5888
   79CHL1    C7 8263   4.857   4.877   7.541  0.3460  0.0790 -0.1858
   79CHL1   H7A 8264   4.876   4.957   7.616 -1.2809 -0.0956  0.4647
   79CHL1   H7B 8265   4.776   4.813   7.583 -0.3698  2.0012  1.5573
   79CHL1    C8 8266   4.992   4.811   7.520 -0.2228  0.3977  0.1780
   79CHL1    H8 8267   5.064   4.894   7.530 -1.8555  2.0459 -0.9542
   79CHL1   C14 8268   5.019   4.708   7.622  0.0581  1.0779  0.7620
   79CHL1   H14 8269   4.946   4.626   7.608  0.8934  0.1141  1.8128
   79CHL1   C15 8270   5.005   4.751   7.768  0.0905 -0.7494  1.0814
   79CHL1  H15A 8271   5.051   4.849   7.795 -0.6462 -0.4668  1.3397
   79CHL1  H15B 8272   4.899   4.753   7.800  0.4344  0.3953  2.2475
   79CHL1   C16 8273   5.075   4.646   7.857 -0.7689  0.6726 -0.7884
   79CHL1  H16A 8274   5.141   4.707   7.923  0.6790 -1.2704 -0.3561
   79CHL1  H16B 8275   5.005   4.587   7.919  2.1281  0.0249  2.1647
   79CHL1   C17 8276   5.157   4.557   7.756 -0.2048  0.6602  0.3514
   79CHL1   H17 8277   5.096   4.466   7.737  1.0814  0.1837 -1.8343
   79CHL1   C13 8278   5.161   4.643   7.622 -0.1068  0.1026  0.1228
   79CHL1   C18 8279   5.274   4.755   7.639 -0.5873  0.1802 -0.0793
   79CHL1  H18A 8280   5.377   4.716   7.630 -0.3508  0.5943  0.7676
   79CHL1  H18B 8281   5.266   4.826   7.554 -3.2127 -0.6013 -0.5911
   79CHL1  H18C 8282   5.250   4.818   7.727 -1.5799 -0.4831  0.1438
   79CHL1   C12 8283   5.164   4.567   7.490 -0.1687  0.0116 -0.9361
   79CHL1  H12A 8284   5.255   4.504   7.482  0.4010  0.0979  2.8350
   79CHL1  H12B 8285   5.082   4.492   7.492  0.4001 -0.6160 -0.5440
   79CHL1   C11 8286   5.133   4.661   7.371 -0.5155 -0.0714 -0.1444
   79CHL1  H11A 8287   5.215   4.736   7.362 -0.5767 -0.0806 -0.7805
   79CHL1  H11B 8288   5.138   4.595   7.282  1.5295 -1.1110  0.6642
   79CHL1    C9 8289   4.999   4.744   7.379 -0.8012  0.4930  1.0196
   79CHL1    H9 8290   4.921   4.664   7.378 -0.3746  0.0374 -0.6439
   79CHL1   C10 8291   4.965   4.841   7.263 -0.0463  0.3985  0.3939
   79CHL1   C19 8292   5.084   4.928   7.227 -0.8095 -0.0820  0.5807
   79CHL1  H19A 8293   5.149   4.853   7.177  2.5013  1.8715  1.6098
   79CHL1  H19B 8294   5.065   5.013   7.158  0.4146  0.6709  1.1385
   79CHL1  H19C 8295   5.137   4.966   7.318 -0.8000 -0.6109  0.7959
   79CHL1    C1 8296   4.916   4.751   7.151  0.5324  0.0278  0.6450
   79CHL1   H1A 8297   4.999   4.688   7.112 -1.6482 -2.1938 -0.6784
   79CHL1   H1B 8298   4.837   4.683   7.188  0.5833 -2.0964 -2.7544
   79CHL1    C2 8299   4.857   4.817   7.022  0.5052 -0.5696 -0.2516
   79CHL1   H2A 8300   4.820   4.735   6.957  1.2905 -2.3984  1.4979
   79CHL1   H2B 8301   4.931   4.878   6.966 -1.3192 -0.9264 -3.2922
   79CHL1   C20 8302   5.282   4.501   7.819  0.2323  0.1781 -0.1853
   79CHL1   H20 8303   5.334   4.598   7.833 -1.0397  0.8220  0.2791
   79CHL1   C21 8304   5.375   4.416   7.720 -0.0941 -0.5606  1.1676
   79CHL1  H21A 8305   5.464   4.397   7.783  1.4027 -0.4833 -0.8477
   79CHL1  H21B 8306   5.398   4.469   7.625  0.6152 -1.7024  0.6892
   79CHL1  H21C 8307   5.313   4.327   7.696  1.0520 -0.8784 -0.7336
   79CHL1   C22 8308   5.281   4.437   7.957  0.0568 -0.1497 -0.4480
   79CHL1  H22A 8309   5.233   4.508   8.026 -3.0442  0.5084 -3.0286
   79CHL1  H22B 8310   5.223   4.344   7.937  1.6677 -1.6826  1.6240
   79CHL1   C23 8311   5.413   4.399   8.016  0.5149 -0.1889 -0.2221
   79CHL1  H23A 8312   5.465   4.313   7.968 -0.1715  0.4386 -2.2127
   79CHL1  H23B 8313   5.476   4.491   8.016 -2.2163  1.8241 -1.1420
   79CHL1   C24 8314   5.388   4.336   8.156 -0.0923 -0.6748 -0.3010
   79CHL1  H24A 8315   5.326   4.408   8.214  1.5645 -0.8881  1.8766
   79CHL1  H24B 8316   5.329   4.242   8.148  0.2912 -0.8715 -0.8643
   79CHL1   C25 8317   5.521   4.300   8.234  0.0419  0.0744  0.2438
   79CHL1   H25 8318   5.581   4.391   8.253  1.1249 -0.6963  0.5754
   79CHL1   C26 8319   5.484   4.240   8.377  0.1512 -0.0439 -0.1839
   79CHL1  H26A 8320   5.565   4.257   8.451 -2.0610  0.2713  2.3192
   79CHL1  H26B 8321   5.395   4.283   8.428  0.5649  0.0278  0.4861
   79CHL1  H26C 8322   5.460   4.131   8.372  0.5837 -0.1203 -0.6372
   79CHL1   C27 8323   5.604   4.204   8.150  0.8150  0.2513 -0.2821
   79CHL1  H27A 8324   5.548   4.124   8.097 -0.4577  0.3940  0.7831
   79CHL1  H27B 8325   5.660   4.264   8.076 -1.8229  1.2255 -1.6170
   79CHL1  H27C 8326   5.675   4.156   8.220 -2.1663 -0.1467  2.7329
   80CHL1    C3 8327   3.171   1.800   7.022  0.5577  0.2926  0.9032
   80CHL1    H3 8328   3.196   1.899   7.066 -1.5813  2.2848 -2.0099
   80CHL1    O3 8329   3.161   1.821   6.883  0.5262  0.0119 -0.1498
   80CHL1   H3' 8330   3.095   1.891   6.881  0.0425 -0.4174  0.5919
   80CHL1    C4 8331   3.284   1.699   7.048 -0.1271  0.3453 -0.4789
   80CHL1   H4A 8332   3.262   1.617   6.976  1.6720 -0.4076 -0.2055
   80CHL1   H4B 8333   3.389   1.728   7.027  0.2150 -1.1596 -0.9528
   80CHL1    C5 8334   3.289   1.641   7.191 -0.1222  0.1131 -0.0018
   80CHL1    C6 8335   3.393   1.657   7.275  0.0307  0.3652  0.2272
   80CHL1    H6 8336   3.483   1.713   7.247 -0.1843 -0.2577 -1.8415
   80CHL1    C7 8337   3.386   1.597   7.418 -0.0502  0.3514  0.6540
   80CHL1   H7A 8338   3.481   1.550   7.451  0.1374  1.5047  1.8298
   80CHL1   H7B 8339   3.375   1.675   7.496  2.9055  0.6358  0.8670
   80CHL1    C8 8340   3.281   1.486   7.430 -0.5277  0.2190  0.4398
   80CHL1    H8 8341   3.305   1.399   7.365 -1.7071 -2.2895  3.1502
   80CHL1   C14 8342   3.274   1.441   7.582  0.7050  0.7199  0.9399
   80CHL1   H14 8343   3.234   1.536   7.623  0.6503  0.1424  2.2807
   80CHL1   C15 8344   3.390   1.410   7.675  0.5105  0.8126 -0.5888
   80CHL1  H15A 8345   3.475   1.357   7.627  0.6989 -0.1061  0.7261
   80CHL1  H15B 8346   3.438   1.504   7.711 -0.0629  1.8111 -2.2815
   80CHL1   C16 8347   3.327   1.328   7.787 -0.0366  0.1618  0.2113
   80CHL1  H16A 8348   3.360   1.222   7.783  0.1328  0.1963  0.6663
   80CHL1  H16B 8349   3.358   1.367   7.886 -0.1958 -0.6470  0.5894
   80CHL1   C17 8350   3.175   1.323   7.764  0.1421  0.9308 -0.3895
   80CHL1   H17 8351   3.128   1.418   7.797  1.8023  0.8591  2.4891
   80CHL1   C13 8352   3.174   1.332   7.608  0.4606  1.0924 -0.0682
   80CHL1   C18 8353   3.224   1.195   7.540  0.1420 -0.0205  0.2714
   80CHL1  H18A 8354   3.226   1.213   7.431 -0.0999  0.7652  0.3937
   80CHL1  H18B 8355   3.325   1.166   7.575  0.4748  0.9250  0.1046
   80CHL1  H18C 8356   3.151   1.115   7.565 -2.5031  1.7101 -1.4201
   80CHL1   C12 8357   3.039   1.385   7.558  0.8229  0.5735 -0.6784
   80CHL1  H12A 8358   2.959   1.308   7.563  0.9014  0.5338  0.1397
   80CHL1  H12B 8359   3.015   1.468   7.628  0.2754 -1.1087  1.2414
   80CHL1   C11 8360   3.034   1.438   7.413  0.1666 -0.2599  0.0015
   80CHL1  H11A 8361   3.043   1.349   7.347  2.4282  0.3460 -0.5943
   80CHL1  H11B 8362   2.937   1.489   7.396  0.8482  0.4134 -2.1673
   80CHL1    C9 8363   3.149   1.534   7.379 -0.3358 -0.1059  0.3341
   80CHL1    H9 8364   3.120   1.623   7.439 -3.5673 -0.2242 -0.8582
   80CHL1   C10 8365   3.159   1.577   7.234 -0.5649 -0.7554 -0.4806
   80CHL1   C19 8366   3.132   1.454   7.141  0.1988 -0.0302 -0.3413
   80CHL1  H19A 8367   3.172   1.356   7.177  1.4444  0.6336  0.1134
   80CHL1  H19B 8368   3.023   1.432   7.141  0.1899 -0.3388  2.0628
   80CHL1  H19C 8369   3.145   1.470   7.032  0.9570 -0.4844 -0.3187
   80CHL1    C1 8370   3.045   1.685   7.208 -0.1459 -0.4899  0.2470
   80CHL1   H1A 8371   2.949   1.642   7.241 -0.0859 -1.4020 -0.6905
   80CHL1   H1B 8372   3.064   1.766   7.282  2.0780  1.1506 -1.9267
   80CHL1    C2 8373   3.037   1.741   7.068  0.1579  0.1591  0.0165
   80CHL1   H2A 8374   2.963   1.821   7.045 -0.1629 -0.0385  0.3433
   80CHL1   H2B 8375   3.005   1.658   7.003  0.5139  0.4123 -0.4816
   80CHL1   C20 8376   3.120   1.191   7.824  0.0381 -0.2119 -0.4661
   80CHL1   H20 8377   3.166   1.105   7.772  0.2729 -0.1508 -0.3595
   80CHL1   C21 8378   2.968   1.177   7.816  0.4524 -1.0913  0.5330
   80CHL1  H21A 8379   2.927   1.109   7.894  0.9709  0.5707  2.3711
   80CHL1  H21B 8380   2.938   1.158   7.711  0.0827  2.3586 -0.1283
   80CHL1  H21C 8381   2.917   1.275   7.832 -0.2849 -1.3453 -0.1973
   80CHL1   C22 8382   3.161   1.169   7.971 -0.6568  0.6132  0.3047
   80CHL1  H22A 8383   3.269   1.189   7.981 -0.5518 -0.4875  1.6692
   80CHL1  H22B 8384   3.125   1.249   8.040 -2.5346  1.6671 -1.7627
   80CHL1   C23 8385   3.135   1.025   8.035  0.4630  0.0047  0.6161
   80CHL1  H23A 8386   3.027   1.011   8.057  0.5824 -1.2164  0.4583
   80CHL1  H23B 8387   3.171   0.945   7.967  1.0808  0.9696 -0.2096
   80CHL1   C24 8388   3.203   1.025   8.169 -0.3394  0.4776 -0.1543
   80CHL1  H24A 8389   3.303   1.070   8.154 -0.7062  1.8755  1.3301
   80CHL1  H24B 8390   3.131   1.078   8.235 -3.6620  0.0428 -3.1274
   80CHL1   C25 8391   3.217   0.889   8.249 -0.7777  0.8942  0.3303
   80CHL1   H25 8392   3.271   0.902   8.345 -0.0740 -1.3374  0.2716
   80CHL1   C26 8393   3.085   0.815   8.269  0.6030  0.3667 -0.1439
   80CHL1  H26A 8394   3.043   0.776   8.173 -0.2118  1.5093 -0.2786
   80CHL1  H26B 8395   3.098   0.731   8.340 -1.4083  0.4262  0.3680
   80CHL1  H26C 8396   3.013   0.884   8.319  0.0436  1.1705 -1.9467
   80CHL1   C27 8397   3.313   0.806   8.169 -0.8363  0.6350  0.1232
   80CHL1  H27A 8398   3.347   0.716   8.225  1.2629  1.3500  0.0924
   80CHL1  H27B 8399   3.270   0.785   8.069  0.7300 -1.4779 -0.1873
   80CHL1  H27C 8400   3.410   0.853   8.142  0.5365 -2.2972 -0.4006
   81CHL1    C3 8401   6.098   2.081   6.674 -0.3938 -0.2482 -0.7017
   81CHL1    H3 8402   6.069   2.184   6.704 -0.6560 -0.2198 -1.0582
   81CHL1    O3 8403   6.093   2.039   6.543 -0.2300 -0.2105 -0.0709
   81CHL1   H3' 8404   6.187   2.029   6.525 -0.4216 -2.3381 -0.1572
   81CHL1    C4 8405   6.237   2.045   6.732 -0.3250  0.3358 -0.1792
   81CHL1   H4A 8406   6.270   1.951   6.684  2.4661  1.0029  0.2728
   81CHL1   H4B 8407   6.311   2.120   6.696  1.3826 -0.8960  0.6449
   81CHL1    C5 8408   6.237   2.045   6.885  0.8095  0.2014 -0.4304
   81CHL1    C6 8409   6.318   2.115   6.957  0.7983  0.1602 -0.1735
   81CHL1    H6 8410   6.405   2.171   6.919 -1.0791  3.1049 -0.4320
   81CHL1    C7 8411   6.336   2.112   7.109 -0.0237  0.2464 -0.1653
   81CHL1   H7A 8412   6.437   2.081   7.142 -0.3613  0.0586  0.7178
   81CHL1   H7B 8413   6.305   2.213   7.145  0.4953  0.0710  0.7915
   81CHL1    C8 8414   6.247   2.007   7.178 -0.0238 -0.0252  0.1508
   81CHL1    H8 8415   6.308   1.915   7.171  0.3895  0.1859  0.7745
   81CHL1   C14 8416   6.228   2.040   7.331  0.3255 -0.5437  0.1050
   81CHL1   H14 8417   6.166   2.132   7.328 -1.0917 -1.2194  3.7766
   81CHL1   C15 8418   6.344   2.088   7.415 -0.1181  0.2770  0.0570
   81CHL1  H15A 8419   6.434   2.022   7.413 -0.4728 -0.2846  1.3508
   81CHL1  H15B 8420   6.383   2.190   7.396  1.6868 -0.0377  1.7289
   81CHL1   C16 8421   6.284   2.074   7.562 -1.1494 -0.7261 -0.7315
   81CHL1  H16A 8422   6.357   2.022   7.629 -2.4639 -0.2097  1.1864
   81CHL1  H16B 8423   6.272   2.171   7.614  1.3109 -0.4502 -0.5836
   81CHL1   C17 8424   6.151   2.002   7.545  0.5079  0.6233 -0.5271
   81CHL1   H17 8425   6.063   2.069   7.533  0.7889  1.4199  1.4556
   81CHL1   C13 8426   6.157   1.931   7.407 -0.3749 -0.2565  0.1408
   81CHL1   C18 8427   6.255   1.807   7.425  0.9056 -0.2357  0.6657
   81CHL1  H18A 8428   6.280   1.765   7.325 -0.2521 -1.2623  0.7774
   81CHL1  H18B 8429   6.349   1.823   7.481  2.4996  0.3041 -1.9746
   81CHL1  H18C 8430   6.198   1.722   7.469 -0.0016 -1.0812 -1.9710
   81CHL1   C12 8431   6.022   1.893   7.335 -0.4281 -0.4442  0.3222
   81CHL1  H12A 8432   5.977   1.802   7.380  0.1994 -0.8962  0.0531
   81CHL1  H12B 8433   5.957   1.982   7.326  0.1531 -0.1944 -1.8107
   81CHL1   C11 8434   6.034   1.863   7.181  0.2684  0.1852 -0.8918
   81CHL1  H11A 8435   6.097   1.771   7.178  0.8343  0.4577  1.2712
   81CHL1  H11B 8436   5.934   1.839   7.139 -1.0731  0.2298  2.0330
   81CHL1    C9 8437   6.114   1.980   7.110  0.2225 -0.3402  0.7701
   81CHL1    H9 8438   6.052   2.072   7.119 -0.6098 -0.5252 -2.0402
   81CHL1   C10 8439   6.130   1.957   6.956 -0.6327 -0.6326 -0.3303
   81CHL1   C19 8440   6.173   1.815   6.919 -0.0535  0.8007 -0.3925
   81CHL1  H19A 8441   6.093   1.748   6.959 -0.9154  0.8688 -1.9182
   81CHL1  H19B 8442   6.178   1.803   6.809  0.6087  2.3459 -0.5561
   81CHL1  H19C 8443   6.263   1.775   6.970 -1.5199  1.6950  3.1748
   81CHL1    C1 8444   5.994   2.000   6.890 -0.2200 -0.4804  0.6644
   81CHL1   H1A 8445   5.913   1.933   6.923  0.6796 -1.9785 -0.0761
   81CHL1   H1B 8446   5.953   2.098   6.924 -2.9841 -1.3638  0.1531
   81CHL1    C2 8447   5.988   1.991   6.736  0.0637  0.6051  0.1535
   81CHL1   H2A 8448   5.887   2.019   6.697  0.1740  1.8813  0.7269
   81CHL1   H2B 8449   6.002   1.884   6.709 -2.1448  0.0137  1.0463
   81CHL1   C20 8450   6.130   1.916   7.677  0.0320 -0.6877  0.0207
   81CHL1   H20 8451   6.214   1.846   7.699  2.5074  1.9003 -0.6075
   81CHL1   C21 8452   5.992   1.845   7.663 -0.2154  0.0101 -0.7514
   81CHL1  H21A 8453   5.954   1.810   7.761  0.7631  1.4742  0.1859
   81CHL1  H21B 8454   5.995   1.772   7.579  1.8468  0.4160 -1.0838
   81CHL1  H21C 8455   5.921   1.924   7.631 -0.3924  0.3447  0.4294
   81CHL1   C22 8456   6.125   2.012   7.798 -0.3823 -0.2662 -0.7024
   81CHL1  H22A 8457   6.127   2.120   7.773  2.5551  0.2882  1.4276
   81CHL1  H22B 8458   6.023   1.990   7.836 -0.9779  0.1357 -1.9981
   81CHL1   C23 8459   6.235   1.986   7.916  0.7705  0.6049  0.2746
   81CHL1  H23A 8460   6.228   1.876   7.934  2.3893  0.6453  1.3469
   81CHL1  H23B 8461   6.334   2.001   7.868  1.6402  1.7511  2.3091
   81CHL1   C24 8462   6.217   2.066   8.045 -0.3458 -0.3767 -0.1713
   81CHL1  H24A 8463   6.115   2.048   8.085 -0.7570  2.2709  0.1806
   81CHL1  H24B 8464   6.294   2.029   8.116  0.0060  0.1442 -0.2762
   81CHL1   C25 8465   6.230   2.217   8.033 -0.1719  0.4965 -0.7461
   81CHL1   H25 8466   6.163   2.258   7.956 -0.7708 -0.8207 -0.9572
   81CHL1   C26 8467   6.179   2.274   8.174 -0.4975 -1.1694 -0.1998
   81CHL1  H26A 8468   6.233   2.232   8.261  0.1060 -1.5684 -0.7555
   81CHL1  H26B 8469   6.191   2.384   8.167 -0.9477 -0.8918  2.3714
   81CHL1  H26C 8470   6.070   2.254   8.178 -1.1208  1.7899  0.2173
   81CHL1   C27 8471   6.372   2.257   7.999  0.5535 -0.1167 -0.4928
   81CHL1  H27A 8472   6.389   2.363   7.968  0.3671  0.0781  0.0534
   81CHL1  H27B 8473   6.447   2.231   8.076 -0.4411 -1.1331  0.1585
   81CHL1  H27C 8474   6.400   2.207   7.904 -0.4173  0.4342 -1.0898
   82CHL1    C3 8475   1.499   3.096   6.936 -0.1781 -0.5365  0.3183
   82CHL1    H3 8476   1.608   3.072   6.929  0.2510  1.3044  0.2597
   82CHL1    O3 8477   1.456   3.098   6.802  0.1401 -0.0531  0.5577
   82CHL1   H3' 8478   1.360   3.092   6.801 -0.0894  2.1549 -1.6402
   82CHL1    C4 8479   1.429   2.973   6.999 -0.0552 -0.6053 -0.4735
   82CHL1   H4A 8480   1.319   2.976   6.983 -0.0784 -1.9926 -0.6677
   82CHL1   H4B 8481   1.467   2.880   6.952  1.0673 -0.6125  0.3960
   82CHL1    C5 8482   1.450   2.981   7.154 -0.0630  0.6741 -0.1791
   82CHL1    C6 8483   1.500   2.878   7.225 -0.7176  0.0298  0.1712
   82CHL1    H6 8484   1.517   2.780   7.177 -1.5560 -0.6815  1.2948
   82CHL1    C7 8485   1.494   2.872   7.374 -0.5677 -0.0662 -0.1267
   82CHL1   H7A 8486   1.453   2.776   7.413  1.6788 -0.5980  1.0637
   82CHL1   H7B 8487   1.600   2.884   7.404 -0.4931 -1.1693  0.0962
   82CHL1    C8 8488   1.405   2.983   7.441 -0.2649 -0.1031 -0.8673
   82CHL1    H8 8489   1.301   2.947   7.424 -0.3413 -0.0565 -0.5144
   82CHL1   C14 8490   1.429   2.999   7.594 -0.0817 -0.1228 -0.3051
   82CHL1   H14 8491   1.539   3.009   7.603  0.2849 -3.9948  2.4555
   82CHL1   C15 8492   1.404   2.865   7.677  0.0736 -0.2757 -0.4148
   82CHL1  H15A 8493   1.311   2.816   7.640 -0.0033  1.1862 -2.2860
   82CHL1  H15B 8494   1.489   2.794   7.675 -0.7880 -1.6588  3.3730
   82CHL1   C16 8495   1.387   2.918   7.819  0.1631  0.2179  0.4799
   82CHL1  H16A 8496   1.291   2.869   7.847 -0.1175 -0.5835 -1.6775
   82CHL1  H16B 8497   1.475   2.882   7.877  0.6384  1.4645  0.5633
   82CHL1   C17 8498   1.395   3.073   7.808 -0.5354 -0.6051 -0.1701
   82CHL1   H17 8499   1.505   3.087   7.814 -0.4417 -1.0358 -0.7168
   82CHL1   C13 8500   1.345   3.101   7.667  0.1125 -0.4292  0.0345
   82CHL1   C18 8501   1.195   3.068   7.647 -0.9351 -0.2895 -0.3712
   82CHL1  H18A 8502   1.161   3.052   7.542 -3.0701 -1.2529  0.4141
   82CHL1  H18B 8503   1.174   2.981   7.712  0.2958 -1.5737 -1.5951
   82CHL1  H18C 8504   1.139   3.153   7.691  1.1263  0.9714 -0.0051
   82CHL1   C12 8505   1.383   3.237   7.606  0.2377 -0.0299 -0.6923
   82CHL1  H12A 8506   1.323   3.314   7.658  0.8879 -0.3100  0.5204
   82CHL1  H12B 8507   1.491   3.252   7.628  0.8541 -0.3617 -3.1947
   82CHL1   C11 8508   1.354   3.240   7.458  0.5482  0.7877  0.3383
   82CHL1  H11A 8509   1.245   3.223   7.443  0.3999  1.0442  1.0752
   82CHL1  H11B 8510   1.366   3.342   7.414  3.1164  1.2440  1.8983
   82CHL1    C9 8511   1.429   3.125   7.376 -0.2627  0.2417 -0.0663
   82CHL1    H9 8512   1.538   3.144   7.383 -0.4263  1.2338 -0.0627
   82CHL1   C10 8513   1.410   3.114   7.221  0.2456 -0.7774  0.2940
   82CHL1   C19 8514   1.265   3.139   7.197 -0.1221  0.5091 -0.5330
   82CHL1  H19A 8515   1.205   3.068   7.258  1.3036 -1.1758 -1.0094
   82CHL1  H19B 8516   1.228   3.238   7.229  0.2053  0.1826  0.9340
   82CHL1  H19C 8517   1.241   3.125   7.090  0.4707 -0.0321 -0.6024
   82CHL1    C1 8518   1.485   3.232   7.143 -0.0709 -0.0334 -0.4320
   82CHL1   H1A 8519   1.447   3.328   7.185  2.2579  0.1215  1.5077
   82CHL1   H1B 8520   1.594   3.229   7.164  0.0051 -4.3578 -0.5978
   82CHL1    C2 8521   1.468   3.239   6.989 -0.7244  0.6085 -0.4570
   82CHL1   H2A 8522   1.533   3.308   6.933  0.3211 -1.2371 -1.6134
   82CHL1   H2B 8523   1.362   3.269   6.970 -0.8132  0.5282 -0.1011
   82CHL1   C20 8524   1.327   3.155   7.915  0.2754  0.3069  0.5671
   82CHL1   H20 8525   1.229   3.199   7.886  1.6510  2.8940 -0.5440
   82CHL1   C21 8526   1.411   3.286   7.931  0.2220  0.1463  0.4260
   82CHL1  H21A 8527   1.415   3.343   7.836 -0.1113 -0.5510 -0.0161
   82CHL1  H21B 8528   1.519   3.265   7.947  0.4175  1.2889  0.6750
   82CHL1  H21C 8529   1.377   3.357   8.010  1.0066  0.7116  0.2691
   82CHL1   C22 8530   1.289   3.085   8.049 -0.4755  0.2922 -0.3384
   82CHL1  H22A 8531   1.225   2.997   8.023  1.1715 -1.0815  0.0891
   82CHL1  H22B 8532   1.383   3.050   8.096 -0.2286 -1.2537 -1.8618
   82CHL1   C23 8533   1.210   3.182   8.141  0.1598 -0.0682  0.7445
   82CHL1  H23A 8534   1.266   3.276   8.162 -0.1303  0.4451 -0.6290
   82CHL1  H23B 8535   1.124   3.215   8.079 -0.1154 -0.7589  0.7499
   82CHL1   C24 8536   1.157   3.104   8.263  0.3371  0.1772  0.4376
   82CHL1  H24A 8537   1.076   3.036   8.229  0.3483 -0.2690  1.2867
   82CHL1  H24B 8538   1.239   3.046   8.312  1.0222  2.4082  2.0982
   82CHL1   C25 8539   1.102   3.199   8.370 -0.2167  0.1591  0.9671
   82CHL1   H25 8540   1.178   3.275   8.393  1.3744 -1.7291  2.2831
   82CHL1   C26 8541   0.974   3.262   8.325 -0.3575 -0.4601 -0.3780
   82CHL1  H26A 8542   0.899   3.181   8.311 -0.0322 -1.0735  1.2133
   82CHL1  H26B 8543   0.936   3.325   8.409 -2.5967 -3.7558  1.3247
   82CHL1  H26C 8544   0.995   3.319   8.232  0.5446  0.1520  0.1856
   82CHL1   C27 8545   1.083   3.127   8.507 -0.6031  0.2847  0.1473
   82CHL1  H27A 8546   1.008   3.046   8.499  0.3929 -0.7183  0.5801
   82CHL1  H27B 8547   1.181   3.081   8.534  0.2697  1.9862  0.0698
   82CHL1  H27C 8548   1.050   3.199   8.585 -1.4097 -1.9583  1.9758
   83CHL1    C3 8549   6.019   3.560   6.761  0.1580 -0.3922  0.0308
   83CHL1    H3 8550   6.130   3.556   6.764  0.3631  1.4268 -2.0787
   83CHL1    O3 8551   5.983   3.519   6.632  0.1678  0.6118 -0.0155
   83CHL1   H3' 8552   5.888   3.510   6.641  0.2863 -2.1709 -0.7480
   83CHL1    C4 8553   5.956   3.467   6.865  0.3722 -0.4277  0.3141
   83CHL1   H4A 8554   5.847   3.464   6.846  0.2665  1.1254  0.6106
   83CHL1   H4B 8555   5.986   3.362   6.841 -1.8474 -1.4412  1.6835
   83CHL1    C5 8556   5.977   3.499   7.008  0.9094 -0.7537  0.1156
   83CHL1    C6 8557   6.021   3.408   7.088  0.5341 -0.0040 -0.6912
   83CHL1    H6 8558   6.033   3.305   7.051  0.7372 -0.1570 -0.2085
   83CHL1    C7 8559   6.029   3.434   7.233 -0.4660 -0.3725  0.3459
   83CHL1   H7A 8560   5.981   3.351   7.290  0.7842  0.2185  2.3514
   83CHL1   H7B 8561   6.134   3.431   7.269 -1.3884 -1.3277  3.3314
   83CHL1    C8 8562   5.966   3.568   7.290 -0.4007  0.5601  0.1301
   83CHL1    H8 8563   5.856   3.555   7.297 -0.3677  0.9278  2.0027
   83CHL1   C14 8564   6.029   3.598   7.425 -0.1309 -0.5406 -0.1583
   83CHL1   H14 8565   6.138   3.615   7.420 -0.4193  1.4702 -0.5354
   83CHL1   C15 8566   6.003   3.506   7.542 -0.6960 -0.5365 -0.0077
   83CHL1  H15A 8567   5.895   3.481   7.541 -0.3370 -2.2023 -1.3549
   83CHL1  H15B 8568   6.064   3.413   7.540  1.7219  0.8949  1.7043
   83CHL1   C16 8569   6.023   3.591   7.673 -0.3152  0.3761  0.3999
   83CHL1  H16A 8570   5.934   3.568   7.735  0.4115 -1.8151  0.7145
   83CHL1  H16B 8571   6.117   3.551   7.718 -0.3027 -0.0308  0.0171
   83CHL1   C17 8572   6.043   3.739   7.623  0.8885 -0.4576 -0.4758
   83CHL1   H17 8573   6.153   3.745   7.611  0.7975  1.3059 -0.7297
   83CHL1   C13 8574   5.977   3.730   7.477  0.1178 -0.4154 -0.1352
   83CHL1   C18 8575   5.820   3.728   7.500  0.3159 -0.5766 -0.0711
   83CHL1  H18A 8576   5.772   3.698   7.404  2.3834  0.5191 -1.5408
   83CHL1  H18B 8577   5.781   3.657   7.576 -0.3341  1.0146  1.1183
   83CHL1  H18C 8578   5.790   3.834   7.514 -0.1635 -0.6559 -0.4701
   83CHL1   C12 8579   6.014   3.849   7.375  0.1173 -0.7179  0.0635
   83CHL1  H12A 8580   5.989   3.948   7.420  2.3224  0.1180 -0.3944
   83CHL1  H12B 8581   6.124   3.837   7.371  0.5590  1.3233  2.8014
   83CHL1   C11 8582   5.962   3.824   7.229  0.2393  0.2987 -0.0479
   83CHL1  H11A 8583   5.852   3.840   7.234  0.5055  2.2701  0.4022
   83CHL1  H11B 8584   6.002   3.896   7.154  0.1897  2.0231  1.5063
   83CHL1    C9 8585   5.997   3.679   7.187  0.7691 -0.6444 -0.1094
   83CHL1    H9 8586   6.107   3.672   7.172  0.5959 -1.2706 -1.1360
   83CHL1   C10 8587   5.953   3.649   7.043  0.2105  0.0577 -0.4707
   83CHL1   C19 8588   5.797   3.673   7.048  0.0336  0.9189  0.2831
   83CHL1  H19A 8589   5.747   3.618   7.130 -0.2090  1.7325  0.6817
   83CHL1  H19B 8590   5.775   3.781   7.057 -3.6339  0.4284 -1.1118
   83CHL1  H19C 8591   5.748   3.654   6.950 -1.3507 -0.4234  1.1966
   83CHL1    C1 8592   6.015   3.741   6.934 -0.2677 -0.3100  0.5612
   83CHL1   H1A 8593   5.975   3.845   6.945 -0.2547 -0.3931  1.5090
   83CHL1   H1B 8594   6.125   3.736   6.948 -0.2331  1.0674  0.9625
   83CHL1    C2 8595   5.980   3.706   6.784  0.2288 -0.0713 -0.1367
   83CHL1   H2A 8596   6.037   3.771   6.713 -0.9996  1.8927  0.6023
   83CHL1   H2B 8597   5.871   3.724   6.773 -0.1722 -1.4077  1.4007
   83CHL1   C20 8598   5.990   3.833   7.727 -0.0745 -0.0637 -0.2088
   83CHL1   H20 8599   5.883   3.806   7.721  0.7627 -3.8728 -0.6192
   83CHL1   C21 8600   6.020   3.984   7.690  0.3282  0.0351 -0.0957
   83CHL1  H21A 8601   5.972   4.033   7.602 -2.3002 -2.5700 -0.2655
   83CHL1  H21B 8602   6.129   4.000   7.673  0.4596 -2.7563 -2.8054
   83CHL1  H21C 8603   5.987   4.054   7.769  0.0192 -1.1729  0.8819
   83CHL1   C22 8604   6.039   3.803   7.867  0.3013  0.4102  0.5435
   83CHL1  H22A 8605   5.994   3.706   7.896  0.5226  0.3343  0.6375
   83CHL1  H22B 8606   6.150   3.805   7.877  0.2043  0.0350  1.9478
   83CHL1   C23 8607   5.998   3.900   7.976 -0.7452 -0.0040  0.2226
   83CHL1  H23A 8608   6.030   4.004   7.957 -1.4390  0.0283 -0.8101
   83CHL1  H23B 8609   5.888   3.913   7.968 -1.1078 -2.7280 -0.4275
   83CHL1   C24 8610   6.034   3.871   8.130  0.3020 -0.5598 -0.1732
   83CHL1  H24A 8611   6.020   3.763   8.150 -4.3985 -0.4940 -1.8988
   83CHL1  H24B 8612   6.142   3.896   8.142  0.3909 -0.4014 -1.2233
   83CHL1   C25 8613   5.945   3.954   8.229  0.0553  0.1431  0.2287
   83CHL1   H25 8614   5.841   3.948   8.190  0.2141 -0.4601 -0.1012
   83CHL1   C26 8615   5.941   3.897   8.368 -0.3192  0.0727 -0.7975
   83CHL1  H26A 8616   6.046   3.899   8.404  0.3977 -2.2421 -2.5386
   83CHL1  H26B 8617   5.875   3.953   8.437 -0.1847 -1.5948  0.7529
   83CHL1  H26C 8618   5.910   3.791   8.359 -0.5063  0.1240 -0.7726
   83CHL1   C27 8619   5.987   4.101   8.226  0.4656  0.9358  0.8555
   83CHL1  H27A 8620   6.087   4.109   8.273  1.6001  0.5578 -1.3588
   83CHL1  H27B 8621   5.994   4.122   8.117 -1.0886  1.0127  0.7575
   83CHL1  H27C 8622   5.912   4.168   8.273  0.9773  0.9186  1.7134
   84CHL1    C3 8623   6.716   1.882   6.824 -0.2267 -0.0644 -0.1868
   84CHL1    H3 8624   6.814   1.929   6.846 -1.7304  1.5398  4.1971
   84CHL1    O3 8625   6.677   1.928   6.696 -0.0597 -0.3726 -0.6861
   84CHL1   H3' 8626   6.622   1.858   6.660 -2.6983  0.9032  0.5812
   84CHL1    C4 8627   6.729   1.728   6.817 -0.2838 -0.5407  0.6811
   84CHL1   H4A 8628   6.630   1.680   6.801 -0.2105 -0.1549 -1.1496
   84CHL1   H4B 8629   6.780   1.700   6.723  0.4191  0.9124  0.6053
   84CHL1    C5 8630   6.790   1.668   6.946 -0.1193  0.3577  0.8189
   84CHL1    C6 8631   6.901   1.596   6.951  0.7911  0.7474  0.0325
   84CHL1    H6 8632   6.949   1.567   6.856  0.2066 -0.7118  0.1593
   84CHL1    C7 8633   6.961   1.536   7.080  0.7260 -0.0655  0.6919
   84CHL1   H7A 8634   6.988   1.429   7.072 -1.2624 -0.6159  0.8328
   84CHL1   H7B 8635   7.060   1.587   7.086  2.3168 -2.6423 -1.6813
   84CHL1    C8 8636   6.866   1.548   7.199  0.0806 -0.5103 -0.1556
   84CHL1    H8 8637   6.784   1.473   7.192 -2.1183  1.6328  0.9174
   84CHL1   C14 8638   6.943   1.529   7.332 -0.5774  0.3886  0.5582
   84CHL1   H14 8639   7.026   1.602   7.341 -0.6630  0.5669 -0.0710
   84CHL1   C15 8640   7.026   1.392   7.353  0.1069 -0.6847 -0.2633
   84CHL1  H15A 8641   6.967   1.306   7.315 -0.2188 -0.1818 -0.9144
   84CHL1  H15B 8642   7.118   1.414   7.294 -1.1784  2.1903 -1.4361
   84CHL1   C16 8643   7.048   1.389   7.506 -0.1405  0.2703  0.5394
   84CHL1  H16A 8644   7.019   1.288   7.541 -0.2957 -0.7037 -2.1813
   84CHL1  H16B 8645   7.150   1.419   7.536  0.0004  1.6704 -1.1716
   84CHL1   C17 8646   6.956   1.507   7.561  0.8999  0.1588 -0.3636
   84CHL1   H17 8647   7.022   1.596   7.572  2.3056 -0.5064 -2.8321
   84CHL1   C13 8648   6.858   1.536   7.448  0.0615  0.4659 -0.4852
   84CHL1   C18 8649   6.742   1.435   7.442  0.3295  0.3599  0.0933
   84CHL1  H18A 8650   6.688   1.424   7.539 -3.0977  1.7155 -1.5112
   84CHL1  H18B 8651   6.665   1.446   7.362  0.5726  2.5174  0.0999
   84CHL1  H18C 8652   6.779   1.332   7.425 -1.9856 -0.4399 -0.4258
   84CHL1   C12 8653   6.811   1.681   7.446 -0.2068 -1.0280 -0.1046
   84CHL1  H12A 8654   6.741   1.696   7.531 -2.6494 -3.5355 -1.5151
   84CHL1  H12B 8655   6.895   1.752   7.461 -0.7456  0.0134 -1.7108
   84CHL1   C11 8656   6.728   1.723   7.327  0.9176 -0.2023 -0.6440
   84CHL1  H11A 8657   6.630   1.671   7.334 -1.0287  3.0427 -1.5713
   84CHL1  H11B 8658   6.706   1.832   7.334  2.3199  0.0804 -0.3641
   84CHL1    C9 8659   6.809   1.693   7.199 -0.0038 -0.1031  0.3257
   84CHL1    H9 8660   6.898   1.758   7.188  1.8915 -2.5814  0.0739
   84CHL1   C10 8661   6.724   1.721   7.070 -0.0614 -0.3772  0.1063
   84CHL1   C19 8662   6.584   1.653   7.085 -0.3358  0.2532  0.5264
   84CHL1  H19A 8663   6.594   1.549   7.123  1.2262 -0.1077 -0.7715
   84CHL1  H19B 8664   6.518   1.712   7.153  0.5352 -0.5804  2.1586
   84CHL1  H19C 8665   6.533   1.651   6.986  0.7635  2.2301 -0.1365
   84CHL1    C1 8666   6.703   1.880   7.065  1.0655  0.6254  0.2056
   84CHL1   H1A 8667   6.655   1.917   7.158  1.0957  0.9794  0.0858
   84CHL1   H1B 8668   6.804   1.928   7.064  0.7192  1.3752  0.2139
   84CHL1    C2 8669   6.625   1.923   6.936 -0.3186  0.3154 -0.6872
   84CHL1   H2A 8670   6.613   2.034   6.934 -1.1224  0.2924  0.9565
   84CHL1   H2B 8671   6.521   1.885   6.928  0.9466 -3.7832  0.1614
   84CHL1   C20 8672   6.904   1.474   7.708 -0.2143 -0.2349 -0.0416
   84CHL1   H20 8673   6.836   1.386   7.706  1.0567 -1.3005  1.1880
   84CHL1   C21 8674   6.814   1.584   7.765 -0.2058  0.1737  0.5107
   84CHL1  H21A 8675   6.854   1.673   7.712  0.8527 -1.0939 -0.9105
   84CHL1  H21B 8676   6.824   1.598   7.875 -2.0829 -0.6405  0.8118
   84CHL1  H21C 8677   6.713   1.559   7.726  1.2082 -2.2755 -1.9955
   84CHL1   C22 8678   7.014   1.419   7.801  0.2482 -0.0796 -0.7932
   84CHL1  H22A 8679   7.090   1.362   7.745 -1.0906 -2.8229 -0.0185
   84CHL1  H22B 8680   7.054   1.515   7.839 -1.5357  0.5929 -0.4839
   84CHL1   C23 8681   6.966   1.333   7.915  0.1806 -0.2965 -0.5164
   84CHL1  H23A 8682   6.889   1.384   7.977  0.7979  0.4041 -0.3122
   84CHL1  H23B 8683   6.917   1.246   7.867  1.9670 -0.7834 -1.5834
   84CHL1   C24 8684   7.084   1.290   8.005  0.9283  0.7091 -0.6442
   84CHL1  H24A 8685   7.172   1.248   7.951  0.4275  0.5947 -1.3896
   84CHL1  H24B 8686   7.119   1.380   8.059  1.1359  0.5174 -0.4564
   84CHL1   C25 8687   7.050   1.192   8.122 -0.4414  0.7311 -0.3326
   84CHL1   H25 8688   7.021   1.097   8.073 -1.7862  0.1343  1.4927
   84CHL1   C26 8689   7.171   1.149   8.212  0.0323  0.1617 -0.2525
   84CHL1  H26A 8690   7.215   1.241   8.254 -0.3752 -0.3438  1.3591
   84CHL1  H26B 8691   7.143   1.096   8.306 -1.0386  4.4799  2.0866
   84CHL1  H26C 8692   7.247   1.085   8.161 -0.8186 -1.6982  0.7228
   84CHL1   C27 8693   6.925   1.234   8.202  0.3046 -0.6481  0.0426
   84CHL1  H27A 8694   6.833   1.214   8.142  0.3971 -3.7374  0.7352
   84CHL1  H27B 8695   6.909   1.171   8.292  0.6667 -0.8263 -0.0150
   84CHL1  H27C 8696   6.930   1.340   8.233  2.3989 -0.0021 -2.1537
   85CHL1    C3 8697   6.341   3.362   6.680 -0.9135  0.0350  0.5258
   85CHL1    H3 8698   6.234   3.387   6.696 -0.5262  2.6671 -0.4808
   85CHL1    O3 8699   6.356   3.320   6.541  0.2628 -0.0520  0.3409
   85CHL1   H3' 8700   6.443   3.280   6.550 -0.1749 -0.7808  1.6746
   85CHL1    C4 8701   6.432   3.480   6.712  0.3369  0.9268 -0.0718
   85CHL1   H4A 8702   6.535   3.452   6.681  1.0657  0.1848  2.6994
   85CHL1   H4B 8703   6.416   3.568   6.646 -0.5020  1.0355  0.2609
   85CHL1    C5 8704   6.432   3.520   6.856 -0.6155 -0.2015 -0.0614
   85CHL1    C6 8705   6.388   3.641   6.896  0.2109  0.2747  0.2591
   85CHL1    H6 8706   6.370   3.716   6.818  0.5294 -0.5348 -0.6088
   85CHL1    C7 8707   6.397   3.682   7.041  0.2128  0.0617  0.1224
   85CHL1   H7A 8708   6.455   3.776   7.049  0.7145 -0.2936  0.6990
   85CHL1   H7B 8709   6.294   3.686   7.083  0.0554 -1.7247 -0.0026
   85CHL1    C8 8710   6.470   3.583   7.136 -0.2023  0.6293  0.2532
   85CHL1    H8 8711   6.576   3.610   7.121  0.0692  0.2929  1.4582
   85CHL1   C14 8712   6.434   3.604   7.276 -0.1398  0.2586  0.2958
   85CHL1   H14 8713   6.327   3.576   7.286 -0.0239  0.2313  1.7632
   85CHL1   C15 8714   6.452   3.748   7.331  0.2183 -0.0697  0.0933
   85CHL1  H15A 8715   6.549   3.788   7.296 -0.1057  0.3946 -0.2859
   85CHL1  H15B 8716   6.362   3.811   7.313  0.9062  1.1856  0.9048
   85CHL1   C16 8717   6.433   3.728   7.487  0.4758  0.3981 -0.5489
   85CHL1  H16A 8718   6.523   3.778   7.530  0.3572 -0.3173  0.5626
   85CHL1  H16B 8719   6.338   3.771   7.523  0.3235  0.5456 -1.1110
   85CHL1   C17 8720   6.439   3.575   7.506  0.1085 -0.5922 -0.9140
   85CHL1   H17 8721   6.340   3.525   7.500  0.2557 -0.8719 -1.0606
   85CHL1   C13 8722   6.508   3.514   7.380  0.3590  0.2985  0.3025
   85CHL1   C18 8723   6.660   3.529   7.377 -0.5227 -0.4763  1.0772
   85CHL1  H18A 8724   6.700   3.490   7.281 -2.0052  1.4567 -0.4144
   85CHL1  H18B 8725   6.711   3.627   7.392 -0.6766 -0.0129 -1.1496
   85CHL1  H18C 8726   6.705   3.469   7.459  0.2830  1.0979  1.8293
   85CHL1   C12 8727   6.467   3.372   7.341 -0.3457  0.2238 -0.4485
   85CHL1  H12A 8728   6.530   3.309   7.408 -2.1755 -2.5356 -1.1318
   85CHL1  H12B 8729   6.362   3.358   7.373 -0.0018  1.1450  1.1891
   85CHL1   C11 8730   6.503   3.336   7.198 -0.2299 -0.1579  0.6899
   85CHL1  H11A 8731   6.614   3.336   7.189 -0.0949  1.7864  1.8376
   85CHL1  H11B 8732   6.474   3.233   7.167  0.8055 -0.0743 -0.6227
   85CHL1    C9 8733   6.444   3.437   7.102  0.4108  0.3500  0.7216
   85CHL1    H9 8734   6.335   3.424   7.116  0.2027  0.7010 -0.4201
   85CHL1   C10 8735   6.462   3.397   6.949  0.4274 -0.1116  0.2531
   85CHL1   C19 8736   6.613   3.361   6.939 -0.0502 -0.6004 -0.0452
   85CHL1  H19A 8737   6.635   3.259   6.979  0.8129 -0.6873 -0.7200
   85CHL1  H19B 8738   6.640   3.355   6.832  0.0267  2.0042 -0.2381
   85CHL1  H19C 8739   6.675   3.445   6.977  0.6832 -0.5538 -1.3092
   85CHL1    C1 8740   6.369   3.277   6.914  0.0538 -0.1265  0.3530
   85CHL1   H1A 8741   6.407   3.189   6.968  0.6551  0.5287  1.0106
   85CHL1   H1B 8742   6.263   3.302   6.936 -0.0703 -0.4241  0.1006
   85CHL1    C2 8743   6.371   3.240   6.766 -0.1186 -0.0164 -0.0662
   85CHL1   H2A 8744   6.303   3.153   6.760  2.7717 -2.3727 -0.7140
   85CHL1   H2B 8745   6.473   3.202   6.747 -1.3873 -2.0704 -3.9383
   85CHL1   C20 8746   6.504   3.544   7.647  0.5817 -0.8830 -0.1746
   85CHL1   H20 8747   6.610   3.577   7.643  0.7114 -0.8717  2.1360
   85CHL1   C21 8748   6.503   3.398   7.676 -0.5957  0.3102 -0.6886
   85CHL1  H21A 8749   6.585   3.354   7.614 -0.1305  0.3800 -0.1244
   85CHL1  H21B 8750   6.407   3.348   7.652 -0.2497 -0.5488 -0.3157
   85CHL1  H21C 8751   6.529   3.379   7.782 -0.6529  1.3399 -0.4762
   85CHL1   C22 8752   6.421   3.615   7.759  0.3456 -0.3676  0.0797
   85CHL1  H22A 8753   6.392   3.718   7.730 -0.4241 -0.8593 -0.9897
   85CHL1  H22B 8754   6.326   3.560   7.772  0.1377 -0.1113 -0.3315
   85CHL1   C23 8755   6.495   3.631   7.889  0.0700  0.9721 -0.1151
   85CHL1  H23A 8756   6.517   3.534   7.940  0.7548  1.4358  0.5000
   85CHL1  H23B 8757   6.589   3.679   7.854 -0.9516  0.4389 -3.9613
   85CHL1   C24 8758   6.433   3.718   7.999 -0.3021 -0.6088 -0.7867
   85CHL1  H24A 8759   6.404   3.814   7.951 -1.0380 -1.4062 -1.9863
   85CHL1  H24B 8760   6.337   3.663   8.013 -0.8364  0.5049  0.0502
   85CHL1   C25 8761   6.515   3.739   8.129 -0.4749  1.1999 -0.7797
   85CHL1   H25 8762   6.615   3.779   8.099  0.8217 -0.4064  1.1115
   85CHL1   C26 8763   6.438   3.834   8.228  0.8376  0.3839 -0.0661
   85CHL1  H26A 8764   6.398   3.928   8.186  0.1492 -0.3550 -1.1134
   85CHL1  H26B 8765   6.347   3.774   8.246  0.2525  1.3344  0.2099
   85CHL1  H26C 8766   6.478   3.860   8.329 -1.4507  0.1487  0.9604
   85CHL1   C27 8767   6.539   3.604   8.192 -0.2128 -0.1584 -0.3540
   85CHL1  H27A 8768   6.561   3.620   8.300 -0.3474 -0.0779 -0.3393
   85CHL1  H27B 8769   6.447   3.543   8.191 -0.2456 -0.1082 -0.5661
   85CHL1  H27C 8770   6.617   3.547   8.136 -0.2607  0.1402 -0.7274
   86CHL1    C3 8771   0.983   2.560   6.842 -0.4607 -0.2753  0.6639
   86CHL1    H3 8772   0.936   2.462   6.867 -0.7178 -0.0576  1.0481
   86CHL1    O3 8773   1.023   2.555   6.701 -0.1345 -0.3422  0.2105
   86CHL1   H3' 8774   0.957   2.503   6.654  0.1811 -1.8529  1.3652
   86CHL1    C4 8775   0.877   2.679   6.855 -0.2249 -0.0545 -0.6340
   86CHL1   H4A 8776   0.918   2.777   6.823 -0.8309 -0.2880 -2.2203
   86CHL1   H4B 8777   0.794   2.653   6.786 -2.1107 -3.2357  2.5036
   86CHL1    C5 8778   0.828   2.695   7.005 -0.2165 -0.4143  0.1411
   86CHL1    C6 8779   0.701   2.714   7.046  0.3774  0.4663 -0.6059
   86CHL1    H6 8780   0.621   2.707   6.970 -0.5887  0.8736  0.3554
   86CHL1    C7 8781   0.657   2.717   7.183 -0.2231 -0.0604  0.2024
   86CHL1   H7A 8782   0.581   2.796   7.200 -0.5449 -0.5152  0.9032
   86CHL1   H7B 8783   0.616   2.616   7.201  0.5480 -0.4278 -0.0529
   86CHL1    C8 8784   0.765   2.735   7.286  0.4293 -0.2656 -0.3243
   86CHL1    H8 8785   0.795   2.842   7.287  2.0273 -0.6335 -2.1265
   86CHL1   C14 8786   0.722   2.704   7.428  0.0341 -0.3369 -0.0659
   86CHL1   H14 8787   0.706   2.594   7.430  1.7400 -0.6364 -0.7993
   86CHL1   C15 8788   0.594   2.762   7.485  0.8227 -0.1084 -0.1400
   86CHL1  H15A 8789   0.607   2.871   7.465  2.0939  0.0305  1.2858
   86CHL1  H15B 8790   0.502   2.727   7.435  1.1861 -1.4364  0.0718
   86CHL1   C16 8791   0.606   2.740   7.639  0.0696  0.4602 -0.4289
   86CHL1  H16A 8792   0.562   2.830   7.686 -0.9166  0.1733 -0.7737
   86CHL1  H16B 8793   0.544   2.649   7.652  2.2998 -1.6122 -2.8622
   86CHL1   C17 8794   0.757   2.695   7.653  0.3380  0.0993 -0.4986
   86CHL1   H17 8795   0.756   2.584   7.649  0.9868  0.0665  0.0910
   86CHL1   C13 8796   0.833   2.731   7.529 -0.8989 -0.8505  0.6893
   86CHL1   C18 8797   0.877   2.887   7.536  0.1556 -0.0030  0.3570
   86CHL1  H18A 8798   0.914   2.932   7.441 -2.9131  1.1889 -0.4132
   86CHL1  H18B 8799   0.791   2.953   7.561  0.0933  0.7881 -1.6770
   86CHL1  H18C 8800   0.941   2.883   7.626  0.2614 -2.6135  0.2418
   86CHL1   C12 8801   0.960   2.645   7.498  0.5160  0.3571 -0.3373
   86CHL1  H12A 8802   1.046   2.662   7.565 -0.7833 -0.1812  1.5437
   86CHL1  H12B 8803   0.937   2.537   7.516 -2.0813  1.0352  0.9275
   86CHL1   C11 8804   1.007   2.664   7.356  0.5612  0.1285  0.2983
   86CHL1  H11A 8805   1.052   2.766   7.355 -0.1502  0.4482 -0.1222
   86CHL1  H11B 8806   1.093   2.594   7.344 -0.5130 -0.8785 -2.4890
   86CHL1    C9 8807   0.895   2.655   7.247 -0.0664 -0.1073 -0.2854
   86CHL1    H9 8808   0.866   2.549   7.262  0.5471 -0.1557  0.6664
   86CHL1   C10 8809   0.945   2.691   7.103  0.4881  1.0400 -0.6020
   86CHL1   C19 8810   0.999   2.836   7.102 -0.1914 -0.0420  0.3779
   86CHL1  H19A 8811   1.035   2.853   6.998 -0.5145 -0.1007  0.2555
   86CHL1  H19B 8812   0.909   2.901   7.111 -1.0048 -0.9115 -1.0369
   86CHL1  H19C 8813   1.077   2.858   7.178 -1.3072  0.5842  1.3690
   86CHL1    C1 8814   1.052   2.578   7.071 -0.1038 -0.3141  0.7815
   86CHL1   H1A 8815   1.129   2.583   7.151  1.0732 -0.3389 -0.3158
   86CHL1   H1B 8816   1.001   2.481   7.087 -0.1866 -0.4672 -0.3272
   86CHL1    C2 8817   1.112   2.577   6.928  0.3814  0.3313 -0.4015
   86CHL1   H2A 8818   1.193   2.507   6.897 -0.5386 -1.1187  0.3275
   86CHL1   H2B 8819   1.142   2.682   6.908  1.2950  0.5983  2.0925
   86CHL1   C20 8820   0.811   2.728   7.791 -0.5179 -0.7708 -0.7665
   86CHL1   H20 8821   0.814   2.839   7.799 -0.4144 -0.8476  0.4000
   86CHL1   C21 8822   0.952   2.675   7.817 -0.3473 -0.3838  0.4053
   86CHL1  H21A 8823   1.041   2.711   7.761 -0.4418 -2.5836 -1.3063
   86CHL1  H21B 8824   0.944   2.565   7.805 -2.1939 -0.3676  1.1859
   86CHL1  H21C 8825   0.973   2.690   7.925  0.9333 -1.2426  0.3052
   86CHL1   C22 8826   0.717   2.689   7.910  1.0807  0.1062  0.0072
   86CHL1  H22A 8827   0.756   2.741   8.000  0.6352  2.2169 -0.9552
   86CHL1  H22B 8828   0.619   2.738   7.893  1.5567  0.5578 -1.5939
   86CHL1   C23 8829   0.684   2.536   7.928 -0.4625  0.0900 -0.6277
   86CHL1  H23A 8830   0.662   2.500   7.825  2.1165 -2.8664 -0.3024
   86CHL1  H23B 8831   0.780   2.484   7.952  0.4840  1.0249 -2.2276
   86CHL1   C24 8832   0.568   2.497   8.018 -0.1789  0.4172 -0.2577
   86CHL1  H24A 8833   0.483   2.562   7.987  0.5980  0.2785 -2.8388
   86CHL1  H24B 8834   0.538   2.390   8.012  0.0957  0.4092 -4.1321
   86CHL1   C25 8835   0.590   2.540   8.162 -0.2108  0.5373  0.0714
   86CHL1   H25 8836   0.620   2.646   8.160  1.0916  0.2806  2.5157
   86CHL1   C26 8837   0.461   2.519   8.240  0.0652  0.3005 -0.6383
   86CHL1  H26A 8838   0.420   2.417   8.233 -1.4253  0.8906 -0.8616
   86CHL1  H26B 8839   0.472   2.539   8.349  2.7110 -0.0268 -0.7727
   86CHL1  H26C 8840   0.378   2.583   8.202  0.3161  1.4409  0.6549
   86CHL1   C27 8841   0.713   2.472   8.224  0.2569  0.0880  0.1274
   86CHL1  H27A 8842   0.703   2.363   8.247  0.3834 -0.1376 -0.8290
   86CHL1  H27B 8843   0.800   2.472   8.156 -1.5698 -1.0681 -2.3794
   86CHL1  H27C 8844   0.753   2.521   8.315  0.6065 -1.5691  0.9218
   87CHL1    C3 8845   3.204   6.715   7.021  0.0474 -0.0399  0.2883
   87CHL1    H3 8846   3.193   6.606   7.039 -1.4380  0.0242 -0.1343
   87CHL1    O3 8847   3.160   6.754   6.889  0.5664 -0.5231 -0.1122
   87CHL1   H3' 8848   3.212   6.828   6.858  1.9226 -1.0865  0.6843
   87CHL1    C4 8849   3.116   6.794   7.118  0.1103  0.5546 -0.7852
   87CHL1   H4A 8850   3.113   6.903   7.096 -1.6187  0.9965  1.3526
   87CHL1   H4B 8851   3.011   6.759   7.110  0.2599  0.4190 -2.5705
   87CHL1    C5 8852   3.162   6.788   7.263  0.1635 -1.0004  0.0029
   87CHL1    C6 8853   3.078   6.748   7.365 -0.3484 -0.8822  0.5771
   87CHL1    H6 8854   2.971   6.725   7.353 -1.0310  1.6594  1.0142
   87CHL1    C7 8855   3.125   6.740   7.508  0.1803  0.5333  0.0476
   87CHL1   H7A 8856   3.060   6.784   7.586 -1.3040 -4.3039  1.8407
   87CHL1   H7B 8857   3.145   6.634   7.535  1.1779  0.3754 -1.2102
   87CHL1    C8 8858   3.261   6.804   7.532 -0.5568 -1.3252  0.0807
   87CHL1    H8 8859   3.243   6.913   7.537 -0.1483 -1.2395 -0.2135
   87CHL1   C14 8860   3.317   6.784   7.676 -0.0612  0.0760  0.3868
   87CHL1   H14 8861   3.325   6.674   7.692  0.1811  0.2762  1.7552
   87CHL1   C15 8862   3.223   6.820   7.797 -0.6305  0.5123  0.3428
   87CHL1  H15A 8863   3.198   6.928   7.784 -3.8502 -0.0760  0.8762
   87CHL1  H15B 8864   3.127   6.768   7.816 -0.1334 -0.7845 -0.5476
   87CHL1   C16 8865   3.333   6.791   7.912  0.2986  0.0357  0.3023
   87CHL1  H16A 8866   3.314   6.862   7.995 -3.4358 -0.9238  0.4363
   87CHL1  H16B 8867   3.317   6.687   7.947 -0.6382  0.3587  0.8760
   87CHL1   C17 8868   3.475   6.794   7.846 -0.4865 -0.3067 -0.1520
   87CHL1   H17 8869   3.513   6.690   7.836  0.9730  0.2287 -0.3880
   87CHL1   C13 8870   3.458   6.842   7.702  0.5701  0.1239  0.0298
   87CHL1   C18 8871   3.456   6.997   7.713  0.0808  1.1064  0.2143
   87CHL1  H18A 8872   3.390   7.027   7.798 -0.1974  0.7594  0.1217
   87CHL1  H18B 8873   3.560   7.031   7.732  0.4003  0.0426  0.4279
   87CHL1  H18C 8874   3.411   7.046   7.624  0.7736 -0.4729 -1.0416
   87CHL1   C12 8875   3.560   6.795   7.595  0.2842 -0.2742  0.2817
   87CHL1  H12A 8876   3.655   6.850   7.615  0.3769 -0.8056  1.3769
   87CHL1  H12B 8877   3.578   6.686   7.607  2.3671  0.2507  2.9184
   87CHL1   C11 8878   3.510   6.811   7.457  0.6067  0.0912  0.0637
   87CHL1  H11A 8879   3.517   6.922   7.447  1.3213 -0.1030 -1.9889
   87CHL1  H11B 8880   3.581   6.769   7.383 -0.7721 -0.7576 -0.8262
   87CHL1    C9 8881   3.365   6.763   7.431  0.5674 -0.6248  0.8953
   87CHL1    H9 8882   3.380   6.653   7.436  1.9127 -0.4920  0.3113
   87CHL1   C10 8883   3.318   6.803   7.286 -0.1616 -0.7377  0.2375
   87CHL1   C19 8884   3.347   6.957   7.262 -0.2788 -0.0341 -0.2332
   87CHL1  H19A 8885   3.297   7.004   7.175  3.2135  3.5055 -0.5736
   87CHL1  H19B 8886   3.307   7.017   7.347  0.6970 -0.6289  0.6733
   87CHL1  H19C 8887   3.454   6.969   7.239 -0.2898 -1.8325 -1.4688
   87CHL1    C1 8888   3.392   6.723   7.177 -0.3109  0.1465 -0.2362
   87CHL1   H1A 8889   3.501   6.736   7.190 -0.2147 -1.7239  1.3156
   87CHL1   H1B 8890   3.387   6.614   7.198  1.3652  0.1490  0.2783
   87CHL1    C2 8891   3.355   6.750   7.031  0.2747  0.3079 -0.6096
   87CHL1   H2A 8892   3.427   6.700   6.962 -0.8949  1.4861 -2.7933
   87CHL1   H2B 8893   3.361   6.858   7.005 -0.4933  0.6224  0.4247
   87CHL1   C20 8894   3.577   6.870   7.939 -0.3619  0.0114 -0.7968
   87CHL1   H20 8895   3.544   6.975   7.951  0.6258  0.5966 -2.8407
   87CHL1   C21 8896   3.721   6.878   7.872 -0.0723 -0.1148 -0.3137
   87CHL1  H21A 8897   3.726   6.949   7.787 -0.1796  1.2654  0.8025
   87CHL1  H21B 8898   3.746   6.775   7.837 -1.2782 -0.4303 -0.2809
   87CHL1  H21C 8899   3.796   6.907   7.948 -0.7245  1.2558 -0.1835
   87CHL1   C22 8900   3.594   6.805   8.078 -0.1607 -0.8053  0.2705
   87CHL1  H22A 8901   3.676   6.866   8.122 -0.5666 -0.5248  0.6394
   87CHL1  H22B 8902   3.509   6.827   8.145  0.1510 -2.4349  1.2699
   87CHL1   C23 8903   3.632   6.664   8.071 -0.1231  0.2539 -0.1998
   87CHL1  H23A 8904   3.546   6.598   8.046  0.0513 -0.5877  1.3192
   87CHL1  H23B 8905   3.710   6.653   7.992  0.6383  0.6181  0.4855
   87CHL1   C24 8906   3.688   6.604   8.202  0.1762  0.2876 -0.6853
   87CHL1  H24A 8907   3.601   6.605   8.271  0.2026  2.3761 -0.6105
   87CHL1  H24B 8908   3.712   6.497   8.185  0.1662  0.0004  0.9112
   87CHL1   C25 8909   3.811   6.684   8.270  0.3327  0.3339 -0.2572
   87CHL1   H25 8910   3.781   6.789   8.291  0.3250  0.1776  0.5805
   87CHL1   C26 8911   3.856   6.632   8.413  0.9265  0.6111  0.1137
   87CHL1  H26A 8912   3.775   6.643   8.488 -1.8275  1.2414 -2.7408
   87CHL1  H26B 8913   3.885   6.525   8.400 -2.1456 -0.2157 -0.7903
   87CHL1  H26C 8914   3.938   6.691   8.459 -0.8337  2.5001  0.9711
   87CHL1   C27 8915   3.928   6.687   8.175  0.1956  0.2894 -0.3568
   87CHL1  H27A 8916   4.018   6.718   8.233  0.5021  0.2471 -0.8047
   87CHL1  H27B 8917   3.940   6.584   8.136  0.2995 -0.2330  1.0041
   87CHL1  H27C 8918   3.922   6.770   8.101 -0.6849  0.2329 -0.3514
   88CHL1    C3 8919   5.435   6.517   6.950  0.2794 -0.3142  0.0414
   88CHL1    H3 8920   5.366   6.603   6.937 -2.2097 -2.1162  0.6280
   88CHL1    O3 8921   5.455   6.457   6.825 -0.7983  0.8363  0.2038
   88CHL1   H3' 8922   5.368   6.424   6.803  0.0245 -1.6057  0.2528
   88CHL1    C4 8923   5.568   6.564   7.003 -0.1767 -1.0240 -0.0670
   88CHL1   H4A 8924   5.648   6.487   7.002  2.0091  1.1260 -0.4691
   88CHL1   H4B 8925   5.604   6.647   6.938  0.1018 -0.4375  0.8240
   88CHL1    C5 8926   5.553   6.629   7.140  0.3939 -0.0356  0.6661
   88CHL1    C6 8927   5.585   6.754   7.163  0.5779 -1.0218  0.2791
   88CHL1    H6 8928   5.615   6.815   7.076 -0.1215  1.0106  1.4029
   88CHL1    C7 8929   5.584   6.809   7.303 -0.1626  0.3880  0.0821
   88CHL1   H7A 8930   5.678   6.869   7.303  1.1265 -1.4268  2.6082
   88CHL1   H7B 8931   5.501   6.882   7.313 -0.0655  0.8831 -2.1687
   88CHL1    C8 8932   5.582   6.705   7.415  0.1859 -0.3425 -0.3096
   88CHL1    H8 8933   5.680   6.652   7.418  0.3489 -0.0340 -0.1387
   88CHL1   C14 8934   5.561   6.773   7.555 -0.1468 -0.6900  0.2652
   88CHL1   H14 8935   5.464   6.826   7.542 -0.7805 -1.7213  0.6469
   88CHL1   C15 8936   5.670   6.874   7.596  0.2956  0.1077  0.0896
   88CHL1  H15A 8937   5.774   6.842   7.573  0.7057 -1.0023  3.0315
   88CHL1  H15B 8938   5.655   6.978   7.560 -0.7595  0.5495  1.7120
   88CHL1   C16 8939   5.653   6.886   7.746 -0.4113 -0.5171 -0.1489
   88CHL1  H16A 8940   5.757   6.884   7.787 -1.1192  0.3814  1.7882
   88CHL1  H16B 8941   5.617   6.988   7.771 -0.5261 -0.4666 -0.5163
   88CHL1   C17 8942   5.546   6.791   7.791  0.5300 -0.5045  0.1487
   88CHL1   H17 8943   5.453   6.852   7.789  0.0532 -0.8044  4.2735
   88CHL1   C13 8944   5.543   6.686   7.678  0.3718 -0.0443 -0.2378
   88CHL1   C18 8945   5.668   6.591   7.696 -0.1737  0.1639 -0.2322
   88CHL1  H18A 8946   5.758   6.656   7.702  0.0748 -0.1463 -0.4948
   88CHL1  H18B 8947   5.668   6.524   7.784 -1.9670 -0.7861 -0.8917
   88CHL1  H18C 8948   5.682   6.536   7.600  1.0122  0.1121 -0.0420
   88CHL1   C12 8949   5.417   6.596   7.644  1.2349 -0.4630 -0.0799
   88CHL1  H12A 8950   5.376   6.530   7.724 -0.1721  2.1744  1.5259
   88CHL1  H12B 8951   5.336   6.671   7.630  2.2207  0.5668 -0.4079
   88CHL1   C11 8952   5.438   6.518   7.513 -0.6134 -0.0123  0.5418
   88CHL1  H11A 8953   5.523   6.446   7.518  0.1551  0.7871 -0.5612
   88CHL1  H11B 8954   5.344   6.460   7.500  0.1997 -1.7531  1.9941
   88CHL1    C9 8955   5.464   6.615   7.384  0.3572  0.4447 -0.3524
   88CHL1    H9 8956   5.375   6.679   7.366 -0.3478  0.0102  1.3465
   88CHL1   C10 8957   5.497   6.535   7.250  0.2561 -0.1655 -0.2122
   88CHL1   C19 8958   5.587   6.413   7.283  0.1752  0.1266  0.1417
   88CHL1  H19A 8959   5.536   6.342   7.353  2.2495 -1.3292  0.2630
   88CHL1  H19B 8960   5.604   6.354   7.190 -2.0937  1.0576 -0.9428
   88CHL1  H19C 8961   5.681   6.439   7.335 -0.1267  3.4744 -0.7397
   88CHL1    C1 8962   5.360   6.492   7.191 -0.4898  0.2930 -0.5304
   88CHL1   H1A 8963   5.310   6.430   7.268  0.2819  1.1549  0.7075
   88CHL1   H1B 8964   5.297   6.582   7.177 -0.9547  0.0437 -0.0705
   88CHL1    C2 8965   5.371   6.429   7.052 -0.3658  0.3704 -0.3188
   88CHL1   H2A 8966   5.274   6.385   7.019  0.1622 -0.9208 -0.2245
   88CHL1   H2B 8967   5.432   6.337   7.068 -1.8969 -0.9806 -1.8983
   88CHL1   C20 8968   5.573   6.747   7.931  0.2448  0.5639 -0.5809
   88CHL1   H20 8969   5.661   6.685   7.956 -0.9207 -0.1600  2.1110
   88CHL1   C21 8970   5.459   6.657   7.982  0.0054  0.7407 -0.0969
   88CHL1  H21A 8971   5.466   6.557   7.935 -2.2132  0.9424 -0.9655
   88CHL1  H21B 8972   5.363   6.701   7.946  0.4742  0.9224 -1.1599
   88CHL1  H21C 8973   5.450   6.641   8.092 -0.7388  0.2593 -0.2192
   88CHL1   C22 8974   5.583   6.869   8.024 -0.2307 -0.4223  0.1406
   88CHL1  H22A 8975   5.627   6.960   7.979 -0.1062 -0.9675 -0.8838
   88CHL1  H22B 8976   5.478   6.902   8.043  0.5162  0.7375  2.5852
   88CHL1   C23 8977   5.663   6.846   8.153 -0.3031  0.2038  0.2799
   88CHL1  H23A 8978   5.624   6.750   8.193 -1.5883  0.3818 -0.4937
   88CHL1  H23B 8979   5.766   6.825   8.117  0.1105 -0.3755  1.6912
   88CHL1   C24 8980   5.658   6.963   8.246 -0.1276 -0.4860 -0.1042
   88CHL1  H24A 8981   5.678   7.056   8.189 -0.4957 -0.9500 -1.0133
   88CHL1  H24B 8982   5.556   6.966   8.289  0.8057  1.6531  2.1615
   88CHL1   C25 8983   5.756   6.967   8.374  0.0459 -0.5210  0.3594
   88CHL1   H25 8984   5.861   6.945   8.346  0.0485  0.1582 -0.1727
   88CHL1   C26 8985   5.744   7.110   8.421  0.4217 -0.2830  0.1315
   88CHL1  H26A 8986   5.807   7.125   8.512  2.4904  0.7739 -1.4102
   88CHL1  H26B 8987   5.782   7.179   8.344  2.6240 -0.4566  1.0067
   88CHL1  H26C 8988   5.645   7.129   8.470  1.1300 -1.8015  2.3468
   88CHL1   C27 8989   5.727   6.864   8.485 -0.0199  0.3760 -0.3701
   88CHL1  H27A 8990   5.790   6.876   8.576 -1.5399  2.2745  0.4966
   88CHL1  H27B 8991   5.621   6.862   8.517 -0.5533 -0.5096 -2.0825
   88CHL1  H27C 8992   5.748   6.767   8.437 -2.0081 -0.1182 -0.3203
   89CHL1    C3 8993   1.997   1.888   6.864 -0.2138 -0.3137  0.2038
   89CHL1    H3 8994   1.920   1.809   6.873 -0.0573 -0.4082  0.7041
   89CHL1    O3 8995   2.033   1.905   6.726 -0.0831 -0.5289 -0.3891
   89CHL1   H3' 8996   2.054   1.819   6.691  2.0102  0.1674 -1.0316
   89CHL1    C4 8997   1.942   2.027   6.919  0.0474  0.5420 -0.1760
   89CHL1   H4A 8998   2.023   2.100   6.899  0.8577  0.0935  1.3325
   89CHL1   H4B 8999   1.858   2.058   6.853  0.4789 -1.0565 -1.5196
   89CHL1    C5 9000   1.901   1.996   7.061 -0.6999  0.3059 -0.0113
   89CHL1    C6 9001   1.775   2.004   7.102 -1.2913 -0.1022  0.2404
   89CHL1    H6 9002   1.702   2.035   7.026 -0.9526  0.0712 -0.0163
   89CHL1    C7 9003   1.736   1.977   7.243 -0.3527 -0.1690 -0.2654
   89CHL1   H7A 9004   1.653   2.044   7.273 -1.8468 -1.7580 -0.6334
   89CHL1   H7B 9005   1.716   1.868   7.257 -0.4337 -0.1438 -0.1841
   89CHL1    C8 9006   1.856   2.011   7.339 -0.2754  0.1841  0.1853
   89CHL1    H8 9007   1.881   2.119   7.339  1.9131 -0.2772  1.0192
   89CHL1   C14 9008   1.818   1.970   7.480  0.3243  0.2810  0.1779
   89CHL1   H14 9009   1.791   1.862   7.477 -1.3173  0.6569 -2.5720
   89CHL1   C15 9010   1.696   2.038   7.540  0.4940 -0.9687  0.4657
   89CHL1  H15A 9011   1.702   2.146   7.514 -0.0846 -1.1910 -0.6094
   89CHL1  H15B 9012   1.604   1.998   7.494  0.4848  0.3674 -0.7655
   89CHL1   C16 9013   1.705   2.003   7.691  0.2885 -0.3437 -0.3069
   89CHL1  H16A 9014   1.700   2.089   7.761  3.8082 -0.0824 -0.1878
   89CHL1  H16B 9015   1.622   1.933   7.716 -2.8429  3.0845 -0.2566
   89CHL1   C17 9016   1.845   1.932   7.712 -0.7368  0.7548  0.3519
   89CHL1   H17 9017   1.838   1.821   7.707 -0.2425  0.4166  4.0955
   89CHL1   C13 9018   1.928   1.974   7.589  0.0787  0.4712  0.6671
   89CHL1   C18 9019   1.970   2.123   7.605  0.1104  0.3973  0.5334
   89CHL1  H18A 9020   2.009   2.156   7.506  1.4633 -0.4673  0.7437
   89CHL1  H18B 9021   1.887   2.186   7.644  1.4385  1.5083  1.6622
   89CHL1  H18C 9022   2.061   2.135   7.669 -0.6217 -0.5764  1.8083
   89CHL1   C12 9023   2.045   1.881   7.536  0.6601 -0.3965 -0.6063
   89CHL1  H12A 9024   2.131   1.900   7.603  0.6464  0.1556 -0.7411
   89CHL1  H12B 9025   2.024   1.775   7.559 -0.2749  0.2091  1.6550
   89CHL1   C11 9026   2.094   1.910   7.395  0.1024  0.0809 -0.2781
   89CHL1  H11A 9027   2.146   2.008   7.397 -1.3509  0.9360 -1.9246
   89CHL1  H11B 9028   2.151   1.821   7.360 -0.9966 -0.9153  0.4072
   89CHL1    C9 9029   1.981   1.926   7.293  1.2055  0.9551 -0.5123
   89CHL1    H9 9030   1.933   1.826   7.292 -0.3216  1.5268  2.7371
   89CHL1   C10 9031   2.026   1.959   7.146 -0.7086 -0.0937  0.2276
   89CHL1   C19 9032   2.120   2.084   7.152 -0.6132 -0.1258 -0.1872
   89CHL1  H19A 9033   2.164   2.111   7.053 -0.9488  0.1856 -0.2532
   89CHL1  H19B 9034   2.065   2.176   7.179  0.2712  0.1846  0.5789
   89CHL1  H19C 9035   2.208   2.072   7.219 -0.2941  1.7659 -0.2132
   89CHL1    C1 9036   2.098   1.828   7.088  0.0256 -1.3352 -0.7347
   89CHL1   H1A 9037   2.191   1.812   7.148 -1.4525  0.1548  2.1651
   89CHL1   H1B 9038   2.041   1.741   7.128  0.7626 -2.0030 -1.0933
   89CHL1    C2 9039   2.117   1.834   6.936  0.8498  0.2431  0.3414
   89CHL1   H2A 9040   2.150   1.733   6.903  2.6984  0.5047  1.2892
   89CHL1   H2B 9041   2.203   1.899   6.911 -0.7095  1.4987 -2.1858
   89CHL1   C20 9042   1.905   1.953   7.851 -0.1859  0.1038  0.7239
   89CHL1   H20 9043   1.928   2.062   7.854 -2.5074  0.8872 -3.1467
   89CHL1   C21 9044   2.036   1.877   7.876 -0.8811  0.0836  0.3067
   89CHL1  H21A 9045   2.103   1.917   7.797 -1.3705  0.4970  0.0975
   89CHL1  H21B 9046   2.029   1.767   7.874  3.0166 -0.2859  0.1313
   89CHL1  H21C 9047   2.070   1.907   7.978  1.0273 -0.3783 -0.1528
   89CHL1   C22 9048   1.812   1.912   7.964  1.3679 -0.0969 -0.4334
   89CHL1  H22A 9049   1.706   1.921   7.931  1.4269 -1.9815 -1.2391
   89CHL1  H22B 9050   1.821   1.804   7.987  1.7459  0.4058  2.0315
   89CHL1   C23 9051   1.853   1.987   8.097  0.1759  0.5998  0.7890
   89CHL1  H23A 9052   1.951   1.952   8.135  0.5940 -0.1308 -0.8603
   89CHL1  H23B 9053   1.845   2.094   8.068  2.8986  0.6566 -0.0293
   89CHL1   C24 9054   1.737   1.972   8.206 -0.6116  0.6277 -0.1384
   89CHL1  H24A 9055   1.640   2.010   8.166 -0.0507  0.6004 -1.6041
   89CHL1  H24B 9056   1.737   1.867   8.242  1.0413  0.5500 -0.2812
   89CHL1   C25 9057   1.763   2.049   8.338 -0.2705  0.3219 -0.3375
   89CHL1   H25 9058   1.870   2.045   8.366 -0.6691  0.8003  1.3732
   89CHL1   C26 9059   1.725   2.199   8.317  0.4805 -0.1105  0.3962
   89CHL1  H26A 9060   1.799   2.255   8.256 -0.7814  1.7418  0.4780
   89CHL1  H26B 9061   1.625   2.211   8.270  0.8809 -0.2937 -0.5199
   89CHL1  H26C 9062   1.717   2.245   8.418 -1.0042  0.4769  0.0450
   89CHL1   C27 9063   1.695   1.982   8.459  0.1730  0.0797  0.0078
   89CHL1  H27A 9064   1.754   1.902   8.509  0.0871 -1.0282 -1.5488
   89CHL1  H27B 9065   1.685   2.057   8.540 -2.8223  0.9292 -1.0020
   89CHL1  H27C 9066   1.590   1.949   8.442  0.8197 -1.8514 -0.5259
   90CHL1    C3 9067   1.972   4.000   6.941 -0.9669  0.5210 -0.2557
   90CHL1    H3 9068   2.009   3.897   6.958 -0.6115  0.8011  0.7187
   90CHL1    O3 9069   1.950   4.024   6.799  0.4984 -0.8397 -0.1705
   90CHL1   H3' 9070   1.937   4.119   6.798  0.2556 -0.8400  0.9941
   90CHL1    C4 9071   1.848   4.038   7.013  0.7858 -0.5132  0.3173
   90CHL1   H4A 9072   1.823   4.144   6.989 -1.5396 -1.2000 -0.6598
   90CHL1   H4B 9073   1.752   3.995   6.976 -1.1829  1.9824  2.1002
   90CHL1    C5 9074   1.869   4.025   7.165 -0.5153 -0.0531  0.2429
   90CHL1    C6 9075   1.792   3.935   7.243  0.4261 -0.0292  0.2952
   90CHL1    H6 9076   1.707   3.883   7.196  1.3588 -0.4133 -0.9927
   90CHL1    C7 9077   1.804   3.922   7.392  1.0844 -0.2661 -0.2466
   90CHL1   H7A 9078   1.706   3.921   7.443  1.3034 -0.2997  0.1810
   90CHL1   H7B 9079   1.861   3.827   7.409  2.5583  0.3782 -1.3305
   90CHL1    C8 9080   1.901   4.023   7.455  0.0215  0.0890  0.2950
   90CHL1    H8 9081   1.865   4.128   7.452 -0.9034 -0.1829  1.3825
   90CHL1   C14 9082   1.941   3.982   7.594 -0.3001  0.0432 -1.3146
   90CHL1   H14 9083   1.993   3.884   7.581 -0.6499 -0.2444 -0.5911
   90CHL1   C15 9084   1.830   3.948   7.693  0.5931  0.2766  0.2998
   90CHL1  H15A 9085   1.750   4.025   7.687  1.2609  1.0589  1.1874
   90CHL1  H15B 9086   1.777   3.855   7.663 -1.3980  1.7913 -1.2191
   90CHL1   C16 9087   1.888   3.956   7.834 -0.1267 -0.2738  0.0906
   90CHL1  H16A 9088   1.828   4.038   7.878  1.6508  1.7800 -1.1588
   90CHL1  H16B 9089   1.876   3.871   7.905 -0.8143 -0.1186  0.1688
   90CHL1   C17 9090   2.035   4.004   7.807  0.3125 -0.2183  0.3729
   90CHL1   H17 9091   2.091   3.910   7.787 -1.7286 -1.8678  2.0712
   90CHL1   C13 9092   2.037   4.079   7.674 -0.1473 -0.3438 -0.1248
   90CHL1   C18 9093   1.984   4.218   7.690  0.3851 -0.6313  0.2837
   90CHL1  H18A 9094   1.884   4.202   7.735  0.2060 -1.0524 -0.2484
   90CHL1  H18B 9095   2.049   4.276   7.759  0.4251 -1.0285  0.5833
   90CHL1  H18C 9096   1.966   4.285   7.603 -1.0464  1.1535  1.8605
   90CHL1   C12 9097   2.171   4.073   7.593  0.3325  0.3676 -0.2248
   90CHL1  H12A 9098   2.243   4.142   7.642 -0.6841  0.1942  1.6264
   90CHL1  H12B 9099   2.219   3.973   7.598  1.1405  0.8062  2.1095
   90CHL1   C11 9100   2.150   4.103   7.443 -0.5010 -0.4953  0.1026
   90CHL1  H11A 9101   2.124   4.210   7.450 -0.6690 -0.6487  2.9735
   90CHL1  H11B 9102   2.248   4.088   7.392  0.0393 -0.3559  1.0823
   90CHL1    C9 9103   2.037   4.037   7.369  0.5424 -0.0681 -0.1380
   90CHL1    H9 9104   2.072   3.933   7.352 -0.6852 -0.2668 -1.6138
   90CHL1   C10 9105   2.001   4.089   7.225  0.1372  0.3783 -0.6889
   90CHL1   C19 9106   1.982   4.240   7.231 -0.1976  0.5654  0.6594
   90CHL1  H19A 9107   1.947   4.277   7.133  0.9000  0.6613  0.2811
   90CHL1  H19B 9108   1.911   4.267   7.312  0.4200  0.0175  1.4032
   90CHL1  H19C 9109   2.080   4.290   7.248  1.4251 -1.6048 -1.5629
   90CHL1    C1 9110   2.121   4.057   7.135 -0.5443 -0.8143  0.2594
   90CHL1   H1A 9111   2.205   4.120   7.171 -1.5691  1.3856 -0.9977
   90CHL1   H1B 9112   2.157   3.952   7.147  1.3601 -0.2289 -0.0844
   90CHL1    C2 9113   2.091   4.088   6.987 -0.1989  0.4282  0.5071
   90CHL1   H2A 9114   2.185   4.095   6.928  1.4097 -0.3490  2.8177
   90CHL1   H2B 9115   2.053   4.192   6.982  0.0723  0.4964 -0.3712
   90CHL1   C20 9116   2.106   4.074   7.922  0.2897  0.6911 -0.1163
   90CHL1   H20 9117   2.072   4.178   7.944  4.5275  2.1999  0.2257
   90CHL1   C21 9118   2.251   4.076   7.892 -0.5746  0.0277  0.0946
   90CHL1  H21A 9119   2.318   4.096   7.979  0.3501  0.7069 -0.7496
   90CHL1  H21B 9120   2.261   4.167   7.829 -2.8266  0.9579  0.9696
   90CHL1  H21C 9121   2.287   3.985   7.841 -0.2757  1.0938 -1.6847
   90CHL1   C22 9122   2.082   3.991   8.051  0.3146  0.0566  0.5668
   90CHL1  H22A 9123   1.975   4.007   8.079 -0.0090 -1.4408  0.2665
   90CHL1  H22B 9124   2.100   3.882   8.040  2.1131  0.2011  1.6415
   90CHL1   C23 9125   2.152   4.043   8.181  0.2116  0.0650 -0.4733
   90CHL1  H23A 9126   2.259   4.013   8.181  0.0055 -0.6953 -0.8302
   90CHL1  H23B 9127   2.168   4.151   8.163  0.9475 -0.2462 -1.8544
   90CHL1   C24 9128   2.081   4.010   8.310 -0.2979  0.1360  0.2339
   90CHL1  H24A 9129   1.996   4.081   8.317  0.6204  1.4426 -1.3467
   90CHL1  H24B 9130   2.042   3.906   8.303  2.0139 -0.6730 -3.0627
   90CHL1   C25 9131   2.173   4.010   8.435  1.4230  0.2943  1.0234
   90CHL1   H25 9132   2.270   3.967   8.402  0.9027 -0.3582  0.3083
   90CHL1   C26 9133   2.193   4.154   8.478  0.1555 -0.1584 -0.3135
   90CHL1  H26A 9134   2.097   4.203   8.506 -1.2026 -0.7591 -3.4316
   90CHL1  H26B 9135   2.262   4.159   8.565 -3.1313  0.9848  2.4217
   90CHL1  H26C 9136   2.243   4.222   8.405 -0.9767  0.1713 -0.8084
   90CHL1   C27 9137   2.113   3.915   8.547 -0.0840  0.1301 -0.3145
   90CHL1  H27A 9138   2.003   3.930   8.543 -0.6853 -1.1025  4.9571
   90CHL1  H27B 9139   2.129   3.805   8.536 -5.2025 -0.9896  0.9691
   90CHL1  H27C 9140   2.154   3.945   8.646  1.1715 -2.7119  0.1161
   91CHL1    C3 9141   4.218   4.631   7.163 -0.3586 -0.2793 -0.4166
   91CHL1    H3 9142   4.205   4.734   7.203  0.2239 -0.6438  0.7685
   91CHL1    O3 9143   4.191   4.633   7.025  0.3636  0.4190  0.2640
   91CHL1   H3' 9144   4.100   4.604   7.011  0.3032 -0.3025  1.9314
   91CHL1    C4 9145   4.367   4.588   7.176  0.0430 -0.0920  0.1807
   91CHL1   H4A 9146   4.377   4.494   7.117 -0.8243  0.0652 -0.2319
   91CHL1   H4B 9147   4.423   4.663   7.116  1.0143 -0.9904 -0.0618
   91CHL1    C5 9148   4.412   4.568   7.321  0.8272 -0.4604 -0.0867
   91CHL1    C6 9149   4.517   4.640   7.361 -0.0401 -0.3496 -0.5991
   91CHL1    H6 9150   4.568   4.711   7.294  0.1820  2.5679  2.4328
   91CHL1    C7 9151   4.577   4.632   7.498 -0.0242  0.1157  0.0647
   91CHL1   H7A 9152   4.688   4.627   7.491  0.0306 -0.5611  1.1419
   91CHL1   H7B 9153   4.547   4.727   7.548  1.0513  0.7780 -0.5089
   91CHL1    C8 9154   4.511   4.517   7.594  0.2568 -0.0558  0.5952
   91CHL1    H8 9155   4.563   4.424   7.564  0.6468  0.7716 -1.4604
   91CHL1   C14 9156   4.539   4.541   7.732  0.4090 -0.3232  0.0055
   91CHL1   H14 9157   4.473   4.629   7.749 -1.3267 -1.6635  0.4558
   91CHL1   C15 9158   4.675   4.595   7.782 -0.3249 -0.5585 -0.1023
   91CHL1  H15A 9159   4.763   4.546   7.734  1.2866  0.4529  1.6649
   91CHL1  H15B 9160   4.686   4.704   7.770 -0.0547 -0.6022 -0.2722
   91CHL1   C16 9161   4.682   4.567   7.929  0.8300 -0.5972  1.1435
   91CHL1  H16A 9162   4.764   4.495   7.949  2.9254  0.0014 -3.8066
   91CHL1  H16B 9163   4.699   4.666   7.976 -0.1546  0.8312 -1.2970
   91CHL1   C17 9164   4.544   4.505   7.971  0.4949  1.1622  0.2560
   91CHL1   H17 9165   4.473   4.590   7.983  0.3963  0.9538  1.1858
   91CHL1   C13 9166   4.496   4.436   7.839  0.1889  0.1605 -1.2446
   91CHL1   C18 9167   4.559   4.297   7.822  0.1307  0.3575  0.9636
   91CHL1  H18A 9168   4.546   4.265   7.716  0.7851  1.5082  0.5153
   91CHL1  H18B 9169   4.665   4.297   7.855  0.1409 -0.4857  0.9589
   91CHL1  H18C 9170   4.511   4.214   7.878 -0.0551 -0.3811 -0.2529
   91CHL1   C12 9171   4.345   4.421   7.817  0.4175  0.4660  0.0157
   91CHL1  H12A 9172   4.308   4.345   7.890  0.7793  1.7808  1.6433
   91CHL1  H12B 9173   4.298   4.520   7.836  1.4220  1.0268 -0.3515
   91CHL1   C11 9174   4.304   4.386   7.673 -0.1150 -0.3268 -0.3699
   91CHL1  H11A 9175   4.334   4.280   7.657  0.4882 -0.2193 -0.0034
   91CHL1  H11B 9176   4.193   4.390   7.675 -0.1450 -1.0636  0.2165
   91CHL1    C9 9177   4.364   4.489   7.567 -0.0568 -0.8422 -0.1538
   91CHL1    H9 9178   4.318   4.586   7.597  1.1527 -0.4571  0.5265
   91CHL1   C10 9179   4.325   4.482   7.411  0.0601  0.2339 -0.7200
   91CHL1   C19 9180   4.358   4.342   7.370  0.2796 -0.0019 -0.1143
   91CHL1  H19A 9181   4.274   4.276   7.403 -1.0848  0.2016 -2.8843
   91CHL1  H19B 9182   4.371   4.325   7.261  0.7119  1.6212 -0.3432
   91CHL1  H19C 9183   4.455   4.312   7.413  0.1433  2.4061  2.1263
   91CHL1    C1 9184   4.178   4.527   7.387 -0.8400  0.0045  0.4109
   91CHL1   H1A 9185   4.110   4.461   7.445  0.9300 -2.3638 -0.0535
   91CHL1   H1B 9186   4.168   4.630   7.428  0.9567  0.2728  0.2578
   91CHL1    C2 9187   4.134   4.540   7.241  0.3316 -0.6374  0.7760
   91CHL1   H2A 9188   4.029   4.576   7.239 -0.1084 -1.7635  1.9195
   91CHL1   H2B 9189   4.148   4.442   7.190  2.0841  0.4081 -0.8470
   91CHL1   C20 9190   4.550   4.429   8.103 -0.3489 -0.1307 -0.7582
   91CHL1   H20 9191   4.639   4.364   8.088  2.1040  2.5257  1.1325
   91CHL1   C21 9192   4.432   4.332   8.129  0.3382 -0.5515 -0.0373
   91CHL1  H21A 9193   4.437   4.248   8.057  0.1479 -0.6381  0.0511
   91CHL1  H21B 9194   4.335   4.385   8.120  1.3612  1.2756 -0.9714
   91CHL1  H21C 9195   4.450   4.282   8.226  1.3095 -1.5003 -0.6839
   91CHL1   C22 9196   4.558   4.513   8.230 -0.1423  0.1448 -0.1070
   91CHL1  H22A 9197   4.585   4.447   8.316  0.5427 -0.1033 -0.5010
   91CHL1  H22B 9198   4.638   4.590   8.222  0.3476 -0.5738 -3.1173
   91CHL1   C23 9199   4.436   4.606   8.274  0.0618 -0.3665  0.1407
   91CHL1  H23A 9200   4.397   4.676   8.197 -0.0210  0.2818  0.7550
   91CHL1  H23B 9201   4.350   4.537   8.286 -1.5734  1.2907 -1.3601
   91CHL1   C24 9202   4.455   4.674   8.410  1.4019 -0.1013  0.2640
   91CHL1  H24A 9203   4.507   4.603   8.478 -0.8475  0.0625  2.2874
   91CHL1  H24B 9204   4.533   4.750   8.387 -1.4829  2.2595 -2.5843
   91CHL1   C25 9205   4.329   4.726   8.472  0.5164  0.6464  0.3449
   91CHL1   H25 9206   4.240   4.661   8.455  1.4030 -0.0356 -1.9882
   91CHL1   C26 9207   4.361   4.743   8.614  0.2062 -0.1142  0.0794
   91CHL1  H26A 9208   4.412   4.837   8.645 -0.1832  0.2246 -0.2949
   91CHL1  H26B 9209   4.264   4.755   8.665  0.7963  0.5830  1.0785
   91CHL1  H26C 9210   4.405   4.654   8.665  1.4773 -0.5743 -1.7218
   91CHL1   C27 9211   4.284   4.858   8.399 -0.0391  0.7417 -0.4277
   91CHL1  H27A 9212   4.355   4.942   8.415  0.1043  0.8751 -1.6415
   91CHL1  H27B 9213   4.270   4.843   8.290 -1.7855 -0.0063 -0.1253
   91CHL1  H27C 9214   4.189   4.896   8.443 -0.8224  1.9832 -2.9763
   92CHL1    C3 9215   0.734   1.608   6.846 -0.1146  0.6216 -0.3238
   92CHL1    H3 9216   0.829   1.665   6.856 -0.0420  0.5178 -0.4299
   92CHL1    O3 9217   0.692   1.603   6.711  0.2985  0.7169 -0.1030
   92CHL1   H3' 9218   0.725   1.515   6.692 -0.9329 -0.1831  1.6310
   92CHL1    C4 9219   0.743   1.467   6.898  0.0565  0.4966 -0.4003
   92CHL1   H4A 9220   0.647   1.415   6.880  0.6005 -0.7734  0.2496
   92CHL1   H4B 9221   0.825   1.415   6.844  0.2266  0.8849 -0.5178
   92CHL1    C5 9222   0.768   1.460   7.049  0.0735 -0.0287 -0.0065
   92CHL1    C6 9223   0.876   1.395   7.099  0.9928  0.4784  0.7552
   92CHL1    H6 9224   0.942   1.337   7.032 -0.6766  0.2028 -0.7049
   92CHL1    C7 9225   0.906   1.391   7.248 -0.1533 -0.6189  0.3603
   92CHL1   H7A 9226   0.942   1.287   7.266  2.9987  0.3968  0.5690
   92CHL1   H7B 9227   0.988   1.465   7.264  0.6787 -1.6922  1.2287
   92CHL1    C8 9228   0.786   1.422   7.332  0.1810 -0.1153  0.2220
   92CHL1    H8 9229   0.704   1.350   7.314 -1.8006  2.0089  0.2315
   92CHL1   C14 9230   0.818   1.434   7.475  0.3556  0.2336 -0.5648
   92CHL1   H14 9231   0.891   1.517   7.482  0.0867  0.6071 -1.8215
   92CHL1   C15 9232   0.886   1.317   7.536  0.3430  0.3430  0.0662
   92CHL1  H15A 9233   0.820   1.231   7.512  1.4470 -0.5174  0.0628
   92CHL1  H15B 9234   0.994   1.299   7.519  0.4580  0.7057  0.3913
   92CHL1   C16 9235   0.875   1.356   7.685  0.3319  0.1585  0.1488
   92CHL1  H16A 9236   0.819   1.274   7.735 -0.5130  0.0285 -0.9655
   92CHL1  H16B 9237   0.974   1.379   7.728  0.7686  0.2522 -0.8756
   92CHL1   C17 9238   0.786   1.488   7.695  0.1789  0.7717  0.1584
   92CHL1   H17 9239   0.854   1.576   7.696  0.7642  0.3298 -0.2490
   92CHL1   C13 9240   0.704   1.481   7.564  0.5627  0.0879 -0.9115
   92CHL1   C18 9241   0.593   1.376   7.574 -0.1767  0.1542 -0.3634
   92CHL1  H18A 9242   0.630   1.277   7.610 -2.2547 -1.8171 -3.1571
   92CHL1  H18B 9243   0.514   1.411   7.644  0.4523  1.3616 -0.2408
   92CHL1  H18C 9244   0.549   1.348   7.476  1.2472 -0.1065 -0.9517
   92CHL1   C12 9245   0.660   1.613   7.515  0.4375 -0.2252 -0.2081
   92CHL1  H12A 9246   0.576   1.637   7.583  2.1248 -0.9561  2.2941
   92CHL1  H12B 9247   0.742   1.688   7.524 -0.0774  0.3402 -0.2145
   92CHL1   C11 9248   0.610   1.618   7.369 -0.4635  0.7779 -0.8897
   92CHL1  H11A 9249   0.525   1.548   7.357  1.1378 -1.8834  2.0857
   92CHL1  H11B 9250   0.573   1.719   7.339 -1.6183  0.2566 -1.2846
   92CHL1    C9 9251   0.722   1.558   7.281  0.2378 -0.7875  0.4152
   92CHL1    H9 9252   0.805   1.632   7.275  0.0454 -0.6955 -2.3190
   92CHL1   C10 9253   0.673   1.544   7.131  0.5137  0.4341  1.2238
   92CHL1   C19 9254   0.535   1.478   7.110 -0.3006 -0.2901  0.7449
   92CHL1  H19A 9255   0.462   1.549   7.155 -0.5071 -1.3124  2.1064
   92CHL1  H19B 9256   0.509   1.470   7.003  0.7080  0.4292  0.4298
   92CHL1  H19C 9257   0.533   1.379   7.160 -1.5730  0.0302  1.3869
   92CHL1    C1 9258   0.672   1.690   7.067 -0.4871 -0.3179  0.2543
   92CHL1   H1A 9259   0.614   1.767   7.122  0.9436  0.5108  0.6504
   92CHL1   H1B 9260   0.778   1.723   7.073  0.1443 -2.4845  2.9973
   92CHL1    C2 9261   0.633   1.691   6.919  0.3691 -0.9071 -0.6607
   92CHL1   H2A 9262   0.629   1.796   6.884  0.8563  0.0564  1.9326
   92CHL1   H2B 9263   0.531   1.650   6.902  0.2968 -1.1288  0.2497
   92CHL1   C20 9264   0.713   1.496   7.834 -0.1584  0.4363  0.5391
   92CHL1   H20 9265   0.636   1.418   7.851  0.9047 -0.4957  1.1704
   92CHL1   C21 9266   0.648   1.635   7.846  0.0373  0.3069 -0.4568
   92CHL1  H21A 9267   0.728   1.712   7.836  1.5577 -1.1943 -0.2732
   92CHL1  H21B 9268   0.596   1.638   7.944  1.0891 -3.5130  0.4052
   92CHL1  H21C 9269   0.570   1.644   7.768  1.6134 -1.1135 -2.3017
   92CHL1   C22 9270   0.806   1.473   7.959 -0.0751 -0.0479  0.4731
   92CHL1  H22A 9271   0.861   1.378   7.941 -1.3060 -0.1758 -3.4036
   92CHL1  H22B 9272   0.884   1.552   7.955 -0.7016  0.5357 -0.4373
   92CHL1   C23 9273   0.742   1.472   8.097 -0.1154  0.4603 -0.2506
   92CHL1  H23A 9274   0.718   1.571   8.141  0.2414 -0.2566  1.6393
   92CHL1  H23B 9275   0.645   1.422   8.082 -0.1318  0.9349 -2.0552
   92CHL1   C24 9276   0.843   1.407   8.192 -0.4060  0.6168  0.0896
   92CHL1  H24A 9277   0.842   1.301   8.157 -3.4020  1.0479 -1.4473
   92CHL1  H24B 9278   0.938   1.454   8.161 -0.2607  1.0747  1.1927
   92CHL1   C25 9279   0.812   1.415   8.344 -0.3357  0.5986 -0.0101
   92CHL1   H25 9280   0.808   1.524   8.366 -1.1711  0.6621 -0.4324
   92CHL1   C26 9281   0.670   1.359   8.378 -0.5993 -0.1736  0.0924
   92CHL1  H26A 9282   0.673   1.256   8.336  4.5995 -0.6235  0.9042
   92CHL1  H26B 9283   0.648   1.362   8.487 -0.3876 -0.3876  0.1415
   92CHL1  H26C 9284   0.595   1.424   8.327 -0.6365 -1.0013 -0.9603
   92CHL1   C27 9285   0.919   1.348   8.431 -1.1341  0.4896 -0.5658
   92CHL1  H27A 9286   0.881   1.326   8.532  0.6515 -3.0777 -0.5189
   92CHL1  H27B 9287   0.937   1.246   8.391  2.5154 -0.2210  2.3326
   92CHL1  H27C 9288   1.009   1.414   8.440 -0.0029 -1.0716  0.0832
   93CHL1    C3 9289   5.871   3.056   6.737 -0.0874 -0.9087  0.6283
   93CHL1    H3 9290   5.920   3.155   6.724  0.1961 -1.2467 -1.0811
   93CHL1    O3 9291   5.825   3.020   6.607 -0.1151  0.0678  0.2702
   93CHL1   H3' 9292   5.899   2.972   6.569  1.0225  1.1762  1.0289
   93CHL1    C4 9293   5.985   2.959   6.784  0.1086  0.1665 -0.2722
   93CHL1   H4A 9294   5.958   2.852   6.775  2.6358 -0.7437  1.7134
   93CHL1   H4B 9295   6.066   2.975   6.710 -1.7110 -0.2409 -2.4761
   93CHL1    C5 9296   6.024   2.990   6.929  0.0505 -0.4453 -0.4486
   93CHL1    C6 9297   6.148   3.025   6.974  0.1374 -0.0278 -0.4484
   93CHL1    H6 9298   6.228   3.030   6.898  0.3245 -0.5060 -0.2905
   93CHL1    C7 9299   6.180   3.050   7.119  0.8543 -0.2138 -0.8176
   93CHL1   H7A 9300   6.277   2.999   7.139  1.3199 -0.3094 -2.9970
   93CHL1   H7B 9301   6.188   3.158   7.139 -0.5930 -0.1391 -0.5654
   93CHL1    C8 9302   6.078   2.996   7.226  0.6429 -0.3848 -0.5577
   93CHL1    H8 9303   6.083   2.885   7.232  1.8499 -0.2810  1.1415
   93CHL1   C14 9304   6.099   3.059   7.367 -0.4201 -0.0585  0.4018
   93CHL1   H14 9305   6.080   3.168   7.358 -3.1325 -0.3327  1.9587
   93CHL1   C15 9306   6.229   3.022   7.440 -0.2528  0.3660  0.8871
   93CHL1  H15A 9307   6.246   2.913   7.428 -2.8472  0.2435 -4.2341
   93CHL1  H15B 9308   6.317   3.082   7.407 -0.6435  0.4430 -0.0371
   93CHL1   C16 9309   6.203   3.054   7.589  0.7725  0.2775  0.3706
   93CHL1  H16A 9310   6.225   2.962   7.647 -0.6738  0.6278  1.5254
   93CHL1  H16B 9311   6.269   3.135   7.626  0.6659  1.3687 -1.6733
   93CHL1   C17 9312   6.047   3.090   7.600  0.3569  0.3669 -0.1614
   93CHL1   H17 9313   6.035   3.200   7.587  0.7135  0.6370  1.5758
   93CHL1   C13 9314   5.989   3.027   7.469 -0.0785  0.2182 -0.4950
   93CHL1   C18 9315   5.981   2.872   7.499 -0.0511  0.9348 -0.3244
   93CHL1  H18A 9316   6.068   2.828   7.552 -1.4033 -1.1655  0.2746
   93CHL1  H18B 9317   5.890   2.855   7.559  0.4318  1.2127  0.5022
   93CHL1  H18C 9318   5.981   2.822   7.400  1.4533 -0.6069  0.3837
   93CHL1   C12 9319   5.852   3.081   7.417 -0.8047  0.0089 -0.2413
   93CHL1  H12A 9320   5.763   3.055   7.478 -0.1095  0.8257  1.1943
   93CHL1  H12B 9321   5.856   3.192   7.411 -2.3355  0.1468  0.6774
   93CHL1   C11 9322   5.820   3.016   7.272  0.4135 -0.0658 -0.0122
   93CHL1  H11A 9323   5.800   2.907   7.286 -0.6695  0.1778  0.5026
   93CHL1  H11B 9324   5.729   3.058   7.224  1.9616  1.8827 -1.4048
   93CHL1    C9 9325   5.938   3.033   7.176  0.3257  0.3772  0.1739
   93CHL1    H9 9326   5.944   3.144   7.165 -2.0962  0.4773 -0.7254
   93CHL1   C10 9327   5.897   2.988   7.032 -0.3211  0.1058 -0.0305
   93CHL1   C19 9328   5.862   2.831   7.033 -0.0392  0.9237  0.0060
   93CHL1  H19A 9329   5.836   2.793   6.932  0.8027  1.7322 -0.5320
   93CHL1  H19B 9330   5.955   2.782   7.069  0.3765  0.4587 -1.6179
   93CHL1  H19C 9331   5.781   2.801   7.102 -1.3979  0.2539 -1.8162
   93CHL1    C1 9332   5.777   3.067   6.974 -0.3005  0.1913 -0.1878
   93CHL1   H1A 9333   5.680   3.049   7.025 -1.0481  1.7002 -1.0079
   93CHL1   H1B 9334   5.796   3.174   6.997  0.2655  0.2930 -1.0832
   93CHL1    C2 9335   5.747   3.054   6.829  0.0128  0.9868 -0.3026
   93CHL1   H2A 9336   5.683   3.139   6.798 -1.8442 -0.0334  0.5723
   93CHL1   H2B 9337   5.694   2.957   6.819  1.6413 -0.2590  2.1146
   93CHL1   C20 9338   5.988   3.050   7.737 -0.2371 -0.6113  0.5308
   93CHL1   H20 9339   5.988   2.939   7.751 -1.4032 -0.9965 -2.0758
   93CHL1   C21 9340   5.843   3.101   7.752 -0.6562 -0.1728  0.2040
   93CHL1  H21A 9341   5.836   3.202   7.706  0.4796 -0.2939 -0.2651
   93CHL1  H21B 9342   5.818   3.105   7.860 -1.4865 -1.2104  0.0695
   93CHL1  H21C 9343   5.778   3.029   7.697  0.4321  0.5929 -2.2253
   93CHL1   C22 9344   6.068   3.105   7.852 -0.1474 -0.2871  0.3560
   93CHL1  H22A 9345   6.012   3.078   7.944 -0.3545  1.0835  0.6674
   93CHL1  H22B 9346   6.165   3.050   7.860  0.5893  0.9387  0.2244
   93CHL1   C23 9347   6.104   3.255   7.843  0.3898 -0.0992  0.0204
   93CHL1  H23A 9348   6.147   3.288   7.746 -2.7947 -0.7072 -1.7388
   93CHL1  H23B 9349   6.010   3.313   7.848  0.6634  0.4298 -0.7816
   93CHL1   C24 9350   6.199   3.303   7.952 -0.2892  0.0476 -0.4494
   93CHL1  H24A 9351   6.279   3.227   7.959  0.2559  0.6754  0.3241
   93CHL1  H24B 9352   6.239   3.406   7.939 -1.6841  0.7358  0.3778
   93CHL1   C25 9353   6.142   3.309   8.096  0.4315 -0.1463 -0.0432
   93CHL1   H25 9354   6.112   3.206   8.125 -1.1799  0.3251  0.0486
   93CHL1   C26 9355   6.260   3.335   8.195  0.3762  0.0622 -0.7530
   93CHL1  H26A 9356   6.235   3.309   8.300  2.2061 -0.2310 -0.3728
   93CHL1  H26B 9357   6.347   3.277   8.159 -0.7434 -2.2753  0.1018
   93CHL1  H26C 9358   6.288   3.441   8.180 -0.3901  1.1851  3.9819
   93CHL1   C27 9359   6.020   3.401   8.105  0.0309 -0.6478 -0.3327
   93CHL1  H27A 9360   5.972   3.412   8.204  0.4200  0.7880 -0.2676
   93CHL1  H27B 9361   6.050   3.507   8.085  1.0871 -0.5686  1.4480
   93CHL1  H27C 9362   5.946   3.377   8.026  1.2538 -0.7510 -1.5008
   94CHL1    C3 9363   1.194   1.626   7.003  0.2718 -0.4012  0.3000
   94CHL1    H3 9364   1.101   1.567   7.014  0.0853 -0.7379 -2.4445
   94CHL1    O3 9365   1.200   1.635   6.862  0.2117  0.2754 -0.4281
   94CHL1   H3' 9366   1.237   1.722   6.842 -0.6476  0.5182 -1.0036
   94CHL1    C4 9367   1.162   1.765   7.058 -0.5405 -0.1277 -0.2013
   94CHL1   H4A 9368   1.254   1.822   7.033  0.1450 -1.1363 -0.0073
   94CHL1   H4B 9369   1.075   1.803   6.999  0.3052 -1.3054 -2.3219
   94CHL1    C5 9370   1.147   1.770   7.209  0.3164  0.2371  0.0254
   94CHL1    C6 9371   1.029   1.809   7.261 -0.2288  0.0315 -0.2929
   94CHL1    H6 9372   0.941   1.837   7.201 -0.5727  0.2866  0.3177
   94CHL1    C7 9373   1.017   1.827   7.417  0.4882 -0.3221  0.0859
   94CHL1   H7A 9374   0.975   1.926   7.445 -0.6582 -0.3957 -1.2810
   94CHL1   H7B 9375   0.944   1.755   7.459 -0.2317  0.4098  0.1109
   94CHL1    C8 9376   1.153   1.809   7.493  0.9106  0.2971  0.2543
   94CHL1    H8 9377   1.206   1.905   7.481  0.5471  0.4674  0.0153
   94CHL1   C14 9378   1.124   1.770   7.642 -0.6162 -0.6055  0.8648
   94CHL1   H14 9379   1.063   1.677   7.646  0.0287 -1.1245 -0.6606
   94CHL1   C15 9380   1.033   1.867   7.715 -0.2304 -0.6787 -0.4200
   94CHL1  H15A 9381   1.071   1.968   7.688 -2.4024  0.0096 -1.0954
   94CHL1  H15B 9382   0.924   1.873   7.694 -0.2914 -1.8933 -0.4712
   94CHL1   C16 9383   1.067   1.839   7.859 -0.2778 -0.3653 -0.1668
   94CHL1  H16A 9384   1.093   1.934   7.910 -0.4081  1.0616 -2.6020
   94CHL1  H16B 9385   0.977   1.791   7.903  1.7065 -1.0883  3.5214
   94CHL1   C17 9386   1.190   1.738   7.867  0.5105  0.0198 -0.4431
   94CHL1   H17 9387   1.141   1.639   7.873 -1.5664  1.0261  0.2095
   94CHL1   C13 9388   1.254   1.757   7.728  0.3513 -0.3579 -0.5834
   94CHL1   C18 9389   1.331   1.892   7.730 -0.3577  0.4346  0.1640
   94CHL1  H18A 9390   1.287   1.976   7.787  2.6897  1.4616  1.2189
   94CHL1  H18B 9391   1.415   1.854   7.792 -1.8936 -4.0738 -0.1162
   94CHL1  H18C 9392   1.362   1.922   7.628  2.3921  1.4993  1.2239
   94CHL1   C12 9393   1.330   1.638   7.676 -0.2289  0.0638 -0.4104
   94CHL1  H12A 9394   1.423   1.614   7.732 -0.5293  0.3941  0.2418
   94CHL1  H12B 9395   1.268   1.546   7.684  1.4769 -1.0340  1.0562
   94CHL1   C11 9396   1.360   1.657   7.523 -0.8799  0.7019  0.3250
   94CHL1  H11A 9397   1.447   1.725   7.511 -0.8874  0.3995 -1.7959
   94CHL1  H11B 9398   1.394   1.560   7.479 -0.7660  1.7912 -2.1975
   94CHL1    C9 9399   1.237   1.694   7.431  0.5550 -0.0704 -0.4380
   94CHL1    H9 9400   1.173   1.605   7.444  2.0118 -0.8346  2.4385
   94CHL1   C10 9401   1.269   1.714   7.280 -0.7716 -0.0371 -0.2810
   94CHL1   C19 9402   1.392   1.814   7.265 -0.0695  0.7249 -0.5819
   94CHL1  H19A 9403   1.353   1.908   7.309  0.5207  0.3099  0.8738
   94CHL1  H19B 9404   1.485   1.782   7.316 -1.3221  2.1717  2.9043
   94CHL1  H19C 9405   1.425   1.830   7.160 -0.8218 -1.0326 -1.1214
   94CHL1    C1 9406   1.301   1.573   7.213  0.3468  0.1613  0.0443
   94CHL1   H1A 9407   1.379   1.517   7.269  1.3497  1.8907  0.4678
   94CHL1   H1B 9408   1.208   1.514   7.230  1.5233 -1.3389  1.6782
   94CHL1    C2 9409   1.323   1.574   7.064 -0.6526 -0.0476  0.5781
   94CHL1   H2A 9410   1.341   1.469   7.033  0.2887  0.2807 -0.0071
   94CHL1   H2B 9411   1.409   1.640   7.040 -0.1225 -0.1038  2.1652
   94CHL1   C20 9412   1.265   1.763   7.995  0.1589  0.6242 -0.3855
   94CHL1   H20 9413   1.315   1.863   7.993  0.2827  0.5804  0.4433
   94CHL1   C21 9414   1.381   1.665   8.006 -0.6320 -0.0283 -0.8813
   94CHL1  H21A 9415   1.436   1.691   7.912 -0.8576  0.5743 -0.8486
   94CHL1  H21B 9416   1.360   1.556   8.008  2.7546 -0.8226  1.8774
   94CHL1  H21C 9417   1.448   1.691   8.091 -3.3330  1.9061  0.8140
   94CHL1   C22 9418   1.170   1.755   8.122  0.7903  0.5071 -0.3822
   94CHL1  H22A 9419   1.102   1.843   8.116  1.4460  1.2678  2.1627
   94CHL1  H22B 9420   1.120   1.658   8.104 -0.1093  1.2255 -2.0388
   94CHL1   C23 9421   1.249   1.750   8.255 -0.2721 -0.4680 -0.3768
   94CHL1  H23A 9422   1.320   1.664   8.261  1.2109  0.7655  0.4542
   94CHL1  H23B 9423   1.312   1.841   8.261  2.4942 -2.2914  0.5077
   94CHL1   C24 9424   1.164   1.753   8.385 -0.0966 -0.6187 -0.5225
   94CHL1  H24A 9425   1.091   1.835   8.372 -0.7066 -0.6198  2.3639
   94CHL1  H24B 9426   1.108   1.657   8.395 -1.4706  0.2480  0.4462
   94CHL1   C25 9427   1.240   1.791   8.509 -0.3290  0.1160 -0.4477
   94CHL1   H25 9428   1.308   1.876   8.486  0.6081 -0.5631 -0.2189
   94CHL1   C26 9429   1.151   1.822   8.628 -0.2345 -0.3951 -0.6092
   94CHL1  H26A 9430   1.214   1.854   8.714  0.3780  0.8570 -1.4913
   94CHL1  H26B 9431   1.087   1.906   8.593  3.4591  0.9551 -5.2465
   94CHL1  H26C 9432   1.093   1.731   8.655 -2.8536  1.4115  0.2321
   94CHL1   C27 9433   1.333   1.672   8.540  0.8971 -0.0930  0.1084
   94CHL1  H27A 9434   1.372   1.676   8.644 -1.3818 -0.3976  1.0321
   94CHL1  H27B 9435   1.286   1.572   8.526  0.0370 -0.1139  2.6559
   94CHL1  H27C 9436   1.427   1.680   8.481  1.8130  2.0343  1.7093
   95CHL1    C3 9437   0.997   5.941   6.861  0.1418 -0.9068 -0.2918
   95CHL1    H3 9438   1.086   6.007   6.860 -1.1473  0.9027 -1.4919
   95CHL1    O3 9439   0.974   5.925   6.726 -0.1681  0.0806 -0.0451
   95CHL1   H3' 9440   0.912   5.852   6.716  0.6452 -0.7020  0.5394
   95CHL1    C4 9441   1.049   5.810   6.923  0.2699  0.3146  0.8613
   95CHL1   H4A 9442   0.975   5.733   6.893 -0.5758  1.9022 -1.4531
   95CHL1   H4B 9443   1.142   5.792   6.865 -0.7658  1.2255 -1.2094
   95CHL1    C5 9444   1.055   5.807   7.070  0.0673 -0.4644  0.2396
   95CHL1    C6 9445   1.163   5.771   7.134  0.3085 -0.8722  0.2590
   95CHL1    H6 9446   1.251   5.746   7.073 -0.2998  0.8845 -1.4483
   95CHL1    C7 9447   1.173   5.745   7.280  0.4485 -0.2714 -0.3094
   95CHL1   H7A 9448   1.214   5.643   7.298 -1.9025 -0.9980  1.5367
   95CHL1   H7B 9449   1.241   5.822   7.322 -0.8258  1.2067 -0.8817
   95CHL1    C8 9450   1.030   5.753   7.349  0.8697 -0.0592 -0.3669
   95CHL1    H8 9451   0.983   5.652   7.339  2.4626 -0.9893  1.0573
   95CHL1   C14 9452   1.047   5.795   7.494  0.1886 -0.8690  0.3473
   95CHL1   H14 9453   1.073   5.903   7.499 -1.2385 -0.4828 -0.1602
   95CHL1   C15 9454   1.155   5.708   7.565  0.5300 -0.2121 -0.1720
   95CHL1  H15A 9455   1.141   5.598   7.558  0.6583 -0.1593 -1.4545
   95CHL1  H15B 9456   1.260   5.732   7.539  0.2806  2.5753  1.0792
   95CHL1   C16 9457   1.129   5.749   7.716 -0.0255  0.3681  0.4114
   95CHL1  H16A 9458   1.131   5.659   7.781  0.3499  0.2860  0.2885
   95CHL1  H16B 9459   1.202   5.829   7.741  0.8423  0.3375 -1.8037
   95CHL1   C17 9460   0.986   5.818   7.721  1.0413 -0.6054 -0.2846
   95CHL1   H17 9461   0.989   5.929   7.726 -0.0860 -0.6163  2.7372
   95CHL1   C13 9462   0.923   5.796   7.578  0.1825  0.5593 -0.3816
   95CHL1   C18 9463   0.858   5.646   7.577 -0.2545 -0.4842 -0.0117
   95CHL1  H18A 9464   0.834   5.624   7.471  0.9639 -1.2085 -0.1527
   95CHL1  H18B 9465   0.927   5.568   7.616 -1.6508 -2.1011 -0.6093
   95CHL1  H18C 9466   0.767   5.648   7.642  1.1495 -2.0271  2.1110
   95CHL1   C12 9467   0.821   5.901   7.524 -0.2080 -0.0964 -1.1176
   95CHL1  H12A 9468   0.725   5.881   7.575  1.1464  1.1260  2.1422
   95CHL1  H12B 9469   0.854   6.005   7.548 -1.9725  0.2067  0.2041
   95CHL1   C11 9470   0.803   5.887   7.373  0.2191 -0.3523 -0.4105
   95CHL1  H11A 9471   0.726   5.810   7.356 -1.3661  1.2911 -0.9936
   95CHL1  H11B 9472   0.743   5.965   7.322  0.3419 -0.0446 -0.0905
   95CHL1    C9 9473   0.941   5.864   7.291  0.2606  0.0297 -0.0790
   95CHL1    H9 9474   0.998   5.959   7.301  1.5031 -0.6542 -0.5071
   95CHL1   C10 9475   0.919   5.851   7.137  0.0021  0.7207  0.4202
   95CHL1   C19 9476   0.815   5.746   7.104 -0.9974 -0.5289  0.0352
   95CHL1  H19A 9477   0.833   5.642   7.139 -0.9758 -1.3280 -2.2054
   95CHL1  H19B 9478   0.715   5.780   7.138 -1.1206  0.4380 -1.2429
   95CHL1  H19C 9479   0.795   5.732   6.996 -1.7675  1.9120 -0.1973
   95CHL1    C1 9480   0.878   5.991   7.078 -0.3991 -0.1333 -0.2338
   95CHL1   H1A 9481   0.776   6.019   7.113  0.0598 -0.3976  1.3603
   95CHL1   H1B 9482   0.961   6.057   7.112  0.5297 -1.7103  0.6540
   95CHL1    C2 9483   0.879   6.007   6.924 -0.3803 -0.1196 -0.4449
   95CHL1   H2A 9484   0.883   6.112   6.890 -1.0143 -0.2041 -0.8014
   95CHL1   H2B 9485   0.782   5.971   6.884 -0.5725  0.3471 -0.4031
   95CHL1   C20 9486   0.902   5.776   7.839  0.2952  0.6500  0.0776
   95CHL1   H20 9487   0.864   5.672   7.842 -2.2338  1.2404 -3.8443
   95CHL1   C21 9488   0.771   5.867   7.839 -1.0473  0.5507  0.0850
   95CHL1  H21A 9489   0.796   5.974   7.825 -1.5378  0.4567 -1.8399
   95CHL1  H21B 9490   0.738   5.854   7.944  1.8610 -1.2503  0.8844
   95CHL1  H21C 9491   0.697   5.826   7.767 -1.0563 -0.1541  0.4925
   95CHL1   C22 9492   0.971   5.800   7.981  0.1935 -0.4694  0.4949
   95CHL1  H22A 9493   1.080   5.776   7.981  0.2024 -0.4490 -0.1845
   95CHL1  H22B 9494   0.964   5.909   8.000 -2.4078 -0.8258  2.0233
   95CHL1   C23 9495   0.916   5.717   8.100  0.1853 -1.0614  0.5058
   95CHL1  H23A 9496   0.807   5.715   8.080  0.5666  0.6447 -2.3876
   95CHL1  H23B 9497   0.971   5.621   8.085  1.3334 -0.5782  1.4608
   95CHL1   C24 9498   0.919   5.771   8.242  0.2435  0.2405  0.0428
   95CHL1  H24A 9499   0.856   5.862   8.247  0.7018  0.5513  0.1874
   95CHL1  H24B 9500   0.866   5.706   8.314  0.5437  0.6954  0.6822
   95CHL1   C25 9501   1.053   5.814   8.313 -0.0617 -0.0175 -0.0201
   95CHL1   H25 9502   1.123   5.729   8.325 -0.3387 -0.0254  1.8927
   95CHL1   C26 9503   1.122   5.935   8.246 -0.5174 -0.2241  0.5045
   95CHL1  H26A 9504   1.173   5.903   8.152 -2.1716 -0.0727 -0.4774
   95CHL1  H26B 9505   1.045   6.013   8.230 -0.2990 -0.1837 -0.3936
   95CHL1  H26C 9506   1.199   5.980   8.313 -1.5325  2.3842  0.0284
   95CHL1   C27 9507   1.009   5.843   8.459  0.1081 -0.4495  0.9210
   95CHL1  H27A 9508   0.945   5.769   8.510  2.5538 -1.9215  2.0501
   95CHL1  H27B 9509   1.106   5.864   8.509  0.0160 -1.4125  1.5147
   95CHL1  H27C 9510   0.949   5.937   8.455 -0.9167 -1.0958  0.7135
   96CHL1    C3 9511   6.345   5.007   6.575  0.1809  0.0239 -0.0580
   96CHL1    H3 9512   6.411   5.093   6.598 -0.0961 -0.2938  2.1228
   96CHL1    O3 9513   6.268   5.024   6.456 -0.3892  0.1129  0.3223
   96CHL1   H3' 9514   6.221   4.941   6.444  0.0702 -0.0341 -0.5646
   96CHL1    C4 9515   6.439   4.889   6.566 -0.4389  0.1739  0.0260
   96CHL1   H4A 9516   6.389   4.796   6.533  1.0149 -0.4883 -0.3784
   96CHL1   H4B 9517   6.512   4.915   6.486  0.6461 -2.5232  0.0503
   96CHL1    C5 9518   6.520   4.863   6.692  0.2200 -0.1224 -0.0015
   96CHL1    C6 9519   6.656   4.876   6.694  0.1124  1.0710 -0.1494
   96CHL1    H6 9520   6.710   4.881   6.598 -1.0328  0.0299 -0.8920
   96CHL1    C7 9521   6.742   4.856   6.815 -0.2450 -0.6941  0.0146
   96CHL1   H7A 9522   6.832   4.798   6.787  0.6450 -0.2508  1.8297
   96CHL1   H7B 9523   6.781   4.956   6.841  2.5122 -1.0406 -2.2943
   96CHL1    C8 9524   6.661   4.788   6.926 -0.0340  0.0775 -0.6840
   96CHL1    H8 9525   6.654   4.680   6.903 -1.8977  0.2078 -0.8774
   96CHL1   C14 9526   6.727   4.806   7.059  0.1365 -0.2448  0.6876
   96CHL1   H14 9527   6.726   4.916   7.070  1.7581 -0.1627  0.3996
   96CHL1   C15 9528   6.882   4.778   7.066 -0.0163  0.0175  0.2195
   96CHL1  H15A 9529   6.913   4.677   7.032  0.7088  0.2377  0.2090
   96CHL1  H15B 9530   6.933   4.855   7.004 -0.7498  0.9885  0.7917
   96CHL1   C16 9531   6.910   4.780   7.219  0.7905 -0.0815 -0.4489
   96CHL1  H16A 9532   6.958   4.682   7.241 -0.5161 -1.1642 -2.1382
   96CHL1  H16B 9533   6.981   4.864   7.231  1.1171 -0.1604 -1.6634
   96CHL1   C17 9534   6.770   4.793   7.286 -0.0336 -0.1691 -0.1762
   96CHL1   H17 9535   6.753   4.902   7.297  1.6461  0.0391  0.8182
   96CHL1   C13 9536   6.664   4.748   7.184 -0.3862  1.3215 -0.0694
   96CHL1   C18 9537   6.660   4.596   7.175 -0.2194  1.0156 -0.1915
   96CHL1  H18A 9538   6.587   4.556   7.101 -0.0169 -1.4154  0.8329
   96CHL1  H18B 9539   6.758   4.565   7.132 -1.3497 -1.8711 -0.8832
   96CHL1  H18C 9540   6.643   4.544   7.272  0.0135 -0.2250 -0.8014
   96CHL1   C12 9541   6.533   4.821   7.206  0.3578 -0.2217 -0.4129
   96CHL1  H12A 9542   6.473   4.768   7.281  1.2636 -2.0632 -0.9379
   96CHL1  H12B 9543   6.555   4.926   7.234 -0.2172  0.1370 -1.2491
   96CHL1   C11 9544   6.451   4.812   7.077  0.3307 -0.2173 -0.4910
   96CHL1  H11A 9545   6.428   4.705   7.057 -1.6458  0.3004 -1.1986
   96CHL1  H11B 9546   6.356   4.868   7.085  1.3499  1.4211  0.8090
   96CHL1    C9 9547   6.523   4.856   6.945  0.4253 -0.5306  0.2057
   96CHL1    H9 9548   6.549   4.963   6.959 -0.9189 -0.4614  3.0223
   96CHL1   C10 9549   6.436   4.846   6.820  0.5769  0.8240  1.1819
   96CHL1   C19 9550   6.363   4.710   6.804 -0.2766  0.2795  0.5793
   96CHL1  H19A 9551   6.286   4.686   6.881  0.5476  0.2735  1.4094
   96CHL1  H19B 9552   6.314   4.694   6.705  0.9496  1.5733 -0.2671
   96CHL1  H19C 9553   6.431   4.624   6.820  0.1312  0.1802 -1.3871
   96CHL1    C1 9554   6.333   4.962   6.821 -0.9837  0.2356 -0.2376
   96CHL1   H1A 9555   6.251   4.949   6.895  1.0434  0.0175  2.0850
   96CHL1   H1B 9556   6.389   5.057   6.839  1.3118 -0.9249 -0.9193
   96CHL1    C2 9557   6.251   4.982   6.690 -0.4399 -0.2874  0.1839
   96CHL1   H2A 9558   6.194   5.077   6.698 -0.6490 -0.4217  0.3001
   96CHL1   H2B 9559   6.178   4.899   6.677  0.3773 -1.1919  1.2561
   96CHL1   C20 9560   6.761   4.734   7.430 -0.3721  0.4408 -1.4760
   96CHL1   H20 9561   6.777   4.625   7.418  0.0152  0.3625 -0.4236
   96CHL1   C21 9562   6.623   4.747   7.495  1.1548 -0.2753  0.4140
   96CHL1  H21A 9563   6.533   4.693   7.457 -0.6190  1.6063  1.7653
   96CHL1  H21B 9564   6.598   4.855   7.505 -0.2271 -0.3881 -1.2182
   96CHL1  H21C 9565   6.640   4.704   7.595 -0.6165  1.6944  1.6478
   96CHL1   C22 9566   6.874   4.795   7.524  0.0752  0.5067  0.4692
   96CHL1  H22A 9567   6.972   4.784   7.472 -2.0113  1.1853 -4.0692
   96CHL1  H22B 9568   6.867   4.905   7.537  1.8573  0.8179 -0.7573
   96CHL1   C23 9569   6.870   4.716   7.668  0.1960 -0.5616  0.0266
   96CHL1  H23A 9570   6.788   4.759   7.729  1.1260 -0.6694  1.3954
   96CHL1  H23B 9571   6.861   4.607   7.649 -1.8663 -0.4796  0.3277
   96CHL1   C24 9572   6.994   4.726   7.769  0.7759 -0.6827  0.6944
   96CHL1  H24A 9573   7.084   4.691   7.715  1.9451  0.8488  1.5653
   96CHL1  H24B 9574   7.012   4.836   7.776 -1.5018  0.0992 -2.9865
   96CHL1   C25 9575   6.974   4.656   7.906  0.2847 -0.4639  0.7936
   96CHL1   H25 9576   6.960   4.547   7.886 -0.5061  0.1376 -2.2917
   96CHL1   C26 9577   7.101   4.677   7.995  0.0040 -0.1563  0.9298
   96CHL1  H26A 9578   7.091   4.642   8.100  1.2692 -1.3162  0.6886
   96CHL1  H26B 9579   7.187   4.626   7.947  1.8581  2.4133  1.2667
   96CHL1  H26C 9580   7.116   4.787   8.007 -1.8885  0.2989 -0.4101
   96CHL1   C27 9581   6.855   4.709   7.990 -0.1232  0.6557 -0.3221
   96CHL1  H27A 9582   6.839   4.638   8.074  1.8034  1.2530  0.6143
   96CHL1  H27B 9583   6.886   4.808   8.030  1.1754  0.5978 -1.1198
   96CHL1  H27C 9584   6.763   4.724   7.930  0.2643  0.4475 -0.9788
   97OSM      N 9585   3.670   6.426  11.470 -0.3899  0.2992  0.0343
   97OSM    C15 9586   3.595   6.412  11.340 -0.2252 -0.3692 -0.0152
   97OSM   H15A 9587   3.595   6.309  11.308 -0.4636 -0.9482  1.7172
   97OSM   H15B 9588   3.645   6.464  11.260  1.0972  0.0849  1.0574
   97OSM   H15C 9589   3.500   6.462  11.348 -0.0338 -0.2644  2.5348
   97OSM    C14 9590   3.677   6.572  11.484  0.0419  0.3733 -0.0094
   97OSM   H14A 9591   3.582   6.622  11.498  0.8520  2.3870 -1.1747
   97OSM   H14B 9592   3.725   6.612  11.396 -1.5187  0.5088 -0.8431
   97OSM   H14C 9593   3.738   6.592  11.571  0.0800 -1.8211  0.5174
   97OSM    C13 9594   3.595   6.363  11.583 -0.7081 -0.2166 -0.4906
   97OSM   H13A 9595   3.490   6.384  11.575 -0.5548 -0.0074 -2.4486
   97OSM   H13B 9596   3.647   6.391  11.674  2.7064 -1.6739 -1.8321
   97OSM   H13C 9597   3.604   6.256  11.572 -3.3541 -0.4580 -0.7877
   97OSM    C12 9598   3.804   6.363  11.466 -0.7392 -0.4630 -0.1562
   97OSM   H12A 9599   3.799   6.257  11.446 -0.3257 -0.2944 -1.2194
   97OSM   H12B 9600   3.837   6.362  11.568  0.0763  0.1217 -0.4067
   97OSM    C11 9601   3.903   6.430  11.371 -0.4323  0.5336  0.0713
   97OSM   H11A 9602   3.987   6.365  11.338 -1.2700  0.6405 -2.4526
   97OSM   H11B 9603   3.955   6.522  11.407  0.8474  0.9991 -2.7041
   97OSM      P 9604   3.910   6.555  11.131  0.2156  0.6232 -0.1307
   97OSM    O13 9605   3.825   6.560  11.015 -0.2227  0.4514  0.4868
   97OSM    O14 9606   3.966   6.680  11.183 -0.0481  0.3210  0.0293
   97OSM    O11 9607   4.042   6.468  11.094 -0.2430  0.8814  0.7662
   97OSM    O12 9608   3.842   6.473  11.253 -0.0100  0.2465 -0.1427
   97OSM    C1S 9609   4.032   6.328  11.057  0.3562  0.2844  0.5687
   97OSM    H1S 9610   3.926   6.296  11.046 -0.0620  1.8590 -0.3838
   97OSM    H1T 9611   4.082   6.264  11.133  2.2075 -0.0304 -0.8286
   97OSM     NF 9612   4.072   6.151  10.892  0.4611  1.3744 -0.2116
   97OSM    HNF 9613   4.153   6.093  10.899 -0.7598 -0.3205  0.7252
   97OSM    C2S 9614   4.097   6.290  10.923 -0.8270 -0.3887  0.0378
   97OSM    H2S 9615   4.057   6.353  10.840 -0.6018  1.2938  1.1589
   97OSM    C3S 9616   4.251   6.330  10.938 -0.4273 -0.6142 -0.0318
   97OSM    H3S 9617   4.285   6.277  11.030  0.5377 -2.1580 -1.2293
   97OSM     O3 9618   4.275   6.465  10.969 -0.6969  0.3390  0.0395
   97OSM    HO3 9619   4.192   6.506  10.992 -0.6608 -0.5008  1.8562
   97OSM    C4S 9620   4.340   6.292  10.824 -0.1458 -0.1032 -0.0067
   97OSM    H4S 9621   4.301   6.320  10.724 -1.2363 -1.6708 -0.0658
   97OSM    C5S 9622   4.460   6.232  10.829  0.0802 -0.7050 -0.1218
   97OSM    H5S 9623   4.505   6.212  10.928  1.8787 -0.3767 -0.8362
   97OSM    C6S 9624   4.533   6.197  10.702 -0.1114 -0.1174  0.9396
   97OSM    H6S 9625   4.611   6.121  10.726 -0.1261  0.0070  1.3853
   97OSM    H6T 9626   4.599   6.281  10.671 -1.1775  0.6167  0.6212
   97OSM    C7S 9627   4.447   6.168  10.573  0.1569  0.2807  0.2605
   97OSM    H7S 9628   4.391   6.260  10.547  1.6781  0.8927 -1.0290
   97OSM    H7T 9629   4.367   6.096  10.600  0.6616 -0.0091  1.0213
   97OSM    C8S 9630   4.535   6.104  10.463  0.3737  0.2122  0.3413
   97OSM    H8S 9631   4.577   6.012  10.508 -1.8843 -1.4582 -0.7747
   97OSM    H8T 9632   4.616   6.168  10.423 -0.6957  0.3311 -1.7770
   97OSM    C9S 9633   4.443   6.063  10.341 -0.1877 -0.4102  0.0054
   97OSM    H9S 9634   4.395   6.157  10.309 -2.0111 -0.9259  1.0675
   97OSM    H9T 9635   4.365   5.994  10.380  0.0902 -0.3625  0.6694
   97OSM   C10S 9636   4.519   5.992  10.215  0.7256  0.2446 -0.3554
   97OSM   H10S 9637   4.548   5.893  10.255  2.8279  1.4959  1.4711
   97OSM   H10T 9638   4.618   6.042  10.207 -0.8086  3.4398 -1.0077
   97OSM   C11S 9639   4.434   5.991  10.087  0.1141  0.5053 -0.6012
   97OSM   H11S 9640   4.508   5.947  10.017 -2.3971 -1.2784 -2.3081
   97OSM   H11T 9641   4.413   6.096  10.057 -3.2142  0.5516  1.3479
   97OSM   C12S 9642   4.309   5.911  10.090 -0.4244  1.1939 -0.4376
   97OSM   H12S 9643   4.249   5.953  10.174  0.1415  0.6069  0.2810
   97OSM   H12T 9644   4.330   5.804  10.112 -0.0829  1.3135 -0.1656
   97OSM   C13S 9645   4.230   5.926   9.958  0.2761  0.4632 -0.2718
   97OSM   H13S 9646   4.135   5.870   9.968  0.1525  0.6223 -0.5118
   97OSM   H13T 9647   4.293   5.875   9.882  0.0669 -0.0764 -0.0871
   97OSM   C14S 9648   4.194   6.063   9.892 -0.4369 -0.0646 -0.2534
   97OSM   H14S 9649   4.293   6.109   9.874 -0.2570 -1.1925 -2.5801
   97OSM   H14T 9650   4.134   6.120   9.967  0.1578  1.4569 -0.9033
   97OSM   C15S 9651   4.118   6.046   9.760  0.8519 -0.2063  0.2643
   97OSM   H15S 9652   4.028   5.985   9.783  1.9033 -1.4583  1.1983
   97OSM   H15T 9653   4.176   5.991   9.683  1.6750 -0.3807  0.9989
   97OSM   C16S 9654   4.075   6.181   9.696 -0.8439  0.2228 -0.6052
   97OSM   H16S 9655   4.163   6.224   9.643 -0.6697  0.1583 -0.3710
   97OSM   H16T 9656   4.040   6.246   9.780  0.6245 -1.1766  1.1721
   97OSM   C17S 9657   3.960   6.153   9.599  0.4845 -0.8683  0.2018
   97OSM   H17S 9658   3.873   6.111   9.654  1.1240 -0.5244  1.5207
   97OSM   H17T 9659   3.991   6.091   9.513  1.6340 -1.5332  1.0633
   97OSM   C18S 9660   3.926   6.292   9.547  0.1052 -0.3135 -0.6181
   97OSM   H18S 9661   3.878   6.347   9.631 -0.0839 -1.7827  0.2593
   97OSM   H18T 9662   3.857   6.284   9.460  0.2565  0.9566 -0.8765
   97OSM   H18U 9663   4.016   6.340   9.504  0.9734 -1.6944 -0.4040
   97OSM    C1F 9664   3.953   6.092  10.881  1.1185  0.1016 -0.4780
   97OSM     OF 9665   3.835   6.147  10.898 -0.2832 -0.2234 -0.1109
   97OSM    C2F 9666   3.960   5.953  10.833  0.0723 -0.0867 -1.2050
   97OSM    H2F 9667   3.871   5.896  10.865  0.2774  0.0990 -0.2755
   97OSM    H2G 9668   4.046   5.900  10.879 -2.7501 -2.1702  2.1421
   97OSM    C3F 9669   3.949   5.932  10.677  0.4919  0.5660  0.5062
   97OSM    H3F 9670   3.855   5.978  10.639 -0.7587 -1.8532  0.4757
   97OSM    H3G 9671   3.934   5.823  10.661  0.5457  0.0605  3.4936
   97OSM    C4F 9672   4.067   5.982  10.590 -0.3729 -0.0511 -0.1542
   97OSM    H4F 9673   4.162   5.934  10.622 -0.6718 -0.1833  0.5466
   97OSM    H4G 9674   4.085   6.091  10.596 -1.0719  0.0641 -0.0437
   97OSM    C5F 9675   4.053   5.944  10.444 -0.6266 -0.3628 -0.0407
   97OSM    H5F 9676   4.065   5.833  10.446  2.1885 -0.1405  0.5796
   97OSM    H5G 9677   4.146   5.986  10.400 -0.1323  3.9445  4.2123
   97OSM    C6F 9678   3.934   6.009  10.375 -0.3746  0.3035 -0.5342
   97OSM    H6F 9679   3.916   6.102  10.433  2.1357 -0.0536  0.9585
   97OSM    H6G 9680   3.844   5.946  10.387  1.4631 -2.2393  0.8362
   97OSM    C7F 9681   3.958   6.033  10.226  0.1653  0.1728  0.0120
   97OSM    H7F 9682   3.974   5.939  10.169 -1.0397  1.4404 -2.5312
   97OSM    H7G 9683   4.049   6.096  10.221  0.3526 -0.0719  0.2729
   97OSM    C8F 9684   3.832   6.111  10.171 -0.0625 -0.1053  0.1580
   97OSM    H8F 9685   3.827   6.204  10.231  0.0952 -0.7356  1.1808
   97OSM    H8G 9686   3.737   6.059  10.193  1.4125 -2.7959  0.6986
   97OSM    C9F 9687   3.832   6.144  10.022  0.2284 -0.0981 -0.3443
   97OSM    H9F 9688   3.911   6.096   9.961  0.2560 -0.3150 -0.1377
   97OSM   C10F 9689   3.738   6.213   9.951  0.0560  0.5502  0.3761
   97OSM   H10F 9690   3.756   6.232   9.844  1.6583 -1.6892  0.1609
   97OSM   C11F 9691   3.611   6.278  10.002  0.0883  0.3298  0.4752
   97OSM   H11F 9692   3.632   6.386  10.012 -1.6644  0.6002  1.7761
   97OSM   H11G 9693   3.580   6.240  10.102  2.9187 -0.0007  1.2947
   97OSM   C12F 9694   3.482   6.254   9.912 -0.2169 -0.1410 -0.2884
   97OSM   H12F 9695   3.394   6.285   9.971  1.3024  0.6487  1.6712
   97OSM   H12G 9696   3.463   6.148   9.886 -0.4066 -0.6796  1.9112
   97OSM   C13F 9697   3.481   6.334   9.781  0.5140 -0.3964  0.3730
   97OSM   H13F 9698   3.555   6.417   9.789  1.0055 -0.9589  2.0722
   97OSM   H13G 9699   3.374   6.359   9.768  0.2352 -1.1758  1.1351
   97OSM   C14F 9700   3.521   6.257   9.662 -0.1562  0.4329  0.6089
   97OSM   H14F 9701   3.457   6.171   9.635  0.3967  0.3106 -0.3475
   97OSM   H14G 9702   3.627   6.224   9.666  0.8846  3.2067 -1.1184
   97OSM   C15F 9703   3.527   6.342   9.534  0.3974 -0.1908  0.6091
   97OSM   H15F 9704   3.615   6.409   9.543  1.1134 -1.3913  3.8713
   97OSM   H15G 9705   3.440   6.409   9.524 -0.7261 -1.6362  0.3097
   97OSM   C16F 9706   3.545   6.269   9.402 -0.2038 -0.3026  0.5525
   97OSM   H16F 9707   3.449   6.216   9.388  0.0786 -1.1820  1.8004
   97OSM   H16G 9708   3.639   6.211   9.398  1.3530  2.1278 -1.2018
   97OSM   C17F 9709   3.551   6.376   9.288 -0.5737  0.7103  0.9062
   97OSM   H17F 9710   3.632   6.450   9.310 -0.0795  0.9198 -1.2841
   97OSM   H17G 9711   3.458   6.436   9.288  0.0097  1.6509  0.6631
   97OSM   C18F 9712   3.574   6.317   9.145  0.1282  0.2688  0.7261
   97OSM   H18F 9713   3.676   6.281   9.120  0.3179  2.1517 -1.5380
   97OSM   H18G 9714   3.545   6.397   9.074  0.9400 -0.9872 -1.0918
   97OSM   H18H 9715   3.501   6.234   9.130 -0.3020  0.5550  1.1926
   98OSM      N 9716   2.833   6.351  11.361  0.1004 -0.1799 -0.4472
   98OSM    C15 9717   2.982   6.364  11.373 -0.0874 -0.3421 -0.0972
   98OSM   H15A 9718   3.025   6.405  11.283  1.5225 -0.8612  0.4012
   98OSM   H15B 9719   3.035   6.272  11.396 -0.8446 -0.5894  0.7347
   98OSM   H15C 9720   3.001   6.421  11.463 -1.7028  0.7694 -0.4156
   98OSM    C14 9721   2.771   6.266  11.474 -0.1828 -0.3710  0.1276
   98OSM   H14A 9722   2.817   6.170  11.457  0.2466  0.0702 -1.2987
   98OSM   H14B 9723   2.665   6.248  11.460  0.5921 -4.0490 -2.2420
   98OSM   H14C 9724   2.804   6.307  11.569 -0.9578 -2.0108  1.1581
   98OSM    C13 9725   2.782   6.490  11.366 -0.3944  0.2735 -0.1538
   98OSM   H13A 9726   2.675   6.492  11.347 -0.0716 -1.2338 -2.6131
   98OSM   H13B 9727   2.830   6.560  11.299 -0.7210  0.6514  0.0015
   98OSM   H13C 9728   2.809   6.531  11.462  0.5391 -0.6302 -0.0170
   98OSM    C12 9729   2.798   6.278  11.232  0.3901  0.1183  0.2443
   98OSM   H12A 9730   2.693   6.252  11.241  0.3434 -0.9953 -2.4414
   98OSM   H12B 9731   2.859   6.190  11.242 -1.2507 -0.7745  4.5409
   98OSM    C11 9732   2.811   6.341  11.095  0.3615  0.4986  0.5688
   98OSM   H11A 9733   2.749   6.433  11.099 -0.2384  0.1222  0.1772
   98OSM   H11B 9734   2.772   6.277  11.012  0.7975 -0.6145  1.1996
   98OSM      P 9735   3.038   6.281  10.993 -0.2839 -0.0734  0.1584
   98OSM    O13 9736   3.179   6.330  11.003 -0.0054  1.2697  0.0771
   98OSM    O14 9737   3.019   6.138  11.027  0.1736  0.2424  0.3350
   98OSM    O11 9738   2.995   6.302  10.848 -0.3486 -0.1193  0.6883
   98OSM    O12 9739   2.947   6.377  11.084  0.1852 -0.4386  0.5634
   98OSM    C1S 9740   2.978   6.424  10.783 -0.4814  0.0351  0.3832
   98OSM    H1S 9741   3.053   6.502  10.806 -2.0055  1.5727  0.3425
   98OSM    H1T 9742   2.876   6.467  10.789 -1.5063 -1.3009 -3.7602
   98OSM     NF 9743   2.982   6.539  10.560  0.0184  0.5902 -0.5194
   98OSM    HNF 9744   2.899   6.551  10.506 -0.3154 -1.1827 -0.4547
   98OSM    C2S 9745   2.992   6.411  10.625  0.7775  0.1028 -0.4381
   98OSM    H2S 9746   3.091   6.371  10.596  0.9480  0.7832 -0.8169
   98OSM    C3S 9747   2.897   6.304  10.569  0.9148  0.3757 -0.2194
   98OSM    H3S 9748   2.791   6.336  10.580  1.2197  1.1907  0.4810
   98OSM     O3 9749   2.916   6.169  10.616 -0.1244 -0.0252  0.1191
   98OSM    HO3 9750   2.988   6.178  10.679  1.5678 -0.2852 -1.6737
   98OSM    C4S 9751   2.912   6.287  10.416 -0.0982  0.2480  0.5421
   98OSM    H4S 9752   3.011   6.252  10.383  0.1904  1.2773  0.2652
   98OSM    C5S 9753   2.810   6.301  10.318  0.2781 -0.0567  0.3863
   98OSM    H5S 9754   2.707   6.328  10.346  0.7678 -0.2747  2.6130
   98OSM    C6S 9755   2.832   6.279  10.169  0.0797  0.0073 -0.0834
   98OSM    H6S 9756   2.734   6.279  10.117 -0.1851 -4.4419  0.0105
   98OSM    H6T 9757   2.882   6.180  10.168  1.0772  0.4923 -1.3605
   98OSM    C7S 9758   2.941   6.364  10.112 -0.1287 -0.6008  1.3212
   98OSM    H7S 9759   3.035   6.350  10.168  1.6105 -1.2290 -1.5578
   98OSM    H7T 9760   2.920   6.473  10.117  1.0007 -0.3680  1.1701
   98OSM    C8S 9761   2.969   6.329   9.967  0.0109 -0.3815  0.4663
   98OSM    H8S 9762   2.870   6.336   9.916 -0.6833  2.9990  2.0080
   98OSM    H8T 9763   3.018   6.229   9.963 -3.0319 -1.9623 -0.5741
   98OSM    C9S 9764   3.076   6.424   9.912 -0.4450  0.2295 -0.2999
   98OSM    H9S 9765   3.171   6.418   9.970 -1.4098 -0.1636  1.3016
   98OSM    H9T 9766   3.047   6.530   9.934 -1.6252 -0.6465  3.0312
   98OSM   C10S 9767   3.094   6.413   9.763  0.1153  0.0052  0.0622
   98OSM   H10S 9768   3.127   6.312   9.729 -1.1756 -0.5114  0.3107
   98OSM   H10T 9769   3.167   6.490   9.731  0.2485 -0.1443  0.0059
   98OSM   C11S 9770   2.970   6.437   9.679  0.1868 -0.1848  0.6218
   98OSM   H11S 9771   2.898   6.509   9.722 -1.5055 -0.6269 -1.2847
   98OSM   H11T 9772   2.916   6.341   9.661 -0.7576  0.6574 -1.4777
   98OSM   C12S 9773   3.004   6.487   9.535 -0.0059 -0.6396  0.0514
   98OSM   H12S 9774   3.048   6.589   9.549 -0.3583 -0.5337  0.3891
   98OSM   H12T 9775   2.909   6.492   9.478 -0.4570 -2.1863  0.6338
   98OSM   C13S 9776   3.108   6.392   9.460 -0.3369  0.1046 -0.5142
   98OSM   H13S 9777   3.076   6.287   9.478 -0.8386  0.7954  3.7848
   98OSM   H13T 9778   3.207   6.396   9.509 -0.4050 -2.3617 -0.0567
   98OSM   C14S 9779   3.126   6.424   9.309  0.2986 -0.0583 -0.3080
   98OSM   H14S 9780   3.205   6.362   9.263  1.0694  1.8646 -1.7367
   98OSM   H14T 9781   3.159   6.528   9.285 -1.0014  0.1009 -1.5758
   98OSM   C15S 9782   3.000   6.407   9.221 -0.1826 -0.7566 -0.3357
   98OSM   H15S 9783   2.917   6.469   9.263  1.1071 -0.5135  2.0206
   98OSM   H15T 9784   2.987   6.300   9.248  1.1899 -0.8857 -0.1411
   98OSM   C16S 9785   3.016   6.410   9.063  0.5234 -0.6746  0.0046
   98OSM   H16S 9786   3.033   6.514   9.028 -0.4806 -0.1056  1.1137
   98OSM   H16T 9787   2.918   6.382   9.018 -1.2899  2.5892  1.5301
   98OSM   C17S 9788   3.127   6.317   9.002  0.9229 -0.7792 -0.2708
   98OSM   H17S 9789   3.096   6.216   9.035 -1.7918 -0.2548 -0.9711
   98OSM   H17T 9790   3.222   6.357   9.044  0.3160  1.7632 -1.1277
   98OSM   C18S 9791   3.135   6.320   8.853  0.3016  0.8336 -0.1277
   98OSM   H18S 9792   3.198   6.236   8.816 -0.7971  0.0059 -0.1855
   98OSM   H18T 9793   3.182   6.413   8.816 -0.2098  0.1365 -2.7254
   98OSM   H18U 9794   3.037   6.306   8.802  1.1121  1.4879 -1.9218
   98OSM    C1F 9795   3.073   6.635  10.574 -0.0245  0.3177  0.7554
   98OSM     OF 9796   3.182   6.619  10.632  0.5604  0.3619  0.3341
   98OSM    C2F 9797   3.034   6.770  10.525  0.5488  0.8286  0.0618
   98OSM    H2F 9798   3.020   6.830  10.618  3.5799 -0.3254  1.3769
   98OSM    H2G 9799   2.934   6.768  10.476  0.2965  0.0514  0.6019
   98OSM    C3F 9800   3.132   6.835  10.435  0.0439 -0.2653 -0.5738
   98OSM    H3F 9801   3.237   6.829  10.470 -0.6725  1.3007  2.2423
   98OSM    H3G 9802   3.114   6.945  10.432  3.9095  0.4755 -0.8018
   98OSM    C4F 9803   3.124   6.775  10.292 -0.1186  0.3066 -0.5448
   98OSM    H4F 9804   3.023   6.803  10.255 -0.2534  1.8472  0.8820
   98OSM    H4G 9805   3.140   6.665  10.292  2.5142  0.6240 -0.6533
   98OSM    C5F 9806   3.213   6.853  10.191 -0.1627 -0.1055  0.3219
   98OSM    H5F 9807   3.319   6.831  10.216 -0.5337 -2.0953  0.3401
   98OSM    H5G 9808   3.186   6.961  10.193  0.0143  0.0047 -1.6119
   98OSM    C6F 9809   3.176   6.818  10.044  0.2226 -0.5925 -0.0818
   98OSM    H6F 9810   3.066   6.826  10.055  0.3951  1.5201  0.6111
   98OSM    H6G 9811   3.195   6.711  10.023 -1.1447 -0.3370 -3.3225
   98OSM    C7F 9812   3.248   6.904   9.930 -0.5283 -1.1352 -0.4551
   98OSM    H7F 9813   3.354   6.908   9.963 -0.7757 -0.6553  0.3009
   98OSM    H7G 9814   3.200   7.004   9.938 -0.5832 -1.1769 -0.2604
   98OSM    C8F 9815   3.243   6.853   9.790  0.3850 -0.2780  1.1881
   98OSM    H8F 9816   3.268   6.930   9.714 -0.1836 -1.6144 -0.4088
   98OSM    H8G 9817   3.140   6.820   9.763  0.2519  0.3071  0.9705
   98OSM    C9F 9818   3.330   6.733   9.775 -0.9624  0.4946  0.3440
   98OSM    H9F 9819   3.360   6.686   9.870 -0.6631  0.0082  0.0109
   98OSM   C10F 9820   3.371   6.686   9.651 -0.7370  0.2972 -0.9470
   98OSM   H10F 9821   3.442   6.602   9.653 -0.3641  0.6057  1.1242
   98OSM   C11F 9822   3.352   6.741   9.514 -0.5316 -0.3158  0.7921
   98OSM   H11F 9823   3.374   6.849   9.525 -1.5495  0.1207 -1.0163
   98OSM   H11G 9824   3.245   6.752   9.488 -0.3226 -0.9602 -0.4114
   98OSM   C12F 9825   3.415   6.673   9.390 -0.5170 -0.6581 -0.4113
   98OSM   H12F 9826   3.344   6.614   9.328  0.1936  0.3530 -2.2891
   98OSM   H12G 9827   3.497   6.608   9.425 -2.2519 -1.8340  1.6593
   98OSM   C13F 9828   3.478   6.780   9.297  0.8649  0.3046  0.2099
   98OSM   H13F 9829   3.562   6.836   9.343 -0.0664  4.7332 -2.8220
   98OSM   H13G 9830   3.394   6.847   9.267  0.4957 -1.6264 -3.6135
   98OSM   C14F 9831   3.547   6.717   9.179 -0.5514 -0.1160 -0.7624
   98OSM   H14F 9832   3.484   6.643   9.125 -0.8253 -0.7933  0.4506
   98OSM   H14G 9833   3.637   6.655   9.201 -0.8954 -0.8904 -1.4704
   98OSM   C15F 9834   3.604   6.815   9.072  0.2738 -0.3201  0.3062
   98OSM   H15F 9835   3.675   6.759   9.007 -0.2215  0.2544 -0.7665
   98OSM   H15G 9836   3.655   6.901   9.121 -1.7079  0.4616  1.1378
   98OSM   C16F 9837   3.504   6.880   8.971  0.5153  0.5551 -0.4753
   98OSM   H16F 9838   3.558   6.925   8.885 -1.0917  1.8406 -0.8631
   98OSM   H16G 9839   3.443   6.949   9.033 -0.0281 -0.8066  0.5575
   98OSM   C17F 9840   3.404   6.780   8.920 -0.1890 -0.0289  0.1721
   98OSM   H17F 9841   3.335   6.835   8.852  1.5360  1.4327 -0.4636
   98OSM   H17G 9842   3.336   6.734   8.995 -1.7527  0.1186 -1.0908
   98OSM   C18F 9843   3.467   6.664   8.836  0.9109  0.7365  0.2444
   98OSM   H18F 9844   3.396   6.594   8.786  0.7308 -0.0710  1.5596
   98OSM   H18G 9845   3.522   6.590   8.899 -0.6291 -1.5377 -0.9135
   98OSM   H18H 9846   3.537   6.712   8.765  1.5583 -0.8561 -0.2339
   99OSM      N 9847   5.252   0.397  11.301  0.5264 -0.1990  0.4612
   99OSM    C15 9848   5.390   0.447  11.299  0.4983  0.1357  0.0126
   99OSM   H15A 9849   5.414   0.477  11.400 -0.3723 -1.8703  0.8742
   99OSM   H15B 9850   5.401   0.520  11.221 -0.9127 -1.0979 -1.4089
   99OSM   H15C 9851   5.455   0.367  11.266 -2.0719 -2.3899  0.6238
   99OSM    C14 9852   5.241   0.287  11.395 -0.6430  0.9678 -0.8237
   99OSM   H14A 9853   5.246   0.320  11.498  0.1118 -0.2410 -0.4588
   99OSM   H14B 9854   5.316   0.212  11.375 -0.6885  0.3454  1.1618
   99OSM   H14C 9855   5.140   0.251  11.379 -0.2757  0.0824 -1.1838
   99OSM    C13 9856   5.163   0.511  11.347 -0.1006  0.5684  0.0561
   99OSM   H13A 9857   5.204   0.541  11.442 -2.2575  0.5535  1.0364
   99OSM   H13B 9858   5.062   0.475  11.345  0.5927 -1.5889  0.9232
   99OSM   H13C 9859   5.159   0.594  11.277  0.1883  0.3344 -0.2433
   99OSM    C12 9860   5.206   0.341  11.171  0.3293 -0.1696 -0.5260
   99OSM   H12A 9861   5.103   0.313  11.186 -0.2255  0.9313 -2.0569
   99OSM   H12B 9862   5.250   0.244  11.151 -1.1784 -0.8252 -0.8096
   99OSM    C11 9863   5.214   0.432  11.047  0.1826 -0.5248 -0.8301
   99OSM   H11A 9864   5.151   0.522  11.065  0.9799 -0.3721  1.4105
   99OSM   H11B 9865   5.166   0.381  10.960 -0.0100  0.5032 -1.3460
   99OSM      P 9866   5.449   0.379  10.949 -0.1235 -0.0655  0.0445
   99OSM    O13 9867   5.584   0.426  10.985 -0.2942 -0.6040 -0.0191
   99OSM    O14 9868   5.413   0.239  10.984 -0.0744  0.0771  0.4530
   99OSM    O11 9869   5.424   0.397  10.802 -0.1183 -0.0001  0.3739
   99OSM    O12 9870   5.352   0.473  11.025  0.6656 -0.5276 -0.1807
   99OSM    C1S 9871   5.316   0.459  10.735  0.7867  0.6350  0.0162
   99OSM    H1S 9872   5.309   0.565  10.770  4.4225  0.9360  0.2231
   99OSM    H1T 9873   5.219   0.407  10.750  0.1174  1.2931 -1.8238
   99OSM     NF 9874   5.203   0.513  10.521 -0.1514  0.2838  0.2695
   99OSM    HNF 9875   5.146   0.440  10.487  1.4462 -0.1444 -1.6949
   99OSM    C2S 9876   5.334   0.470  10.581  0.2692  0.1817  0.4871
   99OSM    H2S 9877   5.410   0.548  10.560 -0.4652  0.7148 -0.2774
   99OSM    C3S 9878   5.391   0.336  10.524 -0.5830  0.4483 -0.0854
   99OSM    H3S 9879   5.325   0.250  10.545  0.3482 -0.1901  0.3058
   99OSM     O3 9880   5.517   0.297  10.576 -0.3539 -0.1761 -0.5087
   99OSM    HO3 9881   5.524   0.365  10.643  1.3279  0.2533 -1.0846
   99OSM    C4S 9882   5.403   0.344  10.365 -0.0999 -0.1913 -0.7915
   99OSM    H4S 9883   5.483   0.406  10.322  0.2824  1.7298  2.3456
   99OSM    C5S 9884   5.321   0.284  10.285 -0.0316 -0.6441 -0.5813
   99OSM    H5S 9885   5.239   0.226  10.330 -1.5977  1.9049  0.0810
   99OSM    C6S 9886   5.308   0.291  10.140  0.0792 -0.0978  0.1619
   99OSM    H6S 9887   5.348   0.199  10.093  1.3825 -0.0740  1.1668
   99OSM    H6T 9888   5.371   0.376  10.105  0.9056 -0.5766  0.4765
   99OSM    C7S 9889   5.171   0.308  10.075  0.2398  0.1258  0.6748
   99OSM    H7S 9890   5.111   0.395  10.108  0.2961  0.7445 -0.7663
   99OSM    H7T 9891   5.113   0.219  10.106  0.3277  0.4211  1.7008
   99OSM    C8S 9892   5.193   0.313   9.918 -0.0394  0.1331 -0.5394
   99OSM    H8S 9893   5.249   0.220   9.896 -2.2606 -1.5778  0.4905
   99OSM    H8T 9894   5.261   0.400   9.906 -0.3498  0.7890  1.8736
   99OSM    C9S 9895   5.066   0.318   9.844  0.2580 -0.1249  0.0979
   99OSM    H9S 9896   5.066   0.400   9.769  2.2742 -1.0248 -0.9649
   99OSM    H9T 9897   4.983   0.342   9.914  0.3275  0.2616  0.0494
   99OSM   C10S 9898   5.027   0.183   9.776  0.4105 -0.1419 -0.3133
   99OSM   H10S 9899   4.922   0.197   9.744 -0.3839 -0.9873  1.7488
   99OSM   H10T 9900   5.024   0.091   9.839  1.9261 -1.1709 -1.6590
   99OSM   C11S 9901   5.109   0.155   9.649  0.2479  0.7146  0.4727
   99OSM   H11S 9902   5.065   0.067   9.596  2.0031 -0.7043  1.2641
   99OSM   H11T 9903   5.213   0.126   9.676  0.8498  2.8102  0.5938
   99OSM   C12S 9904   5.114   0.271   9.545 -0.8364  0.2528 -0.1059
   99OSM   H12S 9905   5.009   0.301   9.526 -0.4652  1.1443 -0.8060
   99OSM   H12T 9906   5.162   0.362   9.588 -0.9115  1.4568 -2.4067
   99OSM   C13S 9907   5.205   0.233   9.422  0.4297  0.2582  0.4568
   99OSM   H13S 9908   5.155   0.143   9.380 -2.1799  1.5428  0.6209
   99OSM   H13T 9909   5.306   0.196   9.452  1.4546  0.5962 -2.2877
   99OSM   C14S 9910   5.195   0.337   9.311  0.1871 -0.2309 -0.1660
   99OSM   H14S 9911   5.207   0.434   9.363  2.1191 -0.5771  0.1135
   99OSM   H14T 9912   5.090   0.330   9.276 -0.2167  1.6488  0.5518
   99OSM   C15S 9913   5.290   0.307   9.194 -0.5688 -0.5238 -0.0864
   99OSM   H15S 9914   5.395   0.303   9.229 -0.6703 -2.2551  0.1156
   99OSM   H15T 9915   5.280   0.391   9.122 -2.9139  0.2043  1.0054
   99OSM   C16S 9916   5.254   0.184   9.110 -0.8075  0.1199  1.1288
   99OSM   H16S 9917   5.151   0.186   9.069 -0.6546  0.3059  0.7508
   99OSM   H16T 9918   5.273   0.089   9.164  0.9540  1.6999  3.5126
   99OSM   C17S 9919   5.349   0.183   8.984  0.4483 -0.6513  0.9132
   99OSM   H17S 9920   5.453   0.176   9.022  0.6994 -1.6908  0.0752
   99OSM   H17T 9921   5.332   0.282   8.934  1.9930 -0.5564  0.5460
   99OSM   C18S 9922   5.327   0.063   8.897  0.4313 -0.0267  0.5676
   99OSM   H18S 9923   5.394   0.071   8.809  0.4939  0.8225  0.6781
   99OSM   H18T 9924   5.222   0.065   8.859  0.7274 -1.6906 -0.4215
   99OSM   H18U 9925   5.351  -0.023   8.962  1.4384 -0.5470 -0.4450
   99OSM    C1F 9926   5.148   0.630  10.534 -0.7744 -0.4250  0.0238
   99OSM     OF 9927   5.209   0.725  10.582  0.1241 -0.0772 -0.4168
   99OSM    C2F 9928   5.000   0.641  10.500 -0.3149 -0.0782  0.4332
   99OSM    H2F 9929   4.945   0.644  10.596  0.6529  0.5976  0.9795
   99OSM    H2G 9930   4.961   0.551  10.448 -0.0206  0.2551 -0.3844
   99OSM    C3F 9931   4.969   0.761  10.411  0.2465  0.4390  0.3208
   99OSM    H3F 9932   4.863   0.752  10.377 -0.4189  1.4817  1.9472
   99OSM    H3G 9933   4.957   0.847  10.481  0.2986 -1.1191  2.3289
   99OSM    C4F 9934   5.057   0.763  10.293 -0.4917  0.0268  0.3808
   99OSM    H4F 9935   5.090   0.661  10.266  0.5548  0.7120 -1.0812
   99OSM    H4G 9936   5.147   0.818  10.328 -1.3959  1.6457  0.2827
   99OSM    C5F 9937   4.987   0.824  10.167 -0.2905  0.1489 -0.0988
   99OSM    H5F 9938   4.944   0.925  10.185 -0.0235  0.0058  1.5451
   99OSM    H5G 9939   4.908   0.753  10.132  1.3463 -1.1155 -1.4152
   99OSM    C6F 9940   5.087   0.844  10.054 -0.7072  0.3328  0.7278
   99OSM    H6F 9941   5.191   0.867  10.087  1.2223 -4.3925 -1.1849
   99OSM    H6G 9942   5.046   0.937  10.009 -1.1171 -0.2386 -0.1161
   99OSM    C7F 9943   5.094   0.733   9.948 -0.2687 -0.3253 -1.5326
   99OSM    H7F 9944   4.992   0.707   9.913 -0.1503  0.1654 -2.2795
   99OSM    H7G 9945   5.141   0.637   9.977  1.4174  0.4783 -1.4404
   99OSM    C8F 9946   5.173   0.774   9.812 -0.3402  0.2672 -0.4095
   99OSM    H8F 9947   5.269   0.815   9.849  0.4392 -1.5100 -0.3576
   99OSM    H8G 9948   5.112   0.854   9.765  0.5729  0.2807 -1.6216
   99OSM    C9F 9949   5.220   0.662   9.720  0.5710 -0.1330  0.1645
   99OSM    H9F 9950   5.252   0.568   9.768  1.5512 -0.0948 -0.3952
   99OSM   C10F 9951   5.233   0.668   9.582  0.4739 -0.4650 -0.3369
   99OSM   H10F 9952   5.268   0.584   9.521 -2.3309 -0.1783 -2.5830
   99OSM   C11F 9953   5.189   0.785   9.490  0.1241  0.4600 -0.1212
   99OSM   H11F 9954   5.269   0.798   9.415  0.9838 -1.5718  0.3777
   99OSM   H11G 9955   5.187   0.874   9.557  3.4119  0.0096  0.7033
   99OSM   C12F 9956   5.064   0.749   9.414 -0.3126  0.1276  0.2848
   99OSM   H12F 9957   4.988   0.714   9.487  1.0634 -1.4556  1.0340
   99OSM   H12G 9958   5.086   0.655   9.358  0.9612  0.0497  0.8738
   99OSM   C13F 9959   5.018   0.855   9.314 -0.2384  0.1271  0.5778
   99OSM   H13F 9960   5.111   0.886   9.261  0.4157  0.2674  1.7707
   99OSM   H13G 9961   4.984   0.937   9.380  2.0211  2.1932 -0.6709
   99OSM   C14F 9962   4.911   0.812   9.210  0.0127 -0.1021 -0.1074
   99OSM   H14F 9963   4.822   0.762   9.254 -0.0792 -0.7831 -1.0460
   99OSM   H14G 9964   4.959   0.745   9.135  1.4370  2.2223 -1.4095
   99OSM   C15F 9965   4.862   0.934   9.127  0.1826 -0.1431  0.4726
   99OSM   H15F 9966   4.954   0.982   9.088  0.2347 -0.9502 -0.4280
   99OSM   H15G 9967   4.801   1.007   9.184  2.4543  1.6927  0.6585
   99OSM   C16F 9968   4.779   0.880   9.010 -0.2775 -0.6248 -0.6673
   99OSM   H16F 9969   4.849   0.803   8.970 -0.7699 -0.5218 -1.7765
   99OSM   H16G 9970   4.755   0.960   8.936 -2.1346  0.6458  1.1770
   99OSM   C17F 9971   4.649   0.810   9.033 -0.3070  0.1232 -0.1233
   99OSM   H17F 9972   4.582   0.883   9.084 -1.4982 -1.6221  0.9572
   99OSM   H17G 9973   4.659   0.734   9.114  0.7873  0.7813  0.3917
   99OSM   C18F 9974   4.585   0.744   8.909  0.6816  0.3340  0.0438
   99OSM   H18F 9975   4.500   0.682   8.946  0.9211  0.8320  1.5048
   99OSM   H18G 9976   4.661   0.691   8.848 -0.2325  0.1514 -0.9774
   99OSM   H18H 9977   4.541   0.817   8.838  1.5827  0.4202 -0.4348
  100OSM      N 9978   0.850   2.522  10.960 -0.0819 -0.9141 -0.1252
  100OSM    C15 9979   0.978   2.451  10.930 -0.0443 -0.2231  0.1123
  100OSM   H15A 9980   1.034   2.430  11.020  1.4097  1.3812 -0.3327
  100OSM   H15B 9981   1.046   2.505  10.864  0.5693 -0.8772  0.1979
  100OSM   H15C 9982   0.962   2.354  10.885  0.1592 -0.0296 -0.3947
  100OSM    C14 9983   0.765   2.430  11.035  0.3587 -0.2518 -0.5918
  100OSM   H14A 9984   0.730   2.348  10.975 -0.8136  0.6472 -1.1737
  100OSM   H14B 9985   0.679   2.476  11.080  1.3488 -0.8072  2.0404
  100OSM   H14C 9986   0.817   2.381  11.116  0.6326  1.2447  0.1778
  100OSM    C13 9987   0.893   2.636  11.038 -0.1953 -0.2639 -0.2781
  100OSM   H13A 9988   0.962   2.694  10.979  0.5465 -1.7798 -0.9665
  100OSM   H13B 9989   0.942   2.599  11.127 -0.3127 -0.4566 -0.2933
  100OSM   H13C 9990   0.814   2.701  11.073 -0.0078  0.1179 -0.5563
  100OSM    C12 9991   0.773   2.571  10.835  0.7744 -0.2076  0.4529
  100OSM   H12A 9992   0.816   2.668  10.815 -1.0116  0.4868 -0.2027
  100OSM   H12B 9993   0.670   2.587  10.863 -0.2080 -1.2698 -2.1871
  100OSM    C11 9994   0.775   2.483  10.712  0.5368 -0.1848  0.3669
  100OSM   H11A 9995   0.882   2.481  10.681  0.7095 -1.7472  0.9524
  100OSM   H11B 9996   0.701   2.521  10.639  0.4172  1.3578  1.2488
  100OSM      P 9997   0.795   2.213  10.716 -0.7281 -0.2677  0.2569
  100OSM    O13 9998   0.912   2.184  10.804 -0.0137 -0.8859 -0.3861
  100OSM    O14 9999   0.695   2.112  10.688 -0.2423 -0.0312  0.0574
  100OSM    O1110000   0.860   2.244  10.580 -0.0391 -0.0325 -0.1065
  100OSM    O1210001   0.725   2.353  10.748 -0.5305 -0.0225  0.1462
  100OSM    C1S10002   0.968   2.160  10.532  0.0441 -0.1526  0.0423
  100OSM    H1S10003   0.949   2.053  10.552  0.3714 -0.2187  0.0173
  100OSM    H1T10004   1.061   2.186  10.587  0.5745  1.0898 -1.3718
  100OSM     NF10005   1.101   2.095  10.345 -0.4378  0.4496 -0.1479
  100OSM    HNF10006   1.192   2.134  10.326  0.2475 -1.1152 -0.1897
  100OSM    C2S10007   0.985   2.185  10.378 -1.1793  0.8564  0.3281
  100OSM    H2S10008   0.897   2.144  10.325 -0.4969  0.1938 -0.3057
  100OSM    C3S10009   1.003   2.333  10.337  0.9293 -0.2243  0.5381
  100OSM    H3S10010   1.088   2.384  10.387  0.3736  0.0945  1.1517
  100OSM     O310011   0.878   2.404  10.358 -0.0935  0.6219 -0.2956
  100OSM    HO310012   0.831   2.357  10.427 -1.0914  2.5574  0.4145
  100OSM    C4S10013   1.041   2.347  10.192  0.2935 -0.1129  0.1646
  100OSM    H4S10014   0.956   2.329  10.124 -0.2129  1.0658  0.4680
  100OSM    C5S10015   1.152   2.405  10.137  0.5854  0.9651  0.3465
  100OSM    H5S10016   1.234   2.435  10.204  2.9100 -1.5313 -1.1828
  100OSM    C6S10017   1.190   2.401   9.995  0.4066  0.0157 -0.1611
  100OSM    H6S10018   1.192   2.296   9.958  2.8654  0.4042 -1.3246
  100OSM    H6T10019   1.298   2.425   9.995  0.3471  0.3053  0.9918
  100OSM    C7S10020   1.110   2.478   9.893  0.3453  0.1410 -0.4621
  100OSM    H7S10021   1.100   2.583   9.928 -2.1752 -0.6598  1.4799
  100OSM    H7T10022   1.010   2.430   9.879  0.3126 -0.5416  1.8232
  100OSM    C8S10023   1.170   2.481   9.750  0.4275  0.0908 -0.0635
  100OSM    H8S10024   1.184   2.375   9.720 -0.7275 -0.2738  0.6044
  100OSM    H8T10025   1.268   2.532   9.751  0.3118  0.3096  0.0737
  100OSM    C9S10026   1.073   2.548   9.652 -0.2161 -0.4410  0.8493
  100OSM    H9S10027   1.053   2.651   9.687 -0.3493 -0.1241 -0.1514
  100OSM    H9T10028   0.971   2.507   9.663 -0.2377 -0.1136  1.9590
  100OSM   C10S10029   1.115   2.549   9.503  0.3493  0.3353 -0.4297
  100OSM   H10S10030   1.097   2.445   9.468  0.8679 -0.7533  2.2879
  100OSM   H10T10031   1.222   2.578   9.501  0.5557 -0.0740  2.0940
  100OSM   C11S10032   1.037   2.650   9.427  0.2452 -0.8649 -0.0783
  100OSM   H11S10033   1.084   2.751   9.425  0.3338 -0.9109 -0.3967
  100OSM   H11T10034   0.933   2.653   9.466 -1.3101  0.3923 -3.8415
  100OSM   C12S10035   1.009   2.611   9.284 -0.6371  0.0035 -0.5164
  100OSM   H12S10036   0.934   2.531   9.270  0.8606 -1.0466 -3.4151
  100OSM   H12T10037   1.107   2.573   9.247 -0.9915  0.6029 -2.1317
  100OSM   C13S10038   0.971   2.737   9.197  0.6284 -0.1487 -0.6283
  100OSM   H13S10039   1.053   2.810   9.218 -0.1694  0.3495  0.9419
  100OSM   H13T10040   0.876   2.781   9.235  0.2184 -1.7848  0.3357
  100OSM   C14S10041   0.951   2.709   9.052  0.5076 -0.4573 -0.0262
  100OSM   H14S10042   1.040   2.661   9.008  1.1888 -0.3788  1.2436
  100OSM   H14T10043   0.941   2.804   8.995  0.4853 -1.8449 -2.4718
  100OSM   C15S10044   0.826   2.625   9.020  0.1791  0.0627 -0.0232
  100OSM   H15S10045   0.731   2.670   9.056 -0.9093 -0.9760 -1.4903
  100OSM   H15T10046   0.839   2.526   9.068 -2.7650 -0.0269  0.7571
  100OSM   C16S10047   0.814   2.606   8.874 -0.0320  0.4793  0.1314
  100OSM   H16S10048   0.886   2.526   8.846  0.0674  0.6956 -0.2298
  100OSM   H16T10049   0.833   2.699   8.816  1.1692  0.4404  0.4307
  100OSM   C17S10050   0.669   2.556   8.830 -0.4358 -0.2874  0.3754
  100OSM   H17S10051   0.603   2.641   8.858  0.7374  0.6784  0.2878
  100OSM   H17T10052   0.644   2.465   8.890  0.3604 -1.9231 -1.6346
  100OSM   C18S10053   0.662   2.537   8.673 -0.7194  0.5388 -0.1913
  100OSM   H18S10054   0.691   2.634   8.626  1.1091  0.1193 -0.0058
  100OSM   H18T10055   0.563   2.508   8.631 -0.4238 -0.1255 -0.4516
  100OSM   H18U10056   0.744   2.470   8.642  1.2509  2.3406  0.8806
  100OSM    C1F10057   1.092   1.965  10.344 -0.0539 -0.1801  0.1140
  100OSM     OF10058   0.995   1.898  10.378  0.3054 -0.0855 -0.1809
  100OSM    C2F10059   1.218   1.897  10.307 -0.1438  0.3249  1.2165
  100OSM    H2F10060   1.230   1.814  10.380  1.2379  0.5666  1.2881
  100OSM    H2G10061   1.304   1.965  10.324 -0.4487  1.6872 -2.1156
  100OSM    C3F10062   1.216   1.856  10.163  0.4522  0.7358  0.2733
  100OSM    H3F10063   1.118   1.820  10.126  0.7889 -0.1110  0.1834
  100OSM    H3G10064   1.295   1.784  10.131 -0.5616  0.0030 -0.6561
  100OSM    C4F10065   1.261   1.967  10.073 -0.2522 -0.7814  0.4130
  100OSM    H4F10066   1.355   2.002  10.120 -0.1142  0.5355 -0.7595
  100OSM    H4G10067   1.188   2.051  10.075  1.1446  0.4558  1.2357
  100OSM    C5F10068   1.295   1.935   9.925 -0.3348  0.1366 -0.6466
  100OSM    H5F10069   1.209   1.880   9.881 -1.0148  1.6148 -1.2284
  100OSM    H5G10070   1.374   1.857   9.922  2.4770  2.8529 -0.9649
  100OSM    C6F10071   1.308   2.058   9.836 -0.3070 -0.9320  0.8623
  100OSM    H6F10072   1.369   2.135   9.887 -0.9412 -1.3992  2.3679
  100OSM    H6G10073   1.205   2.098   9.827 -0.5944 -1.6267  0.9893
  100OSM    C7F10074   1.367   2.034   9.693 -0.0929 -0.7037 -0.5274
  100OSM    H7F10075   1.303   1.957   9.644 -0.2614 -0.2737 -0.9965
  100OSM    H7G10076   1.472   2.000   9.700 -0.1350 -0.5615  1.2784
  100OSM    C8F10077   1.343   2.156   9.592 -0.1136  0.1432 -0.5165
  100OSM    H8F10078   1.373   2.251   9.641  2.2254 -0.4205 -0.7454
  100OSM    H8G10079   1.235   2.156   9.563 -0.6029 -1.9228  1.0715
  100OSM    C9F10080   1.436   2.145   9.474 -0.3186 -0.1045  0.4876
  100OSM    H9F10081   1.533   2.094   9.491  0.5520  1.7556  1.3931
  100OSM   C10F10082   1.405   2.172   9.346  0.1576  0.3739  0.1331
  100OSM   H10F10083   1.491   2.157   9.279 -0.4859 -0.8448 -0.4584
  100OSM   C11F10084   1.273   2.220   9.296 -0.3536 -0.0455 -0.6811
  100OSM   H11F10085   1.266   2.329   9.316 -0.6492 -0.2214  0.1970
  100OSM   H11G10086   1.194   2.178   9.362 -0.2672  1.6251  0.5304
  100OSM   C12F10087   1.234   2.192   9.147 -0.3648  0.0295  0.5812
  100OSM   H12F10088   1.136   2.240   9.128 -0.0604 -0.5022 -2.9626
  100OSM   H12G10089   1.229   2.083   9.125  0.8636  0.1035 -0.1628
  100OSM   C13F10090   1.335   2.258   9.047  0.0512 -0.3343 -0.2090
  100OSM   H13F10091   1.427   2.203   9.079 -1.1910 -1.9612  0.6863
  100OSM   H13G10092   1.345   2.366   9.073 -3.0756 -0.2437  0.9428
  100OSM   C14F10093   1.312   2.239   8.896 -0.6162  0.3816 -0.3675
  100OSM   H14F10094   1.210   2.277   8.871 -0.8072  0.0900 -0.0510
  100OSM   H14G10095   1.304   2.130   8.874 -0.3222  0.5142 -1.1487
  100OSM   C15F10096   1.434   2.311   8.829 -0.4618 -0.0680 -0.1568
  100OSM   H15F10097   1.515   2.235   8.837 -0.5683 -0.2311 -0.6407
  100OSM   H15G10098   1.451   2.401   8.892  0.0815 -1.0018  1.0895
  100OSM   C16F10099   1.413   2.362   8.686 -0.2789  0.8274  0.0775
  100OSM   H16F10100   1.310   2.402   8.680 -0.7557 -0.2606  0.7273
  100OSM   H16G10101   1.432   2.285   8.608  0.6195 -0.6113  1.6459
  100OSM   C17F10102   1.518   2.477   8.659 -0.2405 -0.4876 -0.1931
  100OSM   H17F10103   1.621   2.436   8.655  0.2048  0.6227 -0.3278
  100OSM   H17G10104   1.519   2.547   8.745  1.5544  0.1462 -0.6758
  100OSM   C18F10105   1.498   2.572   8.538 -0.2616  0.5768 -0.6664
  100OSM   H18F10106   1.491   2.502   8.452 -0.5178  0.0813 -0.2476
  100OSM   H18G10107   1.576   2.651   8.537 -0.2153  0.5706  0.5991
  100OSM   H18H10108   1.401   2.625   8.551  0.1360  0.8795  1.3906
  101OSM      N10109   3.880   0.293  11.092  0.3391 -0.1455 -0.2395
  101OSM    C1510110   3.966   0.403  11.031 -0.1023 -0.0592  0.4886
  101OSM   H15A10111   4.040   0.437  11.101 -1.8922  2.9240  1.1297
  101OSM   H15B10112   3.897   0.484  11.013  0.3573  0.0816 -0.7225
  101OSM   H15C10113   4.015   0.377  10.938  2.0262 -0.0521  1.5689
  101OSM    C1410114   3.886   0.322  11.240  0.2347 -0.5560  0.1427
  101OSM   H14A10115   3.840   0.416  11.268  4.5399  1.4467  1.3453
  101OSM   H14B10116   3.986   0.347  11.271 -1.3100  3.8153  2.5773
  101OSM   H14C10117   3.839   0.235  11.282 -1.3082  0.3738  0.4319
  101OSM    C1310118   3.746   0.297  11.036  0.7525 -0.4577  0.0667
  101OSM   H13A10119   3.709   0.397  11.021  1.7747 -0.2698 -1.3461
  101OSM   H13B10120   3.669   0.263  11.105 -0.0279  1.8529  0.4270
  101OSM   H13C10121   3.739   0.241  10.944 -2.1145 -1.3431  0.6954
  101OSM    C1210122   3.952   0.159  11.079  0.1171 -0.3267  0.7234
  101OSM   H12A10123   3.890   0.084  11.126 -3.0029 -0.3980 -3.0849
  101OSM   H12B10124   4.052   0.160  11.121  0.8951  1.1148 -1.0314
  101OSM    C1110125   3.985   0.115  10.933 -0.7635  0.1904  0.1631
  101OSM   H11A10126   3.892   0.111  10.872  0.1999  0.9848 -1.4297
  101OSM   H11B10127   4.020   0.010  10.946 -1.9045 -0.0068  1.9827
  101OSM      P10128   4.222   0.162  10.846  0.0814  0.3980  0.3942
  101OSM    O1310129   4.303   0.271  10.788 -0.4142 -0.8525 -0.0328
  101OSM    O1410130   4.270   0.107  10.977 -0.6637  0.1232  0.6311
  101OSM    O1110131   4.215   0.042  10.741 -0.7180  0.0043  0.5679
  101OSM    O1210132   4.074   0.211  10.867 -0.1687  0.4393  0.3687
  101OSM    C1S10133   4.151   0.066  10.609 -0.0133  0.0390  0.8070
  101OSM    H1S10134   4.208   0.149  10.562  0.3428  0.8956  2.6344
  101OSM    H1T10135   4.048   0.105  10.625 -1.4033 -2.2791 -1.6205
  101OSM     NF10136   4.098  -0.004  10.386  0.1463  0.1255  0.0787
  101OSM    HNF10137   4.004   0.027  10.373 -0.1784 -1.3012 -1.2159
  101OSM    C2S10138   4.142  -0.056  10.514 -0.4878  0.7159 -0.7975
  101OSM    H2S10139   4.245  -0.092  10.499 -0.8536 -0.2522 -1.0315
  101OSM    C3S10140   4.054  -0.171  10.570  0.0372 -0.0777 -0.3174
  101OSM    H3S10141   3.948  -0.140  10.585 -0.6611 -2.7639  0.8586
  101OSM     O310142   4.085  -0.209  10.707 -0.4945 -0.4459 -0.0457
  101OSM    HO310143   4.158  -0.153  10.735  0.0412 -2.6303  3.4329
  101OSM    C4S10144   4.043  -0.286  10.475  0.0337  0.3830 -0.7482
  101OSM    H4S10145   3.954  -0.278  10.411 -0.1303 -0.4431 -0.6432
  101OSM    C5S10146   4.138  -0.379  10.452  0.5782 -0.1814  0.8242
  101OSM    H5S10147   4.236  -0.383  10.500  1.6223  1.4194 -0.9982
  101OSM    C6S10148   4.115  -0.489  10.353  0.4141  0.1904  0.6642
  101OSM    H6S10149   4.010  -0.497  10.317  1.1738 -0.5571 -1.5573
  101OSM    H6T10150   4.151  -0.588  10.388 -0.0822  0.3930  1.7838
  101OSM    C7S10151   4.184  -0.459  10.220 -0.0633  0.1660 -0.1944
  101OSM    H7S10152   4.176  -0.546  10.152 -2.3861 -1.7475  2.3263
  101OSM    H7T10153   4.294  -0.452  10.236  0.6350 -2.3435 -3.0595
  101OSM    C8S10154   4.136  -0.333  10.152 -0.4305  0.3602  0.2677
  101OSM    H8S10155   4.141  -0.242  10.216 -0.3311 -0.6835  1.7861
  101OSM    H8T10156   4.028  -0.353  10.135 -1.0136  1.2083  2.5877
  101OSM    C9S10157   4.214  -0.295  10.024  0.5432  0.0136 -0.3329
  101OSM    H9S10158   4.322  -0.271  10.035  0.0614  1.7933  1.0554
  101OSM    H9T10159   4.171  -0.198   9.994  0.0218  0.3176  1.2878
  101OSM   C10S10160   4.193  -0.386   9.895  0.1927  0.0402 -0.1832
  101OSM   H10S10161   4.109  -0.339   9.839  1.5270  2.3067 -0.4026
  101OSM   H10T10162   4.155  -0.490   9.909  0.0510 -0.1275 -1.5928
  101OSM   C11S10163   4.313  -0.379   9.800 -0.1098 -0.3137 -0.2854
  101OSM   H11S10164   4.302  -0.448   9.714  1.1248  1.3770 -1.8723
  101OSM   H11T10165   4.406  -0.410   9.852  0.4245  0.6994 -0.6220
  101OSM   C12S10166   4.344  -0.240   9.733 -0.1727 -0.2855 -0.0428
  101OSM   H12S10167   4.377  -0.181   9.821  3.6310 -0.1007 -1.3969
  101OSM   H12T10168   4.246  -0.206   9.692 -0.6482  0.8216  1.8957
  101OSM   C13S10169   4.451  -0.246   9.628 -0.2863  0.0760  0.2080
  101OSM   H13S10170   4.410  -0.314   9.551 -0.2750 -2.8222  2.5979
  101OSM   H13T10171   4.543  -0.295   9.667 -0.6610 -1.3936 -0.7041
  101OSM   C14S10172   4.495  -0.119   9.558 -0.6380 -0.0641  0.3777
  101OSM   H14S10173   4.578  -0.075   9.617  1.8971 -0.7826 -2.4298
  101OSM   H14T10174   4.413  -0.044   9.558  0.5063  1.2347  0.0856
  101OSM   C15S10175   4.535  -0.129   9.407  0.2845  0.6546  0.7615
  101OSM   H15S10176   4.588  -0.227   9.401 -1.2410 -0.4053  3.0206
  101OSM   H15T10177   4.594  -0.039   9.381 -1.7391  2.3888  1.9107
  101OSM   C16S10178   4.422  -0.147   9.306  1.2012 -0.5445 -0.3988
  101OSM   H16S10179   4.352  -0.061   9.317  1.4491 -0.5076  1.0744
  101OSM   H16T10180   4.360  -0.235   9.333 -1.2974  1.5903  1.3877
  101OSM   C17S10181   4.459  -0.164   9.158  0.2959 -0.5822 -0.4474
  101OSM   H17S10182   4.550  -0.226   9.143 -0.4288 -2.4945  2.1415
  101OSM   H17T10183   4.485  -0.063   9.121 -3.3061  1.3175  1.6230
  101OSM   C18S10184   4.341  -0.202   9.083 -0.3347 -0.3249  0.5365
  101OSM   H18S10185   4.310  -0.300   9.124 -2.3314  0.0628  0.0839
  101OSM   H18T10186   4.358  -0.197   8.973  1.2087 -0.2596  0.7535
  101OSM   H18U10187   4.260  -0.127   9.098 -1.7213 -1.5471 -0.5669
  101OSM    C1F10188   4.182   0.042  10.298  0.7767 -1.0137  0.2523
  101OSM     OF10189   4.299   0.057  10.335 -0.1279 -0.3883 -0.1259
  101OSM    C2F10190   4.125   0.075  10.165  0.5006  0.5876  0.2987
  101OSM    H2F10191   4.054   0.160  10.166 -0.3910  0.1491 -4.1703
  101OSM    H2G10192   4.071  -0.016  10.130 -0.6211  0.0057  3.2485
  101OSM    C3F10193   4.233   0.108  10.060 -0.1160 -0.0032  0.3358
  101OSM    H3F10194   4.311   0.029  10.065 -0.8320 -0.8197 -0.9978
  101OSM    H3G10195   4.284   0.206  10.076  2.0170 -0.6974 -1.5926
  101OSM    C4F10196   4.178   0.096   9.914 -0.1812  0.0699 -0.4287
  101OSM    H4F10197   4.070   0.122   9.920  0.2510  1.7842  0.6996
  101OSM    H4G10198   4.185  -0.014   9.898 -0.6481 -0.9512  4.6542
  101OSM    C5F10199   4.263   0.189   9.818 -0.2796 -0.1837 -0.1151
  101OSM    H5F10200   4.366   0.148   9.816 -0.4431 -0.6599  0.6271
  101OSM    H5G10201   4.274   0.294   9.852 -0.1127  0.3639 -1.7433
  101OSM    C6F10202   4.205   0.192   9.674 -0.6232 -0.1273  0.2976
  101OSM    H6F10203   4.175   0.086   9.657  0.8428 -0.9899  2.5785
  101OSM    H6G10204   4.127   0.271   9.672  0.1308  0.6168 -1.3054
  101OSM    C7F10205   4.310   0.236   9.569  0.7338  0.1870 -0.6683
  101OSM    H7F10206   4.398   0.174   9.597  0.5146  0.7260  1.3954
  101OSM    H7G10207   4.333   0.344   9.580 -0.4834  0.4738 -0.7496
  101OSM    C8F10208   4.261   0.205   9.427 -0.0390  0.3414 -0.1303
  101OSM    H8F10209   4.239   0.096   9.433  0.7274  0.2674  2.0873
  101OSM    H8G10210   4.351   0.221   9.363  0.1087 -1.8726 -0.5725
  101OSM    C9F10211   4.139   0.283   9.387  0.9067  0.5487 -0.3370
  101OSM    H9F10212   4.057   0.246   9.450  0.5126 -1.9675 -2.1518
  101OSM   C10F10213   4.112   0.376   9.298 -0.1469  0.1086  0.6233
  101OSM   H10F10214   4.011   0.417   9.282  0.3475  0.6672 -1.4740
  101OSM   C11F10215   4.223   0.429   9.202 -0.3915  0.2745 -0.7656
  101OSM   H11F10216   4.327   0.403   9.234 -0.0519 -1.1774 -2.8389
  101OSM   H11G10217   4.223   0.540   9.198  3.5896  0.4187 -2.1191
  101OSM   C12F10218   4.218   0.382   9.054 -0.1321 -0.7934  0.6596
  101OSM   H12F10219   4.311   0.427   9.012 -0.8169 -1.1977 -1.4192
  101OSM   H12G10220   4.143   0.436   8.992  1.6680  0.4257 -0.5420
  101OSM   C13F10221   4.217   0.229   9.031 -0.5123  0.0161  0.1976
  101OSM   H13F10222   4.111   0.205   9.055 -0.5249  1.4826  1.7558
  101OSM   H13G10223   4.288   0.181   9.101 -1.1046  0.5130  1.1663
  101OSM   C14F10224   4.218   0.195   8.883  0.4511 -0.0207 -0.0388
  101OSM   H14F10225   4.323   0.201   8.847  0.5214 -0.3567  0.1009
  101OSM   H14G10226   4.156   0.271   8.830 -0.2683 -0.2413  0.4681
  101OSM   C15F10227   4.161   0.053   8.847 -0.5418  0.2899  0.3130
  101OSM   H15F10228   4.051   0.049   8.862 -0.1830  0.6896  3.8385
  101OSM   H15G10229   4.215  -0.020   8.911 -1.6716 -0.4585  0.4437
  101OSM   C16F10230   4.192   0.005   8.697 -0.2835  0.1039  0.0878
  101OSM   H16F10231   4.299   0.017   8.670 -0.5803 -0.2150 -1.2777
  101OSM   H16G10232   4.130   0.058   8.622  0.3278  0.6535 -0.0362
  101OSM   C17F10233   4.172  -0.143   8.676 -0.5770  0.1259 -0.7418
  101OSM   H17F10234   4.067  -0.168   8.651 -1.0396  1.8653 -0.6358
  101OSM   H17G10235   4.199  -0.191   8.773 -1.2634  0.3435 -0.4369
  101OSM   C18F10236   4.271  -0.197   8.577 -0.1016 -0.4570  0.4462
  101OSM   H18F10237   4.282  -0.308   8.577  0.0426 -0.4431  0.1686
  101OSM   H18G10238   4.377  -0.163   8.583  0.2038 -0.7676 -2.1188
  101OSM   H18H10239   4.237  -0.176   8.474 -1.4719 -0.1508  0.9442
  102OSM      N10240   6.490   2.668  10.591  0.9871  0.0642 -0.4962
  102OSM    C1510241   6.527   2.694  10.730 -0.5167 -0.4220  0.1290
  102OSM   H15A10242   6.633   2.712  10.733 -0.2221 -1.1751 -2.9966
  102OSM   H15B10243   6.512   2.606  10.792 -1.9762 -0.8238 -0.7295
  102OSM   H15C10244   6.475   2.774  10.780 -0.9324 -0.4217 -0.2945
  102OSM    C1410245   6.586   2.570  10.527  0.0785  0.6079  0.1520
  102OSM   H14A10246   6.547   2.534  10.433  0.6280  0.8249 -0.1664
  102OSM   H14B10247   6.616   2.492  10.595 -1.6782 -0.4774 -0.2628
  102OSM   H14C10248   6.678   2.621  10.503  0.1489  0.4255  0.0381
  102OSM    C1310249   6.358   2.600  10.602  0.0465 -0.0477 -0.5835
  102OSM   H13A10250   6.302   2.583  10.511 -2.3059 -1.6421  1.0249
  102OSM   H13B10251   6.307   2.664  10.672 -1.4855 -2.1758  0.3560
  102OSM   H13C10252   6.373   2.503  10.649  2.6262  1.6888  2.5782
  102OSM    C1210253   6.474   2.796  10.503 -0.3458  0.6486 -0.3824
  102OSM   H12A10254   6.390   2.854  10.540 -0.6485 -0.1985  0.2895
  102OSM   H12B10255   6.456   2.767  10.401 -2.7342 -1.6443  0.5796
  102OSM    C1110256   6.578   2.914  10.516  0.0177  0.0272  0.4805
  102OSM   H11A10257   6.574   2.978  10.425 -0.1182 -1.8921 -0.9223
  102OSM   H11B10258   6.675   2.860  10.506  0.6558  1.3640 -0.8502
  102OSM      P10259   6.454   3.071  10.682 -0.5096 -0.0165  0.0564
  102OSM    O1310260   6.331   2.995  10.667  0.5309 -0.2521 -0.4991
  102OSM    O1410261   6.475   3.136  10.813 -0.4740  0.3285 -0.0661
  102OSM    O1110262   6.460   3.173  10.563  0.5052  0.1457  0.3578
  102OSM    O1210263   6.570   2.972  10.646  0.3024 -0.3636  0.0034
  102OSM    C1S10264   6.589   3.234  10.524  0.4023  0.2776 -0.6616
  102OSM    H1S10265   6.669   3.156  10.523  0.1653  0.0356 -0.8400
  102OSM    H1T10266   6.613   3.309  10.601 -1.6405  0.6133 -0.3032
  102OSM     NF10267   6.694   3.315  10.302 -0.1506 -0.3555 -0.1585
  102OSM    HNF10268   6.710   3.403  10.258  1.0383  0.7202  2.2467
  102OSM    C2S10269   6.575   3.302  10.383  0.5817  0.8075 -0.2590
  102OSM    H2S10270   6.503   3.239  10.327 -0.4457  1.0221  0.7888
  102OSM    C3S10271   6.486   3.435  10.406 -0.0307  0.8040 -0.0442
  102OSM    H3S10272   6.545   3.502  10.473  1.6676  0.7249 -1.4040
  102OSM     O310273   6.365   3.408  10.476 -0.4550  0.1856  0.1705
  102OSM    HO310274   6.361   3.314  10.498 -0.2289 -0.1668 -1.1985
  102OSM    C4S10275   6.452   3.494  10.276  0.6034  0.1548  1.2266
  102OSM    H4S10276   6.519   3.576  10.245  0.3698 -0.8489 -2.3211
  102OSM    C5S10277   6.354   3.456  10.194 -0.0736 -0.7456  0.5637
  102OSM    H5S10278   6.285   3.376  10.226  0.1476 -0.7642  0.9980
  102OSM    C6S10279   6.321   3.514  10.058 -0.3163  0.7331 -0.1114
  102OSM    H6S10280   6.244   3.593  10.070  0.7102  1.5757  1.2388
  102OSM    H6T10281   6.276   3.440   9.989 -0.8907  1.6120 -0.6917
  102OSM    C7S10282   6.424   3.595   9.978 -0.2573 -0.2648 -0.2974
  102OSM    H7S10283   6.498   3.526   9.932 -1.4486 -1.8368  0.0644
  102OSM    H7T10284   6.484   3.657  10.048  0.4846 -2.4641  1.1265
  102OSM    C8S10285   6.371   3.673   9.853  0.9056 -0.0670 -0.1280
  102OSM    H8S10286   6.303   3.746   9.901  0.0516 -0.7535 -0.2629
  102OSM    H8T10287   6.315   3.596   9.796  1.7610  0.3167 -1.5484
  102OSM    C9S10288   6.486   3.739   9.767  0.0883  0.7845  0.1604
  102OSM    H9S10289   6.524   3.662   9.696 -2.0411 -0.6631  0.4828
  102OSM    H9T10290   6.567   3.764   9.839  0.3315  0.4626  0.0065
  102OSM   C10S10291   6.442   3.866   9.682 -0.3018  0.2531  0.4087
  102OSM   H10S10292   6.535   3.906   9.637 -0.6061 -0.2964 -0.7602
  102OSM   H10T10293   6.419   3.947   9.754 -3.0468 -0.3454  0.3164
  102OSM   C11S10294   6.330   3.840   9.578 -0.0453 -0.2063 -0.5532
  102OSM   H11S10295   6.237   3.879   9.625  0.1992 -2.9576  2.5759
  102OSM   H11T10296   6.325   3.735   9.542 -0.5947  0.0822 -1.3592
  102OSM   C12S10297   6.362   3.930   9.460 -0.0395 -0.2876  0.5247
  102OSM   H12S10298   6.456   3.898   9.410  1.1442  0.1510  2.3642
  102OSM   H12T10299   6.380   4.032   9.501 -1.0515 -0.2102  0.8139
  102OSM   C13S10300   6.244   3.942   9.352 -0.7482 -0.4374 -0.5089
  102OSM   H13S10301   6.155   3.996   9.391  0.5647  1.6463 -0.2691
  102OSM   H13T10302   6.210   3.841   9.321 -1.8404 -0.1933 -0.1639
  102OSM   C14S10303   6.284   4.007   9.215  0.9903 -0.4405 -0.5619
  102OSM   H14S10304   6.358   3.951   9.155 -0.0414 -0.3020 -2.0213
  102OSM   H14T10305   6.315   4.110   9.246  0.0473 -0.0108 -0.9864
  102OSM   C15S10306   6.152   4.009   9.135 -0.4702  0.9657 -0.3878
  102OSM   H15S10307   6.071   4.069   9.182 -0.0095  0.1508  1.5435
  102OSM   H15T10308   6.110   3.906   9.132 -0.9756  1.1870 -1.2670
  102OSM   C16S10309   6.171   4.060   8.987  0.3338  0.4550  0.5187
  102OSM   H16S10310   6.230   3.984   8.931 -0.4590  0.8055 -0.8315
  102OSM   H16T10311   6.233   4.152   8.993  0.0375  0.6682  0.3568
  102OSM   C17S10312   6.046   4.095   8.915  0.4822 -0.0220  0.7807
  102OSM   H17S10313   6.071   4.136   8.815 -1.0416 -2.7995 -0.8742
  102OSM   H17T10314   5.989   4.173   8.970  1.8200  0.9029  0.9040
  102OSM   C18S10315   5.960   3.970   8.880 -0.3170  0.5373  0.0682
  102OSM   H18S10316   5.994   3.923   8.785  1.7432  2.3540 -0.1748
  102OSM   H18T10317   5.854   4.003   8.879 -0.7179 -0.7123 -0.4927
  102OSM   H18U10318   5.970   3.893   8.960  0.9936 -0.6527 -1.1829
  102OSM    C1F10319   6.762   3.210  10.261  0.2652 -0.2544 -0.2756
  102OSM     OF10320   6.744   3.102  10.311 -0.7435 -0.2150  0.4431
  102OSM    C2F10321   6.872   3.225  10.165 -0.7253 -0.5411  1.0893
  102OSM    H2F10322   6.956   3.158  10.194  0.4210  0.2410 -0.2440
  102OSM    H2G10323   6.919   3.326  10.170  0.7235 -1.2240  1.9240
  102OSM    C3F10324   6.838   3.189  10.016  0.3837  0.5813  0.2674
  102OSM    H3F10325   6.791   3.088  10.020  0.0354  0.7661  1.1180
  102OSM    H3G10326   6.937   3.190   9.966 -1.0621 -1.7448 -3.0585
  102OSM    C4F10327   6.748   3.283   9.938 -0.1849  0.1625  0.8998
  102OSM    H4F10328   6.791   3.385   9.923  0.7592  0.0446  2.5364
  102OSM    H4G10329   6.649   3.293   9.987 -1.2571 -1.1346 -0.8558
  102OSM    C5F10330   6.719   3.226   9.800 -0.2161  0.3456  0.0101
  102OSM    H5F10331   6.649   3.142   9.819 -1.1943  0.2782 -3.3013
  102OSM    H5G10332   6.812   3.186   9.754  1.1318  2.2694  0.9502
  102OSM    C6F10333   6.647   3.318   9.706 -0.1293  0.2059 -0.7578
  102OSM    H6F10334   6.716   3.399   9.675  2.2511 -1.9359 -1.4030
  102OSM    H6G10335   6.560   3.366   9.755  0.5096 -0.1416  0.7573
  102OSM    C7F10336   6.580   3.244   9.591  0.2638 -0.4923  0.1064
  102OSM    H7F10337   6.533   3.148   9.620 -1.2731  0.3451  0.5075
  102OSM    H7G10338   6.665   3.222   9.523  0.8976  0.9146  0.4128
  102OSM    C8F10339   6.478   3.332   9.509 -0.3062  0.0997 -0.0601
  102OSM    H8F10340   6.397   3.350   9.583  1.2438  0.0444  1.7041
  102OSM    H8G10341   6.436   3.276   9.422 -1.4598  0.7669  0.0430
  102OSM    C9F10342   6.533   3.454   9.452  0.1701 -0.2739  0.2542
  102OSM    H9F10343   6.613   3.496   9.516 -1.3791  1.0174  1.4439
  102OSM   C10F10344   6.482   3.521   9.347 -0.2860 -0.4629  0.5665
  102OSM   H10F10345   6.532   3.607   9.299 -1.9957  1.0693  1.4609
  102OSM   C11F10346   6.362   3.480   9.265 -0.6183 -0.1111 -0.5051
  102OSM   H11F10347   6.294   3.568   9.266  1.4553  1.6028  1.3975
  102OSM   H11G10348   6.308   3.393   9.307  0.2977 -0.5488 -0.2257
  102OSM   C12F10349   6.415   3.424   9.131  0.6485  0.6246 -0.5406
  102OSM   H12F10350   6.509   3.370   9.157  1.2154  1.7329 -0.2296
  102OSM   H12G10351   6.445   3.511   9.068 -1.5073  1.6601 -0.2260
  102OSM   C13F10352   6.319   3.335   9.047 -0.4904 -0.9849  0.2230
  102OSM   H13F10353   6.392   3.286   8.979 -0.5574  0.7168 -1.1275
  102OSM   H13G10354   6.245   3.392   8.986 -0.2364  0.2738  1.0447
  102OSM   C14F10355   6.250   3.213   9.113 -0.0238 -0.4404 -0.5980
  102OSM   H14F10356   6.160   3.250   9.166 -0.7373 -1.9454 -0.7055
  102OSM   H14G10357   6.328   3.199   9.192  0.4705  1.8860 -0.6030
  102OSM   C15F10358   6.233   3.100   9.010  0.1232 -1.1964 -0.0627
  102OSM   H15F10359   6.193   3.015   9.069  0.0215  0.9777  3.2354
  102OSM   H15G10360   6.336   3.071   8.981  0.5194 -1.2918  1.3679
  102OSM   C16F10361   6.136   3.148   8.906  0.1658 -1.0600  0.1053
  102OSM   H16F10362   6.189   3.227   8.849  1.1776 -1.5616  0.3130
  102OSM   H16G10363   6.047   3.199   8.947  0.4798  0.0392 -0.5337
  102OSM   C17F10364   6.093   3.045   8.799  0.1975 -0.1253 -0.7384
  102OSM   H17F10365   6.184   2.998   8.758  0.2651 -1.2193  0.5911
  102OSM   H17G10366   6.044   3.103   8.718  2.1961  1.8139 -0.6730
  102OSM   C18F10367   5.995   2.936   8.864  0.5840  0.6269  0.3090
  102OSM   H18F10368   6.051   2.887   8.947  1.9121  0.1757 -0.8177
  102OSM   H18G10369   5.956   2.859   8.793  2.0357 -0.8920  1.0795
  102OSM   H18H10370   5.909   2.988   8.911  0.3251 -0.4200  1.0360
  103OSM      N10371   6.172   6.538  10.975  1.2777  0.0745  0.3928
  103OSM    C1510372   6.130   6.685  10.988 -0.5437 -0.9341 -0.3332
  103OSM   H15A10373   6.215   6.752  10.987 -0.8504 -0.5280 -1.4776
  103OSM   H15B10374   6.069   6.695  11.076 -0.9882  1.4681 -0.8409
  103OSM   H15C10375   6.067   6.711  10.903 -0.9516  1.5751  0.6503
  103OSM    C1410376   6.288   6.514  11.066  0.5417  0.8623  0.6685
  103OSM   H14A10377   6.276   6.532  11.172  0.1716  0.3127  0.7279
  103OSM   H14B10378   6.366   6.562  11.010 -0.7652  2.1728 -0.0860
  103OSM   H14C10379   6.312   6.409  11.057 -0.7546  0.6356 -0.4377
  103OSM    C1310380   6.057   6.450  11.023 -0.4384 -0.0698  0.4584
  103OSM   H13A10381   6.024   6.473  11.123  3.2674 -0.3089  1.8890
  103OSM   H13B10382   6.082   6.345  11.028 -0.6262 -0.1230  0.3137
  103OSM   H13C10383   5.975   6.470  10.955 -1.0186  0.3908  1.2683
  103OSM    C1210384   6.203   6.512  10.829  0.2293 -0.0270 -0.2237
  103OSM   H12A10385   6.113   6.523  10.770  1.3115  0.2497 -1.8881
  103OSM   H12B10386   6.217   6.406  10.821  0.4210 -0.0990  0.8561
  103OSM    C1110387   6.327   6.584  10.767 -0.7184  0.3957  0.7926
  103OSM   H11A10388   6.323   6.692  10.794  0.7020  0.7082 -0.1443
  103OSM   H11B10389   6.315   6.566  10.658 -2.0822 -2.9678  1.3756
  103OSM      P10390   6.525   6.406  10.768 -0.0936 -0.0687 -0.6852
  103OSM    O1310391   6.670   6.405  10.801  0.2248 -0.2298  0.3493
  103OSM    O1410392   6.450   6.288  10.817 -0.6869 -0.5012 -0.4762
  103OSM    O1110393   6.510   6.438  10.612  0.6570  0.0989  0.2703
  103OSM    O1210394   6.452   6.536  10.824 -0.4259  0.1877 -1.2593
  103OSM    C1S10395   6.586   6.542  10.543 -0.4023  0.3590  0.4642
  103OSM    H1S10396   6.682   6.564  10.595  0.0563 -1.0190  0.2373
  103OSM    H1T10397   6.529   6.638  10.546  0.6792  1.0013  1.3957
  103OSM     NF10398   6.698   6.590  10.325  0.9532  0.2484 -0.5492
  103OSM    HNF10399   6.677   6.649  10.248  0.6467  0.7453 -0.0949
  103OSM    C2S10400   6.592   6.509  10.386  0.0278 -0.2969 -0.0805
  103OSM    H2S10401   6.616   6.401  10.379 -3.0271 -1.0655 -0.3437
  103OSM    C3S10402   6.454   6.525  10.311  0.4013  0.6001 -0.2640
  103OSM    H3S10403   6.421   6.631  10.315  0.6836  0.6805  0.0505
  103OSM     O310404   6.348   6.459  10.384 -0.5843  0.1619 -0.2665
  103OSM    HO310405   6.376   6.450  10.475 -0.5918  3.1852  0.1159
  103OSM    C4S10406   6.463   6.467  10.175  0.6302 -0.0945 -0.1334
  103OSM    H4S10407   6.555   6.408  10.165  0.3014 -0.3348 -2.1872
  103OSM    C5S10408   6.384   6.484  10.067 -0.2568  0.4513 -0.4383
  103OSM    H5S10409   6.294   6.543  10.088 -0.9334 -0.5863 -0.3316
  103OSM    C6S10410   6.399   6.433   9.934 -0.5227  0.7035  0.2417
  103OSM    H6S10411   6.360   6.514   9.869 -2.1234 -0.2602 -0.0513
  103OSM    H6T10412   6.319   6.358   9.916 -0.5121  0.8105 -0.2533
  103OSM    C7S10413   6.524   6.375   9.878  0.0977 -0.2313  0.2359
  103OSM    H7S10414   6.554   6.286   9.938  0.4192 -0.9038 -0.8895
  103OSM    H7T10415   6.605   6.450   9.891  0.1830 -0.2370 -0.2350
  103OSM    C8S10416   6.511   6.346   9.736  0.0173 -0.2543  0.1991
  103OSM    H8S10417   6.416   6.291   9.715 -0.9111  1.6937 -1.0441
  103OSM    H8T10418   6.594   6.276   9.712 -0.0282 -0.5288  0.8099
  103OSM    C9S10419   6.505   6.462   9.637 -0.4052  0.1676 -0.4382
  103OSM    H9S10420   6.593   6.526   9.662 -0.9024  0.4922  0.5507
  103OSM    H9T10421   6.416   6.526   9.654 -0.7716 -0.0549 -1.4981
  103OSM   C10S10422   6.534   6.424   9.488  0.1149  0.1297  0.6120
  103OSM   H10S10423   6.626   6.362   9.495 -0.0357 -0.1735 -0.0400
  103OSM   H10T10424   6.550   6.509   9.419 -2.5715  0.3201  0.1083
  103OSM   C11S10425   6.421   6.330   9.418 -1.1340  0.1505  0.0564
  103OSM   H11S10426   6.336   6.388   9.375 -0.5301  0.8752 -0.1960
  103OSM   H11T10427   6.367   6.271   9.494 -1.1937 -0.1450 -0.2182
  103OSM   C12S10428   6.484   6.257   9.298  0.3882 -0.1417  0.3369
  103OSM   H12S10429   6.450   6.152   9.314  2.6728 -1.2476 -1.4911
  103OSM   H12T10430   6.591   6.283   9.287  0.8109 -1.1338  1.8010
  103OSM   C13S10431   6.416   6.299   9.160  0.4240 -0.5116  0.0942
  103OSM   H13S10432   6.434   6.407   9.137  0.0764 -0.4323  0.1873
  103OSM   H13T10433   6.308   6.315   9.177  0.3577  2.8119 -2.3242
  103OSM   C14S10434   6.439   6.213   9.038 -0.0660  0.2306  0.5118
  103OSM   H14S10435   6.424   6.104   9.054  0.2457 -0.3085 -2.2815
  103OSM   H14T10436   6.541   6.220   8.996 -1.1922  1.9969 -2.2375
  103OSM   C15S10437   6.345   6.264   8.920 -0.1698  0.3060  0.1010
  103OSM   H15S10438   6.356   6.375   8.922 -0.1416  0.4974 -3.5887
  103OSM   H15T10439   6.241   6.241   8.950  0.0561  0.4180  0.9769
  103OSM   C16S10440   6.382   6.196   8.791 -1.1666 -0.5138  0.3434
  103OSM   H16S10441   6.393   6.088   8.814  2.4433 -0.1664  0.8906
  103OSM   H16T10442   6.480   6.237   8.758 -0.2221 -2.0423  1.1668
  103OSM   C17S10443   6.290   6.217   8.671 -0.4032  0.2915 -0.0324
  103OSM   H17S10444   6.273   6.326   8.658  0.1915  0.1858 -1.9365
  103OSM   H17T10445   6.195   6.172   8.707 -0.4127  0.5269  0.2395
  103OSM   C18S10446   6.342   6.155   8.545  0.0502 -0.1524 -0.3380
  103OSM   H18S10447   6.286   6.192   8.456 -1.6159 -0.8512  0.3700
  103OSM   H18T10448   6.340   6.044   8.552 -0.6622 -0.1146  0.1862
  103OSM   H18U10449   6.445   6.189   8.520  0.7087 -1.9626 -0.2103
  103OSM    C1F10450   6.823   6.578  10.364  0.2145 -1.1579  0.8449
  103OSM     OF10451   6.855   6.496  10.450  0.4603  0.6167 -0.3510
  103OSM    C2F10452   6.922   6.668  10.296  0.2032 -0.2126 -0.6213
  103OSM    H2F10453   6.983   6.703  10.382  0.1345  0.9475 -1.0273
  103OSM    H2G10454   6.861   6.751  10.253  0.4012 -1.2281 -3.0285
  103OSM    C3F10455   7.017   6.605  10.196 -0.4805  1.1710 -0.3329
  103OSM    H3F10456   7.091   6.533  10.238 -1.2601 -0.5576 -1.7824
  103OSM    H3G10457   7.067   6.693  10.150 -0.6076  2.4348  1.8395
  103OSM    C4F10458   6.926   6.534  10.085  0.1244 -0.0746 -0.5328
  103OSM    H4F10459   6.841   6.597  10.051  0.8275  1.6433  0.7560
  103OSM    H4G10460   6.891   6.443  10.139 -0.5704  1.4328  1.7423
  103OSM    C5F10461   6.995   6.477   9.966  0.2485 -0.5494 -0.7033
  103OSM    H5F10462   7.074   6.407  10.000  0.8714  0.2710 -0.4070
  103OSM    H5G10463   7.062   6.551   9.915  1.7668 -0.0286  1.8734
  103OSM    C6F10464   6.900   6.402   9.869 -0.1966  0.8686 -0.3017
  103OSM    H6F10465   6.822   6.473   9.833 -1.0091 -0.7866 -1.9709
  103OSM    H6G10466   6.861   6.310   9.916 -1.6053  2.0179  0.8581
  103OSM    C7F10467   6.988   6.370   9.745  0.4565  0.5294 -0.3822
  103OSM    H7F10468   7.078   6.318   9.785 -1.1328 -2.2226 -0.1260
  103OSM    H7G10469   7.024   6.465   9.700  1.2206  0.1092 -0.6794
  103OSM    C8F10470   6.922   6.291   9.631  0.0391 -0.2470  0.1804
  103OSM    H8F10471   6.987   6.284   9.540 -1.9107 -0.9231 -1.2255
  103OSM    H8G10472   6.831   6.342   9.594  0.1228 -0.2254  0.0013
  103OSM    C9F10473   6.877   6.160   9.676 -0.4301  0.2395  0.1063
  103OSM    H9F10474   6.920   6.138   9.774  0.9398 -1.6508 -0.8554
  103OSM   C10F10475   6.803   6.071   9.612  0.0917 -0.4579  0.0415
  103OSM   H10F10476   6.785   5.975   9.662  0.7992  0.0611  1.3676
  103OSM   C11F10477   6.751   6.086   9.469 -0.0414  1.1794 -0.0965
  103OSM   H11F10478   6.783   6.181   9.423  0.8893  0.5249 -0.8457
  103OSM   H11G10479   6.641   6.073   9.477  0.2561 -1.9903  0.4112
  103OSM   C12F10480   6.807   5.971   9.377 -0.3126  0.1049  0.2011
  103OSM   H12F10481   6.827   5.875   9.430 -0.1734  0.2314  0.3814
  103OSM   H12G10482   6.904   6.010   9.337  0.4059  0.7985  2.4890
  103OSM   C13F10483   6.701   5.941   9.271  0.2742 -0.8842  0.3928
  103OSM   H13F10484   6.643   6.034   9.260 -1.7383 -2.1100  0.2265
  103OSM   H13G10485   6.634   5.863   9.313  0.2776 -0.2117  1.6975
  103OSM   C14F10486   6.766   5.910   9.139  0.3445 -0.2017  0.9203
  103OSM   H14F10487   6.709   5.846   9.068  2.2057  0.0549 -0.8987
  103OSM   H14G10488   6.850   5.842   9.166  1.4594 -0.4371 -2.7141
  103OSM   C15F10489   6.823   6.026   9.059  0.2593 -0.4713  0.4031
  103OSM   H15F10490   6.905   6.069   9.120  0.6807 -0.8115  0.0740
  103OSM   H15G10491   6.747   6.107   9.062  0.1019 -0.6330  0.9812
  103OSM   C16F10492   6.855   5.985   8.913  0.7241 -0.1407 -0.0331
  103OSM   H16F10493   6.878   6.078   8.857 -0.6981  2.6300  3.5903
  103OSM   H16G10494   6.758   5.966   8.862  0.5129 -1.2238  0.7241
  103OSM   C17F10495   6.949   5.870   8.890  1.1521 -0.2991 -0.2342
  103OSM   H17F10496   6.901   5.779   8.932  1.7065  0.2441  1.6887
  103OSM   H17G10497   7.035   5.881   8.960  0.9351  0.7481 -0.1204
  103OSM   C18F10498   7.012   5.851   8.746 -0.1650 -0.1015  0.0166
  103OSM   H18F10499   6.942   5.878   8.663  0.4240  0.2333 -0.3777
  103OSM   H18G10500   7.040   5.744   8.733  0.8757  0.4785 -3.7896
  103OSM   H18H10501   7.103   5.914   8.737 -0.6438  0.5187 -0.6117
  104OSM      N10502   0.767   5.353  11.066  0.0534 -0.3332 -0.1502
  104OSM    C1510503   0.668   5.360  11.178 -0.4873  0.0941  0.1579
  104OSM   H15A10504   0.709   5.341  11.277  0.1115 -1.0876 -0.2976
  104OSM   H15B10505   0.586   5.290  11.167 -1.5239  1.2423  0.3488
  104OSM   H15C10506   0.622   5.457  11.174  1.5798  1.1440  0.4951
  104OSM    C1410507   0.871   5.460  11.105  0.6261 -0.1285  0.5659
  104OSM   H14A10508   0.914   5.444  11.203  2.2071 -0.9669 -0.2250
  104OSM   H14B10509   0.829   5.560  11.109  1.4894  0.3723 -1.6021
  104OSM   H14C10510   0.953   5.461  11.035  0.2955  0.0840  0.1794
  104OSM    C1310511   0.824   5.223  11.056 -0.0273 -0.5545  0.4537
  104OSM   H13A10512   0.909   5.224  10.990  0.1335 -4.3172  0.3817
  104OSM   H13B10513   0.754   5.150  11.019  1.6028 -1.7692 -0.3473
  104OSM   H13C10514   0.860   5.197  11.154  0.2435  1.8723  1.0717
  104OSM    C1210515   0.706   5.404  10.937 -0.0606 -0.1370  0.1329
  104OSM   H12A10516   0.772   5.395  10.852  0.9911 -0.8616  1.0068
  104OSM   H12B10517   0.680   5.509  10.947  1.5125  0.2826  0.0461
  104OSM    C1110518   0.583   5.320  10.893 -0.5414 -0.0838  0.3694
  104OSM   H11A10519   0.555   5.386  10.809  2.8781  3.1822  1.5504
  104OSM   H11B10520   0.488   5.329  10.951 -0.9762  0.1819 -0.3583
  104OSM      P10521   0.674   5.148  10.715 -0.1078  0.0713 -0.0583
  104OSM    O1310522   0.773   5.251  10.673 -0.2201 -0.1074  0.3763
  104OSM    O1410523   0.721   5.008  10.713 -0.3232  0.0950  0.1657
  104OSM    O1110524   0.544   5.144  10.616  0.4725 -0.0858  0.2575
  104OSM    O1210525   0.619   5.178  10.857 -0.4415 -0.0959 -0.1121
  104OSM    C1S10526   0.486   5.255  10.545 -0.0440 -0.1279 -0.3374
  104OSM    H1S10527   0.557   5.340  10.550  0.5777 -0.5733 -1.2269
  104OSM    H1T10528   0.394   5.287  10.597  0.0665 -1.1542  0.5116
  104OSM     NF10529   0.450   5.349  10.314 -0.4291 -0.2084  0.0404
  104OSM    HNF10530   0.367   5.346  10.259 -2.0165 -3.6499  2.2825
  104OSM    C2S10531   0.470   5.223  10.395 -0.2181 -0.5983 -0.1125
  104OSM    H2S10532   0.571   5.183  10.372 -0.5233 -1.4428 -0.0477
  104OSM    C3S10533   0.366   5.117  10.356 -0.8060 -0.5158 -0.4760
  104OSM    H3S10534   0.265   5.162  10.347 -0.3250  0.6134 -0.4160
  104OSM     O310535   0.349   5.015  10.453  1.3715  1.1186 -0.4450
  104OSM    HO310536   0.427   5.023  10.509  1.5544  0.7944 -0.6447
  104OSM    C4S10537   0.392   5.063  10.219 -0.3059  0.1854  0.6987
  104OSM    H4S10538   0.364   5.125  10.133 -1.6913  0.3141  1.2137
  104OSM    C5S10539   0.458   4.955  10.190  0.1166  0.4245  0.5037
  104OSM    H5S10540   0.510   4.919  10.280  1.8970  1.4509 -0.0818
  104OSM    C6S10541   0.492   4.890  10.053 -0.4010 -0.4497  0.1386
  104OSM    H6S10542   0.439   4.794  10.040  1.8255 -1.6683 -0.4515
  104OSM    H6T10543   0.599   4.862  10.051 -0.0681  0.6372  1.3253
  104OSM    C7S10544   0.458   4.989   9.937  0.1832  0.1516  0.0632
  104OSM    H7S10545   0.519   5.081   9.953  0.2789  0.0799  0.1089
  104OSM    H7T10546   0.349   5.009   9.950  0.2672 -0.9599  3.6591
  104OSM    C8S10547   0.461   4.920   9.793 -0.1120  0.6765 -0.5518
  104OSM    H8S10548   0.375   4.953   9.731 -2.1588 -0.4501  1.5729
  104OSM    H8T10549   0.464   4.811   9.813 -0.7865  0.5283 -1.2372
  104OSM    C9S10550   0.591   4.940   9.722 -0.5969  0.4461 -0.3186
  104OSM    H9S10551   0.681   4.908   9.779 -2.2304 -0.7419  1.7629
  104OSM    H9T10552   0.610   5.049   9.717 -0.3189  0.4875  1.1757
  104OSM   C10S10553   0.606   4.866   9.585  0.2889 -0.2283  0.0009
  104OSM   H10S10554   0.580   4.761   9.610 -3.3826  0.8505  1.3877
  104OSM   H10T10555   0.710   4.874   9.546 -0.3410 -1.1058 -2.0421
  104OSM   C11S10556   0.521   4.918   9.470 -0.0664 -0.2617  0.0246
  104OSM   H11S10557   0.562   5.012   9.426  0.2781 -1.8310 -3.3114
  104OSM   H11T10558   0.415   4.941   9.491 -0.8545 -1.1405 -2.5903
  104OSM   C12S10559   0.528   4.815   9.355 -0.1930 -0.1252 -0.3136
  104OSM   H12S10560   0.499   4.713   9.388  0.3699 -0.2151 -0.0832
  104OSM   H12T10561   0.631   4.790   9.320 -0.7205 -2.5408 -0.2899
  104OSM   C13S10562   0.446   4.855   9.233  0.3219 -0.2106 -0.8704
  104OSM   H13S10563   0.480   4.956   9.202  0.4360  0.7984  2.1874
  104OSM   H13T10564   0.337   4.856   9.257  0.3472 -2.8068 -0.3204
  104OSM   C14S10565   0.466   4.749   9.132  0.2731 -0.7064  0.2610
  104OSM   H14S10566   0.450   4.645   9.167 -3.1142 -0.0015  1.0735
  104OSM   H14T10567   0.566   4.765   9.084  0.4164  0.4995  0.9391
  104OSM   C15S10568   0.369   4.769   9.014  0.6288  0.6026  0.2553
  104OSM   H15S10569   0.270   4.743   9.056  0.4482 -2.0780 -1.5733
  104OSM   H15T10570   0.387   4.700   8.928 -1.6915 -0.4316  0.5296
  104OSM   C16S10571   0.361   4.907   8.957 -0.0141  0.1908 -0.0456
  104OSM   H16S10572   0.320   4.972   9.037 -1.9672 -1.1174  0.0766
  104OSM   H16T10573   0.288   4.905   8.874 -0.7152 -1.2976  0.5815
  104OSM   C17S10574   0.494   4.972   8.907  0.0626  0.2707  0.0972
  104OSM   H17S10575   0.567   4.968   8.991 -0.3043 -0.7760  0.3781
  104OSM   H17T10576   0.470   5.071   8.862  0.5210  1.0352  1.4698
  104OSM   C18S10577   0.549   4.904   8.779 -0.5058 -0.2485 -0.0920
  104OSM   H18S10578   0.642   4.954   8.744 -0.6623  0.4112  0.3982
  104OSM   H18T10579   0.480   4.903   8.692  1.7015 -0.1036 -1.9342
  104OSM   H18U10580   0.587   4.804   8.808 -0.0331 -0.5059 -1.5716
  104OSM    C1F10581   0.530   5.456  10.313  0.3870  0.0367 -0.3014
  104OSM     OF10582   0.649   5.449  10.353 -0.2517 -0.4433  0.2168
  104OSM    C2F10583   0.467   5.582  10.259 -0.1506 -0.6892  0.0714
  104OSM    H2F10584   0.443   5.664  10.331  1.7743  2.8090 -2.9562
  104OSM    H2G10585   0.383   5.546  10.196  1.1728 -2.1178 -0.9228
  104OSM    C3F10586   0.568   5.641  10.154  0.9727 -0.4774  0.2769
  104OSM    H3F10587   0.661   5.672  10.206  1.2923  0.9867 -1.0926
  104OSM    H3G10588   0.522   5.738  10.127 -0.8734 -1.8928 -2.0916
  104OSM    C4F10589   0.606   5.559  10.031 -0.6330  0.1395 -0.0120
  104OSM    H4F10590   0.655   5.467  10.068  2.8970  2.3356  1.2413
  104OSM    H4G10591   0.667   5.629   9.969 -1.7345  0.4510 -0.7786
  104OSM    C5F10592   0.494   5.525   9.943  0.8786 -0.2766 -0.1193
  104OSM    H5F10593   0.430   5.609   9.908  1.5836  1.2656  2.0362
  104OSM    H5G10594   0.421   5.461   9.997 -1.1425  3.0880  1.5034
  104OSM    C6F10595   0.549   5.463   9.819  0.0996  0.0133  0.4043
  104OSM    H6F10596   0.601   5.367   9.842  0.4227 -0.4851 -2.0922
  104OSM    H6G10597   0.627   5.517   9.763  1.6947 -0.6131  1.9418
  104OSM    C7F10598   0.429   5.427   9.722  0.0497 -1.0020 -0.5205
  104OSM    H7F10599   0.396   5.528   9.691 -1.0496 -0.3828  2.3143
  104OSM    H7G10600   0.351   5.372   9.779  0.0920 -0.8372 -0.3035
  104OSM    C8F10601   0.477   5.339   9.612 -0.2350  0.1036  0.8283
  104OSM    H8F10602   0.394   5.297   9.552  0.9862 -2.7880  1.0260
  104OSM    H8G10603   0.518   5.242   9.647  0.6862  0.2757  0.2681
  104OSM    C9F10604   0.571   5.394   9.505 -0.0518 -0.2047  0.3190
  104OSM    H9F10605   0.670   5.407   9.551  0.5404 -0.8258 -0.7370
  104OSM   C10F10606   0.547   5.414   9.369  0.5138  0.3088 -0.2538
  104OSM   H10F10607   0.630   5.441   9.302  1.2354  3.1182  1.6064
  104OSM   C11F10608   0.415   5.393   9.299  0.1259  0.8116  0.1161
  104OSM   H11F10609   0.324   5.377   9.362 -0.0609 -0.0130 -0.3434
  104OSM   H11G10610   0.424   5.294   9.249 -0.5130 -1.5335  4.2103
  104OSM   C12F10611   0.368   5.497   9.194  0.1164 -0.0739  0.3666
  104OSM   H12F10612   0.329   5.590   9.241 -2.6109 -1.1072  0.2695
  104OSM   H12G10613   0.279   5.446   9.153  0.3931  0.0459 -0.4077
  104OSM   C13F10614   0.467   5.521   9.073 -0.0045  0.3017  0.3588
  104OSM   H13F10615   0.566   5.551   9.115  0.6590 -1.6221  0.2848
  104OSM   H13G10616   0.418   5.603   9.017 -1.0088 -1.9950 -2.3544
  104OSM   C14F10617   0.512   5.390   8.995  0.3242 -1.2875 -0.2990
  104OSM   H14F10618   0.416   5.342   8.962 -1.1147  2.4259 -2.0870
  104OSM   H14G10619   0.556   5.320   9.069 -2.2861 -0.9325  1.7488
  104OSM   C15F10620   0.608   5.414   8.878  0.3972 -0.1096 -0.3287
  104OSM   H15F10621   0.634   5.318   8.828 -1.2334 -0.5388 -0.4104
  104OSM   H15G10622   0.697   5.466   8.919  0.2587  0.9366 -1.2839
  104OSM   C16F10623   0.560   5.508   8.770 -0.7126 -0.3019 -0.7611
  104OSM   H16F10624   0.556   5.609   8.816 -0.5948 -0.1280 -1.1210
  104OSM   H16G10625   0.459   5.495   8.726  0.2409 -1.9886 -2.6183
  104OSM   C17F10626   0.669   5.524   8.654  0.0255 -0.2943 -0.2057
  104OSM   H17F10627   0.684   5.421   8.616 -1.9003 -1.0003  0.7753
  104OSM   H17G10628   0.761   5.557   8.706  0.2507  1.7231 -1.7406
  104OSM   C18F10629   0.637   5.607   8.529 -0.0364 -0.6948 -0.2590
  104OSM   H18F10630   0.731   5.618   8.469  0.5010  1.8187  0.9219
  104OSM   H18G10631   0.599   5.709   8.549  2.5515  0.1375  0.8567
  104OSM   H18H10632   0.558   5.548   8.478  0.7657 -0.5855 -1.7085
  105OSM      N10633   2.949   0.976  11.160  0.3338 -0.5968  0.5436
  105OSM    C1510634   2.809   1.010  11.201  0.6525  0.7438 -0.5985
  105OSM   H15A10635   2.770   1.084  11.132 -1.8975  0.9644  0.9516
  105OSM   H15B10636   2.796   1.046  11.302 -3.2411 -1.4056 -0.1232
  105OSM   H15C10637   2.746   0.926  11.176 -0.6028  1.8386 -1.2729
  105OSM    C1410638   3.027   1.102  11.168 -0.6294 -0.3202  0.2510
  105OSM   H14A10639   3.000   1.160  11.256 -1.0209  1.2028 -0.8384
  105OSM   H14B10640   3.020   1.168  11.084  0.1664  0.9203  1.1308
  105OSM   H14C10641   3.129   1.084  11.198 -0.0642  0.6096 -1.0920
  105OSM    C1310642   3.002   0.879  11.268 -0.3365 -0.5531  0.7466
  105OSM   H13A10643   2.938   0.793  11.276  0.2670 -0.9639  1.2373
  105OSM   H13B10644   2.999   0.933  11.361 -1.5564 -1.5063  1.2846
  105OSM   H13C10645   3.094   0.826  11.247 -0.6382 -0.6334 -0.4703
  105OSM    C1210646   2.943   0.911  11.023 -0.6600 -0.6176  0.2240
  105OSM   H12A10647   3.038   0.870  10.991  0.4077  3.1554 -2.1416
  105OSM   H12B10648   2.916   0.996  10.962 -1.6288  0.0011  1.4733
  105OSM    C1110649   2.835   0.806  11.013  0.1628 -0.4022  0.4051
  105OSM   H11A10650   2.835   0.735  11.099  1.0994 -0.3296  0.4809
  105OSM   H11B10651   2.861   0.742  10.926  1.8769  1.8451 -0.8349
  105OSM      P10652   2.586   0.774  10.948 -0.1163 -0.1199  0.1797
  105OSM    O1310653   2.559   0.694  11.064 -0.0808 -0.0661 -0.2093
  105OSM    O1410654   2.472   0.851  10.889 -0.2451  0.1000  0.0545
  105OSM    O1110655   2.643   0.685  10.829 -0.0965 -0.5108 -0.5826
  105OSM    O1210656   2.708   0.868  10.979 -0.4483 -0.0322 -0.4737
  105OSM    C1S10657   2.684   0.746  10.704  0.7183  0.5855 -0.1996
  105OSM    H1S10658   2.732   0.844  10.722 -1.5951  1.4668  1.8513
  105OSM    H1T10659   2.591   0.775  10.649 -1.3985 -2.0067  1.7250
  105OSM     NF10660   2.800   0.706  10.497  0.3286  0.2276  0.3950
  105OSM    HNF10661   2.732   0.717  10.425 -0.2047 -1.3041  0.6323
  105OSM    C2S10662   2.750   0.644  10.619  0.8786  0.7729  0.2773
  105OSM    H2S10663   2.837   0.601  10.672  1.8852 -1.7250 -3.0245
  105OSM    C3S10664   2.655   0.523  10.598  1.3771 -0.1276  0.6668
  105OSM    H3S10665   2.560   0.560  10.555  0.7271  0.0651  2.2203
  105OSM     O310666   2.601   0.456  10.717 -0.0096 -0.1600  0.9206
  105OSM    HO310667   2.632   0.508  10.791 -0.8275  2.3354 -0.3671
  105OSM    C4S10668   2.717   0.426  10.494  0.0054 -0.0038 -0.4662
  105OSM    H4S10669   2.733   0.479  10.399 -1.5097  0.3733 -0.5337
  105OSM    C5S10670   2.757   0.296  10.506 -0.7096 -0.2342  0.4056
  105OSM    H5S10671   2.748   0.253  10.607 -0.4638  2.2166  1.5392
  105OSM    C6S10672   2.810   0.218  10.384 -0.1999 -0.0853  0.4248
  105OSM    H6S10673   2.779   0.111  10.390  1.3679 -0.5475  1.0433
  105OSM    H6T10674   2.921   0.230  10.384 -0.2165  0.1931 -0.9511
  105OSM    C7S10675   2.777   0.281  10.246 -0.5114  0.5751  0.5166
  105OSM    H7S10676   2.816   0.385  10.246 -1.7731  1.3444 -4.7715
  105OSM    H7T10677   2.670   0.293  10.222 -1.1541  1.4196  3.4465
  105OSM    C8S10678   2.839   0.206  10.135 -0.1310  0.4087  0.2600
  105OSM    H8S10679   2.824   0.099  10.162 -0.3399  0.1441 -0.8832
  105OSM    H8T10680   2.949   0.225  10.132  0.0506 -0.6206 -0.2453
  105OSM    C9S10681   2.798   0.246   9.988 -0.1701  0.3833 -0.2357
  105OSM    H9S10682   2.837   0.343   9.950 -0.6193  0.9319  0.6562
  105OSM    H9T10683   2.691   0.272  10.003  0.6041  3.0823  1.3998
  105OSM   C10S10684   2.816   0.126   9.884  0.1576  0.0209 -0.3267
  105OSM   H10S10685   2.751   0.041   9.917  1.5579  0.2778  3.6064
  105OSM   H10T10686   2.922   0.092   9.890  0.4955  0.7702 -1.6872
  105OSM   C11S10687   2.797   0.163   9.740 -0.1099  0.3299  0.5692
  105OSM   H11S10688   2.871   0.242   9.716  1.7911 -1.7835 -0.9085
  105OSM   H11T10689   2.695   0.195   9.708  1.0818  1.0539 -2.9638
  105OSM   C12S10690   2.815   0.043   9.641  0.2443  0.1724 -0.3186
  105OSM   H12S10691   2.736  -0.033   9.661  0.1498  0.1793 -0.6628
  105OSM   H12T10692   2.910  -0.000   9.680  0.6775  1.2392 -0.1569
  105OSM   C13S10693   2.823   0.075   9.486  0.2351 -0.1538  0.1676
  105OSM   H13S10694   2.886   0.166   9.475  0.0892 -0.2256 -1.5514
  105OSM   H13T10695   2.721   0.096   9.450 -0.9635  1.7127  4.0807
  105OSM   C14S10696   2.903  -0.027   9.396 -0.8447  0.2609 -0.4695
  105OSM   H14S10697   2.859  -0.128   9.408  0.9259 -0.7209 -1.7476
  105OSM   H14T10698   3.008  -0.029   9.432 -0.6988  0.4716 -0.8794
  105OSM   C15S10699   2.922  -0.005   9.249 -0.2775 -0.2963  0.5389
  105OSM   H15S10700   2.829   0.016   9.192  0.6246  3.5511  0.2215
  105OSM   H15T10701   2.960  -0.103   9.214 -2.9265 -1.0574 -0.4419
  105OSM   C16S10702   3.014   0.116   9.224 -0.2268 -1.2065  0.7811
  105OSM   H16S10703   3.119   0.099   9.254 -0.1747  0.1775  1.4617
  105OSM   H16T10704   2.963   0.203   9.271 -2.0465 -1.4287 -0.6284
  105OSM   C17S10705   3.034   0.167   9.081  1.3754  0.3057 -0.0532
  105OSM   H17S10706   2.942   0.222   9.052  0.2313 -0.1114  2.4851
  105OSM   H17T10707   3.049   0.085   9.008 -1.2578  1.8075 -2.4990
  105OSM   C18S10708   3.147   0.263   9.055 -0.0969  0.0150  0.1719
  105OSM   H18S10709   3.163   0.281   8.946  0.8443 -1.0297  0.1140
  105OSM   H18T10710   3.246   0.228   9.091  0.8992  0.4320 -1.9720
  105OSM   H18U10711   3.126   0.363   9.097  0.9336  0.1569  0.3776
  105OSM    C1F10712   2.898   0.782  10.493 -0.1399  0.9669 -0.0788
  105OSM     OF10713   2.969   0.793  10.591  0.4624  0.1827  0.5455
  105OSM    C2F10714   2.911   0.864  10.371  0.5490 -0.4194  0.5042
  105OSM    H2F10715   2.829   0.938  10.361  0.2542 -0.9406 -1.4466
  105OSM    H2G10716   2.898   0.790  10.289 -0.8643 -1.1683  1.3600
  105OSM    C3F10717   3.049   0.934  10.346  0.2845 -0.0876  0.5217
  105OSM    H3F10718   3.137   0.868  10.362  0.3469 -0.5306 -1.3914
  105OSM    H3G10719   3.057   1.007  10.429  1.5556  2.1870 -1.4596
  105OSM    C4F10720   3.046   1.017  10.214 -0.4331  0.3228 -0.4762
  105OSM    H4F10721   3.130   1.089  10.209  0.6542 -0.9872 -3.9580
  105OSM    H4G10722   2.947   1.066  10.229 -1.2596 -1.6913  0.9485
  105OSM    C5F10723   3.048   0.939  10.082 -0.4089  0.3568  0.2518
  105OSM    H5F10724   3.019   0.838  10.116  1.1100 -0.4186 -0.6317
  105OSM    H5G10725   3.153   0.936  10.045  0.0163  1.8220  1.2312
  105OSM    C6F10726   2.956   1.001   9.978  0.7047  0.0959  0.1629
  105OSM    H6F10727   2.849   0.980  10.002  0.6518  0.0714 -0.0962
  105OSM    H6G10728   2.984   0.946   9.886 -0.9820 -0.8275  0.1583
  105OSM    C7F10729   2.980   1.150   9.964  0.2571  0.4027 -0.4211
  105OSM    H7F10730   2.943   1.199  10.056  0.0036 -0.3966 -0.0902
  105OSM    H7G10731   2.914   1.188   9.883  1.8539 -0.1396 -2.0646
  105OSM    C8F10732   3.128   1.193   9.932  0.1030 -0.4534  0.2716
  105OSM    H8F10733   3.141   1.135   9.838  2.0998 -0.0585  0.2612
  105OSM    H8G10734   3.193   1.147  10.010 -0.9474  0.0073  1.4415
  105OSM    C9F10735   3.143   1.346   9.906  0.7142  0.1792 -0.3967
  105OSM    H9F10736   3.141   1.419   9.988 -0.5849 -1.8996  1.5505
  105OSM   C10F10737   3.151   1.404   9.780  0.5587  0.3282 -0.6358
  105OSM   H10F10738   3.186   1.508   9.771  0.2147  0.5020 -0.0241
  105OSM   C11F10739   3.151   1.338   9.649 -0.1837  0.5984  0.3925
  105OSM   H11F10740   3.068   1.370   9.583  0.1052  0.2720 -0.1427
  105OSM   H11G10741   3.179   1.231   9.662 -0.5125  0.6566  1.7674
  105OSM   C12F10742   3.269   1.410   9.576  0.0738 -0.3386 -0.1779
  105OSM   H12F10743   3.362   1.376   9.625  0.5852  2.1722  0.7721
  105OSM   H12G10744   3.262   1.520   9.595 -0.7335 -0.7126  1.8832
  105OSM   C13F10745   3.272   1.382   9.427 -0.1541  0.0584  0.1886
  105OSM   H13F10746   3.167   1.372   9.392  0.2944 -3.3386 -0.5629
  105OSM   H13G10747   3.299   1.276   9.406  0.8487  0.5872 -1.3692
  105OSM   C14F10748   3.350   1.471   9.342  0.2927 -0.0492  0.7187
  105OSM   H14F10749   3.453   1.484   9.379 -0.5551  2.3075  2.4870
  105OSM   H14G10750   3.305   1.572   9.352  0.8983  0.2843  0.1649
  105OSM   C15F10751   3.341   1.426   9.197 -0.0048  0.6173 -0.4748
  105OSM   H15F10752   3.406   1.337   9.183  0.9023  1.2673 -0.5282
  105OSM   H15G10753   3.386   1.513   9.144 -1.9252  2.4770  0.8320
  105OSM   C16F10754   3.201   1.414   9.133 -0.5164  0.0485  0.0907
  105OSM   H16F10755   3.145   1.507   9.154  0.2158  0.6469 -0.5750
  105OSM   H16G10756   3.162   1.321   9.179  0.5056  0.0650  1.0300
  105OSM   C17F10757   3.219   1.410   8.986 -0.3221  0.3656  0.0112
  105OSM   H17F10758   3.288   1.485   8.942  0.4088  0.2341  0.9140
  105OSM   H17G10759   3.120   1.436   8.941 -0.1909  1.4563  0.3427
  105OSM   C18F10760   3.252   1.276   8.919 -0.0471 -0.3706 -0.3901
  105OSM   H18F10761   3.361   1.260   8.935 -0.3339 -2.1253 -0.0213
  105OSM   H18G10762   3.223   1.268   8.812  0.1881  0.0030 -0.4849
  105OSM   H18H10763   3.210   1.195   8.982  1.4974 -0.0891  1.0633
  106OSM      N10764   1.718   1.247  10.746  0.7225 -0.1056  0.0203
  106OSM    C1510765   1.568   1.270  10.766 -0.0131 -0.0308  0.0622
  106OSM   H15A10766   1.556   1.376  10.756 -0.3491  0.0213  0.9659
  106OSM   H15B10767   1.535   1.235  10.862 -1.3980  0.6965 -0.1315
  106OSM   H15C10768   1.515   1.220  10.686  0.6440  0.8826 -0.9715
  106OSM    C1410769   1.763   1.108  10.768 -0.3790  0.9146  0.4330
  106OSM   H14A10770   1.870   1.105  10.751 -0.2470  4.8641 -0.3004
  106OSM   H14B10771   1.718   1.037  10.700  0.2443  1.0937 -0.1777
  106OSM   H14C10772   1.734   1.087  10.870 -0.7249  0.6883  0.2907
  106OSM    C1310773   1.748   1.293  10.603  0.8922 -0.3168 -0.1415
  106OSM   H13A10774   1.850   1.265  10.581  2.4528  0.9776  4.3316
  106OSM   H13B10775   1.724   1.397  10.591  1.3070 -0.0977  0.8361
  106OSM   H13C10776   1.680   1.236  10.541  1.2468 -0.5441 -0.3207
  106OSM    C1210777   1.795   1.340  10.838 -0.5222  0.0885  0.0876
  106OSM   H12A10778   1.765   1.323  10.940 -0.4052 -0.5442  0.0167
  106OSM   H12B10779   1.771   1.440  10.804  0.9367  0.2763 -0.4521
  106OSM    C1110780   1.950   1.344  10.824  0.0340 -0.1202 -0.3714
  106OSM   H11A10781   1.993   1.402  10.909 -1.3412  0.1108  0.1881
  106OSM   H11B10782   1.965   1.399  10.728  0.4756 -0.3854 -0.4604
  106OSM      P10783   2.170   1.187  10.838 -0.1699 -0.4085  0.4536
  106OSM    O1310784   2.250   1.309  10.809  0.4986 -0.2642 -0.3210
  106OSM    O1410785   2.190   1.122  10.971 -0.1796 -0.7023  0.1979
  106OSM    O1110786   2.203   1.089  10.718  0.2487 -0.2218 -0.2310
  106OSM    O1210787   2.013   1.213  10.814  0.0029  0.0631  0.2083
  106OSM    C1S10788   2.149   1.107  10.587 -0.1647  0.1104 -1.0317
  106OSM    H1S10789   2.177   1.204  10.542 -0.7840  0.9209  0.2786
  106OSM    H1T10790   2.039   1.093  10.595 -0.0053 -0.0742  2.7200
  106OSM     NF10791   2.179   1.019  10.357  0.0610 -0.2102  0.2761
  106OSM    HNF10792   2.113   0.959  10.312 -1.2416  0.8796  0.6605
  106OSM    C2S10793   2.215   0.994  10.492  0.2995 -0.4130 -0.4707
  106OSM    H2S10794   2.325   1.007  10.488  0.0131  2.6979 -0.4689
  106OSM    C3S10795   2.169   0.852  10.542 -0.9742 -0.3168  0.3067
  106OSM    H3S10796   2.058   0.846  10.538 -0.9437 -0.7778  0.0025
  106OSM     O310797   2.195   0.829  10.676 -1.2317  0.0872 -0.7180
  106OSM    HO310798   2.236   0.910  10.708  0.5418 -0.3254 -1.7754
  106OSM    C4S10799   2.238   0.748  10.460 -0.1482  0.1767  0.9107
  106OSM    H4S10800   2.318   0.783  10.393 -0.9446  1.2702  0.5090
  106OSM    C5S10801   2.212   0.621  10.451  0.5267  0.3406  0.1835
  106OSM    H5S10802   2.132   0.576  10.512  0.5736 -1.5927 -1.0670
  106OSM    C6S10803   2.276   0.512  10.374 -0.7313 -0.1066  0.5542
  106OSM    H6S10804   2.368   0.481  10.428  0.4267  2.2797  0.0532
  106OSM    H6T10805   2.293   0.554  10.273  1.2952  4.4399  2.5109
  106OSM    C7S10806   2.190   0.381  10.364  0.2684 -0.2687  0.4002
  106OSM    H7S10807   2.087   0.393  10.323 -0.5589  0.9397  2.6451
  106OSM    H7T10808   2.173   0.336  10.464 -1.5344  2.6686  1.5388
  106OSM    C8S10809   2.265   0.285  10.276 -0.9664  0.9802  0.2385
  106OSM    H8S10810   2.222   0.183  10.291  1.3897 -0.1019  0.1234
  106OSM    H8T10811   2.373   0.286  10.304 -0.6431  4.2690 -0.7142
  106OSM    C9S10812   2.257   0.312  10.129 -0.2607  0.2320  0.0811
  106OSM    H9S10813   2.258   0.421  10.110  0.4007  0.6355  2.1951
  106OSM    H9T10814   2.153   0.281  10.104 -0.6162  0.1407  1.5817
  106OSM   C10S10815   2.360   0.239  10.036  0.0586  0.0022  0.8890
  106OSM   H10S10816   2.368   0.131  10.058 -1.1764 -0.4574 -0.6757
  106OSM   H10T10817   2.456   0.292  10.051  2.2925 -3.5506  0.1624
  106OSM   C11S10818   2.303   0.244   9.887 -0.0488 -0.4786 -0.2485
  106OSM   H11S10819   2.265   0.345   9.862 -1.5390 -0.4773  1.7331
  106OSM   H11T10820   2.223   0.166   9.889  1.1101 -1.7033  0.4132
  106OSM   C12S10821   2.411   0.204   9.781  0.0293  0.0872 -0.5844
  106OSM   H12S10822   2.464   0.109   9.807  0.6607  0.7312  0.5738
  106OSM   H12T10823   2.496   0.274   9.790  0.1630  0.1572 -2.1389
  106OSM   C13S10824   2.361   0.215   9.635  0.3257  0.7187 -0.5504
  106OSM   H13S10825   2.329   0.318   9.609 -2.0442 -0.1980 -1.5795
  106OSM   H13T10826   2.270   0.151   9.625  1.0227 -0.6038  0.9822
  106OSM   C14S10827   2.454   0.159   9.526  0.1443  0.0038  0.8521
  106OSM   H14S10828   2.510   0.068   9.559  2.5061  0.5083 -1.3787
  106OSM   H14T10829   2.536   0.233   9.518 -0.1165  0.1765 -0.5526
  106OSM   C15S10830   2.381   0.142   9.381  0.2527 -0.8507  0.1598
  106OSM   H15S10831   2.339   0.243   9.365  0.6763 -0.8266 -0.8693
  106OSM   H15T10832   2.287   0.083   9.391 -2.2680  2.8830  0.2838
  106OSM   C16S10833   2.476   0.104   9.267  0.8078  0.5558  0.1356
  106OSM   H16S10834   2.499  -0.003   9.282  0.8595  0.7955  1.9708
  106OSM   H16T10835   2.572   0.159   9.263  1.0928  0.0286 -0.6908
  106OSM   C17S10836   2.398   0.110   9.131  0.0171  0.3599 -0.2896
  106OSM   H17S10837   2.348   0.209   9.134 -1.5570 -0.4325  1.3822
  106OSM   H17T10838   2.321   0.031   9.121  2.3612 -2.2796  0.9543
  106OSM   C18S10839   2.490   0.095   9.009  0.4073 -0.1237  0.0349
  106OSM   H18S10840   2.540  -0.003   9.020 -0.3262 -0.2328  4.2073
  106OSM   H18T10841   2.568   0.174   9.009  1.2272 -0.9137  0.1010
  106OSM   H18U10842   2.447   0.112   8.908 -0.0623  1.1214  0.4208
  106OSM    C1F10843   2.223   1.118  10.283 -0.5196  0.4815  0.1262
  106OSM     OF10844   2.315   1.184  10.323  0.5075 -0.3561 -0.2006
  106OSM    C2F10845   2.154   1.130  10.154  0.2728  0.2686 -0.2114
  106OSM    H2F10846   2.124   1.236  10.136  0.1381 -0.0127 -1.8740
  106OSM    H2G10847   2.064   1.066  10.150  0.5373 -0.0638 -1.3937
  106OSM    C3F10848   2.247   1.108  10.032  0.0550 -0.4774  0.0171
  106OSM    H3F10849   2.294   1.008  10.046 -0.5968 -1.0452 -1.5693
  106OSM    H3G10850   2.328   1.183  10.042  0.1835 -0.5631 -0.3745
  106OSM    C4F10851   2.162   1.117   9.905 -0.2727  0.8956 -0.2201
  106OSM    H4F10852   2.125   1.221   9.892  1.4358  1.3336 -2.1122
  106OSM    H4G10853   2.078   1.044   9.910 -0.1485  0.7454 -0.3102
  106OSM    C5F10854   2.259   1.089   9.786  0.4589 -0.4585  0.2042
  106OSM    H5F10855   2.297   0.984   9.788 -1.1329 -1.0641  0.1282
  106OSM    H5G10856   2.349   1.154   9.789  0.0351  0.4219 -3.0974
  106OSM    C6F10857   2.194   1.117   9.649 -0.3539  0.1151 -0.0327
  106OSM    H6F10858   2.278   1.111   9.577  0.7322 -0.1695  1.2019
  106OSM    H6G10859   2.157   1.222   9.649 -0.2989  0.1522  1.0374
  106OSM    C7F10860   2.093   1.011   9.598 -0.2451 -0.4982  0.2985
  106OSM    H7F10861   1.995   1.033   9.645 -1.3509  0.2808 -2.2124
  106OSM    H7G10862   2.125   0.912   9.638 -0.6309 -0.6192  0.3195
  106OSM    C8F10863   2.066   1.025   9.444 -0.1437 -0.1955  0.7724
  106OSM    H8F10864   2.047   1.131   9.416 -0.3163 -0.4056  0.0749
  106OSM    H8G10865   1.972   0.967   9.434 -0.0841 -0.4229  1.4720
  106OSM    C9F10866   2.185   0.958   9.381 -0.5860 -0.1100 -0.1273
  106OSM    H9F10867   2.287   0.988   9.408 -0.1645 -1.6151  0.0725
  106OSM   C10F10868   2.174   0.858   9.292 -0.0394  0.6301  0.5270
  106OSM   H10F10869   2.257   0.805   9.242 -1.4422 -3.1534  1.8284
  106OSM   C11F10870   2.056   0.797   9.223  0.0228 -0.0327 -0.6455
  106OSM   H11F10871   1.958   0.835   9.262 -1.1627 -0.2450 -3.2204
  106OSM   H11G10872   2.044   0.690   9.250 -1.1839  0.3545  0.4708
  106OSM   C12F10873   2.063   0.826   9.076 -0.5988  0.1422 -0.2872
  106OSM   H12F10874   1.979   0.772   9.026  0.8007 -0.5541 -1.9935
  106OSM   H12G10875   2.154   0.788   9.024  0.3064  0.6265  0.9008
  106OSM   C13F10876   2.039   0.970   9.038  0.3125  0.2023  0.2339
  106OSM   H13F10877   2.126   1.038   9.052 -0.2857  1.0965 -0.3162
  106OSM   H13G10878   1.956   1.010   9.100 -0.9745  0.3145 -1.4989
  106OSM   C14F10879   2.002   0.974   8.892 -0.0876  0.1661 -0.0905
  106OSM   H14F10880   1.914   0.915   8.859  0.5530 -0.4237 -0.7769
  106OSM   H14G10881   2.089   0.932   8.836 -1.4891 -1.9070 -0.8369
  106OSM   C15F10882   1.974   1.119   8.854 -0.2751  0.0050  0.6837
  106OSM   H15F10883   2.044   1.184   8.911 -0.6269  2.1815 -1.1730
  106OSM   H15G10884   1.870   1.150   8.880  0.1247  0.7755  1.4138
  106OSM   C16F10885   1.989   1.143   8.706  0.5355  0.0655  0.4647
  106OSM   H16F10886   2.072   1.098   8.648 -0.8610 -1.5778 -0.3264
  106OSM   H16G10887   1.993   1.255   8.707 -0.1860  0.0930  0.6820
  106OSM   C17F10888   1.869   1.081   8.618 -0.0790 -0.0739 -0.2997
  106OSM   H17F10889   1.776   1.130   8.652 -0.5489 -1.1944  0.0671
  106OSM   H17G10890   1.873   0.975   8.650  2.9489  0.1315  0.3333
  106OSM   C18F10891   1.876   1.092   8.466  0.2391 -0.1267 -0.7669
  106OSM   H18F10892   1.905   1.196   8.438 -1.8824  0.9497  0.6896
  106OSM   H18G10893   1.779   1.062   8.419  0.4121 -0.0664 -1.1684
  106OSM   H18H10894   1.958   1.027   8.431  2.0387  0.7620  1.5554
  107OSM      N10895   5.947   5.490  11.029  0.9840 -0.1146 -0.1521
  107OSM    C1510896   5.796   5.484  11.048 -0.7909  0.8236 -0.7550
  107OSM   H15A10897   5.767   5.381  11.059 -0.2747  0.8990  2.4712
  107OSM   H15B10898   5.751   5.514  10.955  1.1482 -0.7808 -2.2949
  107OSM   H15C10899   5.764   5.536  11.138  0.1117 -2.8159  1.9158
  107OSM    C1410900   5.975   5.626  10.970  0.3504  0.2304 -0.1634
  107OSM   H14A10901   5.935   5.619  10.871  0.3174 -0.1058 -0.1259
  107OSM   H14B10902   6.083   5.639  10.967  0.6047 -1.7724 -1.6206
  107OSM   H14C10903   5.929   5.704  11.029 -3.1674 -0.2477 -2.0066
  107OSM    C1310904   6.016   5.493  11.159 -0.5648 -0.5207 -0.2411
  107OSM   H13A10905   6.007   5.399  11.211  2.6249 -1.8543 -1.8328
  107OSM   H13B10906   5.982   5.579  11.214  2.1286  1.1620 -1.0185
  107OSM   H13C10907   6.124   5.503  11.153 -0.7409  4.4682  1.0133
  107OSM    C1210908   5.991   5.380  10.936  0.0677 -0.7741  0.2673
  107OSM   H12A10909   6.099   5.377  10.931  0.0939 -1.7660  1.1288
  107OSM   H12B10910   5.969   5.390  10.831  3.1753  0.2008 -0.3942
  107OSM    C1110911   5.957   5.231  10.980 -0.4327  0.4535  0.0240
  107OSM   H11A10912   5.996   5.220  11.084  0.9501  1.9639 -0.3034
  107OSM   H11B10913   6.029   5.167  10.924 -0.2535 -0.3788  1.1729
  107OSM      P10914   5.760   5.142  10.830 -0.1718  0.4874  0.1477
  107OSM    O1310915   5.759   4.996  10.804  0.3884  0.7981  0.1181
  107OSM    O1410916   5.630   5.207  10.824  0.8072  0.2500  0.8369
  107OSM    O1110917   5.856   5.214  10.723 -0.1371 -0.0811 -0.3149
  107OSM    O1210918   5.816   5.189  10.970 -0.0239 -0.1183 -0.3414
  107OSM    C1S10919   5.826   5.189  10.584 -0.3309 -0.1689  0.7060
  107OSM    H1S10920   5.789   5.086  10.565 -1.5710  0.6416 -1.6272
  107OSM    H1T10921   5.922   5.190  10.529 -0.1813 -0.4947  0.9603
  107OSM     NF10922   5.699   5.240  10.388  0.0512 -0.2975 -0.0196
  107OSM    HNF10923   5.751   5.275  10.311  1.0387 -0.3466  0.6148
  107OSM    C2S10924   5.731   5.291  10.516 -0.2513  0.0201  0.5303
  107OSM    H2S10925   5.640   5.290  10.580  0.2414  2.6237  1.3876
  107OSM    C3S10926   5.806   5.431  10.512 -0.0417  0.3361  0.9838
  107OSM    H3S10927   5.906   5.419  10.466 -0.6068  0.3506 -0.2867
  107OSM     O310928   5.828   5.472  10.644 -0.1822 -0.4997 -0.1253
  107OSM    HO310929   5.809   5.396  10.700  1.2444 -1.3968 -0.7966
  107OSM    C4S10930   5.736   5.551  10.448  0.6300  0.1608 -0.1855
  107OSM    H4S10931   5.646   5.585  10.501  0.1414  0.0318 -0.9156
  107OSM    C5S10932   5.775   5.616  10.343 -0.0483 -0.3596  0.9195
  107OSM    H5S10933   5.857   5.576  10.282 -0.3785  0.0338  0.1966
  107OSM    C6S10934   5.698   5.730  10.283 -0.3927 -0.3599 -0.8421
  107OSM    H6S10935   5.613   5.684  10.229 -0.5512  0.1602 -1.0447
  107OSM    H6T10936   5.759   5.761  10.195  2.5804 -4.2453 -0.4295
  107OSM    C7S10937   5.648   5.848  10.374  0.5099 -0.6582  0.7445
  107OSM    H7S10938   5.731   5.905  10.420  1.1542 -1.0971  0.1381
  107OSM    H7T10939   5.583   5.811  10.456  0.7567  1.4801  1.9742
  107OSM    C8S10940   5.569   5.962  10.289 -0.1639 -1.4526 -0.3683
  107OSM    H8S10941   5.525   6.033  10.362  0.2677 -1.5573  0.0015
  107OSM    H8T10942   5.495   5.913  10.223  0.3174 -2.0547 -0.4744
  107OSM    C9S10943   5.663   6.043  10.200 -0.8283  0.2096  0.2777
  107OSM    H9S10944   5.700   5.982  10.114 -0.2855 -0.7393  1.1487
  107OSM    H9T10945   5.752   6.090  10.247  0.2290 -0.2668 -1.1613
  107OSM   C10S10946   5.596   6.175  10.142 -0.7660  0.1427 -0.3120
  107OSM   H10S10947   5.580   6.241  10.230  1.2621 -1.7617  1.5930
  107OSM   H10T10948   5.503   6.139  10.092 -1.7685  0.1211  1.4882
  107OSM   C11S10949   5.684   6.233  10.032 -0.2636  0.3027 -0.3099
  107OSM   H11S10950   5.703   6.167   9.945  0.5086 -0.0875  0.1369
  107OSM   H11T10951   5.783   6.248  10.080 -0.1622 -4.8611  1.7207
  107OSM   C12S10952   5.636   6.365   9.975 -0.1868  0.3551 -0.3449
  107OSM   H12S10953   5.636   6.454  10.041 -1.5763 -0.8125  1.3249
  107OSM   H12T10954   5.546   6.357   9.909  0.2514  0.0787 -0.9166
  107OSM   C13S10955   5.744   6.399   9.865 -0.2116 -0.4981  0.0466
  107OSM   H13S10956   5.840   6.357   9.902  0.0231 -0.9274 -1.0239
  107OSM   H13T10957   5.768   6.507   9.866  2.2054 -0.9772  1.1220
  107OSM   C14S10958   5.727   6.353   9.722 -1.4211 -0.3803  0.2932
  107OSM   H14S10959   5.624   6.381   9.694 -1.2677  1.0995  1.1123
  107OSM   H14T10960   5.758   6.246   9.714 -1.1575 -0.4175  1.5878
  107OSM   C15S10961   5.830   6.417   9.635 -0.3272 -0.2962 -0.1004
  107OSM   H15S10962   5.922   6.355   9.641  0.0692  0.3273  0.4305
  107OSM   H15T10963   5.854   6.523   9.661 -1.7053  0.0105 -0.0220
  107OSM   C16S10964   5.797   6.412   9.488  0.4627 -0.1233  0.5128
  107OSM   H16S10965   5.698   6.459   9.473  0.9528  0.6018 -0.5859
  107OSM   H16T10966   5.796   6.307   9.451  0.8787  0.9626 -3.0201
  107OSM   C17S10967   5.899   6.488   9.404 -0.7692 -0.1165  0.0356
  107OSM   H17S10968   6.001   6.448   9.422 -0.2121  0.6224 -1.3423
  107OSM   H17T10969   5.893   6.596   9.431 -0.1089  0.0163 -0.3483
  107OSM   C18S10970   5.867   6.494   9.257 -0.9401 -0.2261 -0.3999
  107OSM   H18S10971   5.848   6.392   9.216  0.8763 -1.2531  1.1330
  107OSM   H18T10972   5.957   6.541   9.214 -0.7720  1.1450  1.3441
  107OSM   H18U10973   5.783   6.561   9.230 -0.0777  2.1430  2.3089
  107OSM    C1F10974   5.592   5.168  10.369  0.6511  0.4343 -0.3281
  107OSM     OF10975   5.528   5.117  10.459 -0.2854 -0.3845  0.1719
  107OSM    C2F10976   5.553   5.146  10.225  0.1454 -1.1400 -1.0642
  107OSM    H2F10977   5.592   5.048  10.192  2.3254  0.2756 -2.9810
  107OSM    H2G10978   5.597   5.217  10.152  1.4811 -0.6284  0.1901
  107OSM    C3F10979   5.400   5.168  10.202  0.5004  0.7874 -0.1347
  107OSM    H3F10980   5.349   5.089  10.262 -0.5308  0.1771 -1.7525
  107OSM    H3G10981   5.364   5.149  10.099 -0.1427  0.3819  0.1568
  107OSM    C4F10982   5.345   5.305  10.238 -0.0330  0.3950  0.1057
  107OSM    H4F10983   5.362   5.334  10.344 -0.7972 -0.9172  0.6109
  107OSM    H4G10984   5.235   5.305  10.221 -0.0451  1.8190  0.0600
  107OSM    C5F10985   5.391   5.419  10.145 -0.4573  0.0229  0.1110
  107OSM    H5F10986   5.365   5.396  10.039 -1.5794  1.5070  0.0355
  107OSM    H5G10987   5.501   5.430  10.133 -0.5520  1.8334  0.6372
  107OSM    C6F10988   5.338   5.553  10.187  0.6866 -0.2781  0.6981
  107OSM    H6F10989   5.384   5.562  10.288  1.0571 -3.1348  0.8687
  107OSM    H6G10990   5.229   5.540  10.199  0.6384 -1.7024 -0.8262
  107OSM    C7F10991   5.367   5.662  10.084  0.3822  0.1740  0.2446
  107OSM    H7F10992   5.477   5.672  10.085  0.2979  1.4505  2.0192
  107OSM    H7G10993   5.323   5.758  10.120  1.9481  1.1972 -0.4541
  107OSM    C8F10994   5.313   5.634   9.942  0.1184  0.5803 -0.4285
  107OSM    H8F10995   5.211   5.592   9.953  0.7789 -1.6827 -2.0151
  107OSM    H8G10996   5.363   5.549   9.891 -1.6601 -0.4387 -0.5770
  107OSM    C9F10997   5.326   5.745   9.843  0.1384  0.8333 -1.1017
  107OSM    H9F10998   5.406   5.811   9.878 -0.4598 -0.2522  2.7340
  107OSM   C10F10999   5.264   5.764   9.729  0.0173  0.4105  0.2524
  107OSM   H10F11000   5.286   5.849   9.662 -0.1072  0.0667 -0.2335
  107OSM   C11F11001   5.159   5.677   9.665 -0.5933 -0.4403 -0.0374
  107OSM   H11F11002   5.084   5.736   9.608 -2.1961 -1.3657  1.0151
  107OSM   H11G11003   5.098   5.635   9.748 -0.2634 -0.1178  0.3760
  107OSM   C12F11004   5.219   5.570   9.571 -0.2700  0.3351  0.0853
  107OSM   H12F11005   5.136   5.505   9.536 -1.3899  1.5823  0.3315
  107OSM   H12G11006   5.290   5.508   9.631  0.2298  2.0499  1.3613
  107OSM   C13F11007   5.296   5.620   9.448  0.3420 -0.3158 -0.0117
  107OSM   H13F11008   5.399   5.647   9.482  0.2791  0.4087 -0.3701
  107OSM   H13G11009   5.255   5.715   9.408 -1.2824 -1.6196 -1.5805
  107OSM   C14F11010   5.305   5.516   9.343 -0.0538 -0.3111 -0.2991
  107OSM   H14F11011   5.206   5.470   9.321 -0.3889  0.0182  0.4793
  107OSM   H14G11012   5.373   5.440   9.388 -0.8651 -1.6923 -1.3080
  107OSM   C15F11013   5.360   5.575   9.212 -0.5212  0.4212 -0.1958
  107OSM   H15F11014   5.396   5.490   9.150  1.6932  2.0339 -1.2346
  107OSM   H15G11015   5.440   5.645   9.244  0.4134 -0.7360  0.0888
  107OSM   C16F11016   5.247   5.639   9.131 -0.6679  0.0886 -0.2076
  107OSM   H16F11017   5.193   5.720   9.184 -2.9220 -2.3543  1.5505
  107OSM   H16G11018   5.174   5.559   9.106  1.7499 -1.9061 -1.2167
  107OSM   C17F11019   5.301   5.688   8.996  0.3001 -0.7285 -0.1047
  107OSM   H17F11020   5.321   5.615   8.914  0.7132 -0.8109  0.0673
  107OSM   H17G11021   5.389   5.756   9.002  0.0207 -0.3492 -0.2322
  107OSM   C18F11022   5.194   5.777   8.930  0.4804 -0.3732  0.0565
  107OSM   H18F11023   5.159   5.855   9.001  1.3656 -1.8726  2.2494
  107OSM   H18G11024   5.115   5.700   8.917  0.4668  0.0120 -2.7282
  107OSM   H18H11025   5.224   5.818   8.831 -0.7353  1.4513  0.4034
  108OSM      N11026   1.524   0.493  10.803 -0.4585 -0.3542  0.1772
  108OSM    C1511027   1.507   0.348  10.763  0.5137  0.2629 -0.8056
  108OSM   H15A11028   1.404   0.319  10.775  0.6586  0.0320 -0.0829
  108OSM   H15B11029   1.569   0.279  10.818  1.2996  0.4184 -1.4797
  108OSM   H15C11030   1.525   0.327  10.659  0.3844  0.2976 -0.8352
  108OSM    C1411031   1.487   0.503  10.949 -0.3254  0.4871 -0.1754
  108OSM   H14A11032   1.563   0.472  11.018  0.5369 -0.3063 -1.4306
  108OSM   H14B11033   1.397   0.449  10.977 -0.6877  0.3312 -1.5396
  108OSM   H14C11034   1.475   0.606  10.978 -0.5268  0.6122 -0.6822
  108OSM    C1311035   1.670   0.544  10.786 -0.0846  0.3954  0.7208
  108OSM   H13A11036   1.681   0.639  10.835 -1.5082  0.1504  1.6057
  108OSM   H13B11037   1.688   0.558  10.681 -2.4047 -0.2127  0.1822
  108OSM   H13C11038   1.738   0.471  10.828  1.1666  0.2197 -1.5001
  108OSM    C1211039   1.429   0.572  10.718 -0.3873  0.9171 -0.3558
  108OSM   H12A11040   1.329   0.532  10.714  0.1424 -0.4508 -0.5355
  108OSM   H12B11041   1.464   0.564  10.616  1.0747 -1.0195  0.2308
  108OSM    C1111042   1.426   0.724  10.767  0.1030  0.2890 -0.2038
  108OSM   H11A11043   1.397   0.743  10.872  0.5485  0.1945 -0.0633
  108OSM   H11B11044   1.338   0.758  10.708 -0.0776  0.2321  0.0324
  108OSM      P11045   1.574   0.832  10.586  0.2426  0.2403 -0.0532
  108OSM    O1311046   1.720   0.822  10.571 -0.0097 -0.4704  0.0877
  108OSM    O1411047   1.490   0.753  10.493 -0.0495 -0.1922  0.5702
  108OSM    O1111048   1.522   0.983  10.566 -0.6175  0.6763  0.1284
  108OSM    O1211049   1.540   0.806  10.736 -0.1424 -0.3646  0.6194
  108OSM    C1S11050   1.393   1.037  10.564  0.2829 -0.0764  0.4800
  108OSM    H1S11051   1.375   1.066  10.670  1.8114  2.3023  0.1336
  108OSM    H1T11052   1.330   0.957  10.520  1.6879  0.8127 -3.5523
  108OSM     NF11053   1.251   1.207  10.488  0.7371  0.1121  0.2445
  108OSM    HNF11054   1.175   1.188  10.428  0.4648  0.7721  0.3659
  108OSM    C2S11055   1.385   1.154  10.466 -0.0357  0.6986  0.0906
  108OSM    H2S11056   1.468   1.223  10.494  1.0530  0.6515 -2.7035
  108OSM    C3S11057   1.417   1.116  10.317 -0.1199  0.6077  0.4314
  108OSM    H3S11058   1.371   1.020  10.286 -0.3619  0.4137  1.3708
  108OSM     O311059   1.559   1.110  10.287 -0.1201  0.6941 -0.2363
  108OSM    HO311060   1.601   1.102  10.373  1.1377  2.5467 -0.6374
  108OSM    C4S11061   1.352   1.225  10.225 -1.1138  0.1729  0.4855
  108OSM    H4S11062   1.400   1.324  10.231 -0.3338  0.3121 -4.2884
  108OSM    C5S11063   1.254   1.213  10.129 -0.1246  0.0609 -0.3043
  108OSM    H5S11064   1.208   1.113  10.128  1.9197 -0.9333 -0.3199
  108OSM    C6S11065   1.190   1.304  10.033 -0.4409  1.0674  0.1641
  108OSM    H6S11066   1.080   1.303  10.050 -1.0369 -1.8253 -2.8171
  108OSM    H6T11067   1.201   1.267   9.928  4.0959  1.4733  0.2991
  108OSM    C7S11068   1.234   1.452  10.041  0.5477  0.8915 -0.0823
  108OSM    H7S11069   1.345   1.456  10.050  0.5658  0.3276 -0.0496
  108OSM    H7T11070   1.194   1.484  10.140 -2.9370 -1.2495 -0.6336
  108OSM    C8S11071   1.179   1.531   9.924 -0.2133 -0.0240  0.8385
  108OSM    H8S11072   1.168   1.641   9.941 -0.3863  0.7042 -3.0783
  108OSM    H8T11073   1.078   1.490   9.902 -0.3174  1.3060 -1.4458
  108OSM    C9S11074   1.275   1.524   9.806  0.0153  0.0019  0.1844
  108OSM    H9S11075   1.272   1.418   9.772 -2.5946 -0.3407  1.2423
  108OSM    H9T11076   1.379   1.548   9.836  0.2876 -0.3006 -0.4893
  108OSM   C10S11077   1.228   1.600   9.681  0.9707 -0.5749  0.1440
  108OSM   H10S11078   1.221   1.706   9.713  0.9656 -0.3487 -0.5783
  108OSM   H10T11079   1.123   1.572   9.659  1.1557 -1.3356  0.2063
  108OSM   C11S11080   1.336   1.585   9.571 -0.1312 -0.0513  0.2274
  108OSM   H11S11081   1.338   1.478   9.540 -0.2105 -0.1813  0.6773
  108OSM   H11T11082   1.438   1.615   9.605 -0.6274  0.5075  1.2473
  108OSM   C12S11083   1.304   1.679   9.451 -0.0075  1.2029 -0.3519
  108OSM   H12S11084   1.268   1.777   9.488  0.7754  0.9328  1.2026
  108OSM   H12T11085   1.209   1.637   9.413 -0.1510  0.0503  1.1955
  108OSM   C13S11086   1.409   1.708   9.348  0.6355 -0.3468  0.3881
  108OSM   H13S11087   1.456   1.611   9.321 -0.7800 -1.1430  0.7119
  108OSM   H13T11088   1.493   1.761   9.398  2.1247 -2.0736 -0.1516
  108OSM   C14S11089   1.350   1.785   9.231  0.3498 -0.3854  0.2881
  108OSM   H14S11090   1.316   1.880   9.278 -1.6863  0.0719 -1.8870
  108OSM   H14T11091   1.266   1.726   9.190  0.2799 -1.4467  1.9017
  108OSM   C15S11092   1.451   1.817   9.121  0.1055  0.0672 -0.6002
  108OSM   H15S11093   1.544   1.861   9.163 -1.2504  3.2007 -0.5237
  108OSM   H15T11094   1.409   1.910   9.075  0.2032  0.1620 -0.4990
  108OSM   C16S11095   1.467   1.705   9.016 -0.2381 -0.3791  0.2160
  108OSM   H16S11096   1.381   1.721   8.947  0.3350 -0.1482 -0.4499
  108OSM   H16T11097   1.454   1.609   9.071 -1.0633  0.5065  1.6354
  108OSM   C17S11098   1.590   1.733   8.934 -0.1948  0.4455  0.3879
  108OSM   H17S11099   1.683   1.747   8.994 -0.1195  1.5115  0.0557
  108OSM   H17T11100   1.595   1.835   8.889 -0.5213  1.0084  1.5961
  108OSM   C18S11101   1.620   1.628   8.824  0.4943  0.0549 -0.0912
  108OSM   H18S11102   1.610   1.528   8.872  1.4499  0.8494  1.9026
  108OSM   H18T11103   1.727   1.638   8.796  0.0652 -1.0024 -2.2406
  108OSM   H18U11104   1.555   1.634   8.735  1.8976  0.1319 -1.1536
  108OSM    C1F11105   1.213   1.291  10.582 -0.5531  1.2383  0.6475
  108OSM     OF11106   1.294   1.328  10.666 -0.2892  0.3602  0.4207
  108OSM    C2F11107   1.067   1.334  10.581  0.9452  0.3621  0.1070
  108OSM    H2F11108   1.057   1.390  10.677  3.2068 -1.6323  1.6265
  108OSM    H2G11109   1.007   1.241  10.587  3.2223 -1.1445  0.6316
  108OSM    C3F11110   1.040   1.419  10.461 -0.2493  0.3973 -0.4552
  108OSM    H3F11111   1.066   1.369  10.366 -0.5510  2.3989 -1.6500
  108OSM    H3G11112   1.091   1.518  10.460  0.2812  0.1393 -2.2066
  108OSM    C4F11113   0.892   1.456  10.468 -0.4998  0.7271 -0.6146
  108OSM    H4F11114   0.884   1.518  10.560 -0.3724 -0.9209  0.5422
  108OSM    H4G11115   0.824   1.372  10.489  2.6599 -1.8553  0.0303
  108OSM    C5F11116   0.849   1.534  10.340 -0.0082  0.1331 -0.0151
  108OSM    H5F11117   0.930   1.600  10.303 -1.6494  1.4280 -1.4569
  108OSM    H5G11118   0.762   1.591  10.377  0.5154  0.0830  1.3691
  108OSM    C6F11119   0.815   1.431  10.237 -0.0153 -0.9054  0.2436
  108OSM    H6F11120   0.714   1.391  10.262 -0.8990  0.6827 -0.5660
  108OSM    H6G11121   0.883   1.344  10.227  0.7939 -0.4742  1.7416
  108OSM    C7F11122   0.801   1.491  10.101 -0.8563 -0.0322  0.4932
  108OSM    H7F11123   0.896   1.522  10.051 -0.2892  0.4416  1.8365
  108OSM    H7G11124   0.745   1.584  10.124  0.2805  0.0296  3.4459
  108OSM    C8F11125   0.717   1.408   9.999  0.0824 -0.5680 -0.5474
  108OSM    H8F11126   0.680   1.477   9.921 -3.6349 -0.5769  1.0404
  108OSM    H8G11127   0.626   1.374  10.053  1.4199 -0.5434  1.8710
  108OSM    C9F11128   0.786   1.282   9.944 -0.6559 -0.3338  0.0821
  108OSM    H9F11129   0.823   1.214  10.022  1.8676  0.2973 -0.4836
  108OSM   C10F11130   0.800   1.241   9.817  0.1023  0.3700  0.3084
  108OSM   H10F11131   0.838   1.142   9.788  0.2366  0.4157  0.3251
  108OSM   C11F11132   0.750   1.317   9.694  0.3845  0.3124 -1.2655
  108OSM   H11F11133   0.685   1.401   9.726  2.2497  0.5653  2.2870
  108OSM   H11G11134   0.681   1.255   9.633 -2.8434  0.0859  2.2359
  108OSM   C12F11135   0.866   1.381   9.619  0.0371  0.2425  0.3396
  108OSM   H12F11136   0.928   1.304   9.568  1.7035  0.9444  1.2246
  108OSM   H12G11137   0.930   1.430   9.695 -1.4645 -0.9165  2.4385
  108OSM   C13F11138   0.817   1.477   9.498 -0.1903 -0.3518 -0.6705
  108OSM   H13F11139   0.804   1.582   9.529 -0.1189  0.1370 -2.2119
  108OSM   H13G11140   0.724   1.426   9.464 -1.1833 -1.3353  3.0849
  108OSM   C14F11141   0.914   1.479   9.382  0.3565  0.3038 -0.5412
  108OSM   H14F11142   0.918   1.374   9.346  0.3560 -0.8330  2.5068
  108OSM   H14G11143   1.019   1.501   9.412  1.1055 -0.4887 -2.3697
  108OSM   C15F11144   0.869   1.547   9.249 -0.2926  0.8416 -0.3785
  108OSM   H15F11145   0.833   1.652   9.258  1.2943  1.4597 -0.8124
  108OSM   H15G11146   0.782   1.490   9.210  0.0888  1.7971 -2.7893
  108OSM   C16F11147   0.972   1.523   9.139  0.1187 -0.1900  0.4627
  108OSM   H16F11148   0.974   1.413   9.126 -0.0338 -0.1970  0.4907
  108OSM   H16G11149   1.072   1.555   9.175 -0.2928  1.2571  0.3946
  108OSM   C17F11150   0.946   1.597   9.006 -0.6253 -0.5448 -0.7985
  108OSM   H17F11151   0.930   1.706   9.010  0.4656 -0.1730 -4.1137
  108OSM   H17G11152   0.850   1.553   8.969 -1.7023  0.0736  1.0811
  108OSM   C18F11153   1.064   1.570   8.912  0.5427 -0.1778 -0.1743
  108OSM   H18F11154   1.149   1.636   8.940  0.5129 -0.3690  0.3821
  108OSM   H18G11155   1.031   1.606   8.813  2.3110  0.4050 -0.5866
  108OSM   H18H11156   1.091   1.463   8.894  0.6993 -0.6047  2.1462
  109OSM      N11157   0.764   6.361  10.919  0.0936  0.0258 -0.0259
  109OSM    C1511158   0.850   6.349  10.798  0.1005  0.3700 -0.9389
  109OSM   H15A11159   0.949   6.309  10.817  0.2399  1.0296 -0.2352
  109OSM   H15B11160   0.856   6.451  10.764 -1.4756  1.1387  0.8935
  109OSM   H15C11161   0.797   6.295  10.720 -2.8756 -0.7295  1.6551
  109OSM    C1411162   0.643   6.425  10.874 -0.3504  0.1091 -0.1114
  109OSM   H14A11163   0.597   6.369  10.794  0.0893  1.4313 -1.3302
  109OSM   H14B11164   0.661   6.519  10.824  1.0000  0.2321  0.5662
  109OSM   H14C11165   0.580   6.434  10.961 -0.7210 -0.5551 -0.3027
  109OSM    C1311166   0.731   6.226  10.976 -0.3146 -0.8223 -0.3663
  109OSM   H13A11167   0.817   6.187  11.027  0.0935 -0.1958 -0.5687
  109OSM   H13B11168   0.690   6.159  10.901 -1.3815 -0.7240  0.1051
  109OSM   H13C11169   0.645   6.235  11.041 -0.0018 -0.8179  0.0432
  109OSM    C1211170   0.833   6.440  11.032 -0.6634 -0.0960  0.3630
  109OSM   H12A11171   0.778   6.430  11.124  3.7306  0.2652  3.3241
  109OSM   H12B11172   0.833   6.545  11.005 -0.1998  0.1438  1.2597
  109OSM    C1111173   0.978   6.407  11.062 -0.6781  0.0666 -0.5408
  109OSM   H11A11174   1.018   6.472  11.143  1.3570 -3.0197  1.1418
  109OSM   H11B11175   1.051   6.428  10.981 -0.6591 -1.0605 -0.8397
  109OSM      P11176   1.112   6.183  11.060  0.1654  0.3291 -0.0612
  109OSM    O1311177   1.225   6.246  11.124 -0.9354  0.0943 -0.1006
  109OSM    O1411178   1.074   6.049  11.102  0.0080 -0.6637  0.1773
  109OSM    O1111179   1.113   6.191  10.903 -0.0554  0.2064 -0.7777
  109OSM    O1211180   0.986   6.270  11.096 -0.5509  0.3764  0.4046
  109OSM    C1S11181   1.091   6.065  10.825  0.5372 -0.1461  0.6491
  109OSM    H1S11182   0.982   6.046  10.832  0.4365  0.7373  1.9390
  109OSM    H1T11183   1.138   5.978  10.875 -1.1668 -0.4462  1.8130
  109OSM     NF11184   1.088   5.960  10.611 -0.2782  0.2168  0.4425
  109OSM    HNF11185   1.143   5.880  10.586 -0.9027 -0.1318  0.1727
  109OSM    C2S11186   1.147   6.070  10.685 -0.1576 -0.1024  0.0960
  109OSM    H2S11187   1.107   6.160  10.633 -2.4417 -2.5581 -2.7592
  109OSM    C3S11188   1.303   6.079  10.687 -0.9140  0.5919  0.1720
  109OSM    H3S11189   1.341   5.982  10.725  3.0297  0.7146 -2.7941
  109OSM     O311190   1.358   6.169  10.781 -0.0547 -0.2659 -0.2489
  109OSM    HO311191   1.294   6.177  10.852 -1.0285 -1.0078 -0.9977
  109OSM    C4S11192   1.361   6.107  10.549 -0.7539 -0.1423 -0.2524
  109OSM    H4S11193   1.338   6.207  10.510 -0.0101 -0.0787 -0.5405
  109OSM    C5S11194   1.449   6.025  10.493  0.0405  0.7017  0.8210
  109OSM    H5S11195   1.489   5.932  10.535 -0.5736 -1.1729 -2.4062
  109OSM    C6S11196   1.502   6.056  10.356 -0.4806  0.3138 -0.3529
  109OSM    H6S11197   1.510   5.954  10.313  2.2526  0.0624  0.5494
  109OSM    H6T11198   1.606   6.091  10.376 -1.2116  1.9984  0.7644
  109OSM    C7S11199   1.430   6.131  10.241  0.0795  0.4946  0.4345
  109OSM    H7S11200   1.424   6.239  10.264  1.0652  0.7183 -0.2393
  109OSM    H7T11201   1.327   6.092  10.230  0.8587 -1.4445 -0.6753
  109OSM    C8S11202   1.492   6.109  10.101 -0.2972  0.0922 -0.3731
  109OSM    H8S11203   1.476   6.003  10.073  2.0919 -0.9365  1.7362
  109OSM    H8T11204   1.601   6.127  10.110 -0.3754 -0.1920  1.5786
  109OSM    C9S11205   1.430   6.192   9.986  0.0304 -0.2810  0.2194
  109OSM    H9S11206   1.454   6.299  10.005 -2.4765  0.1845  1.2003
  109OSM    H9T11207   1.319   6.181   9.977  0.0574  0.3561 -1.0920
  109OSM   C10S11208   1.492   6.151   9.845  0.0595 -0.6845 -0.5282
  109OSM   H10S11209   1.447   6.052   9.825 -0.1639 -1.0528  1.5893
  109OSM   H10T11210   1.600   6.133   9.868 -0.6128 -5.6298 -0.2156
  109OSM   C11S11211   1.485   6.243   9.722  0.5019 -0.3209 -0.5150
  109OSM   H11S11212   1.566   6.216   9.651  0.9218 -0.4246 -0.0025
  109OSM   H11T11213   1.495   6.350   9.753 -3.0468  0.0979 -0.4559
  109OSM   C12S11214   1.359   6.227   9.638 -0.0460 -0.3813  0.4738
  109OSM   H12S11215   1.277   6.291   9.675 -0.7701 -0.3338 -1.1217
  109OSM   H12T11216   1.331   6.120   9.653 -1.7127  0.1290  1.2324
  109OSM   C13S11217   1.388   6.246   9.481  0.7250  0.2348  1.0137
  109OSM   H13S11218   1.444   6.338   9.457  2.0359 -1.3082 -2.4731
  109OSM   H13T11219   1.289   6.262   9.434 -0.0866  0.5470  2.7330
  109OSM   C14S11220   1.464   6.131   9.411  0.8832 -0.3754 -0.3367
  109OSM   H14S11221   1.434   6.033   9.455  2.1959  0.1307  1.8520
  109OSM   H14T11222   1.573   6.145   9.430  1.0721 -1.8319 -0.2007
  109OSM   C15S11223   1.440   6.125   9.264 -0.0335  0.3810  0.8184
  109OSM   H15S11224   1.333   6.129   9.236  0.3555  3.4922 -0.6233
  109OSM   H15T11225   1.484   6.033   9.221 -0.2193 -0.0238  1.4757
  109OSM   C16S11226   1.512   6.246   9.199  0.0605 -0.0667 -0.0518
  109OSM   H16S11227   1.621   6.246   9.220 -0.1065  2.4898  1.1861
  109OSM   H16T11228   1.475   6.345   9.234 -3.7609 -1.7154  1.1531
  109OSM   C17S11229   1.498   6.238   9.045 -0.7746 -0.2332  0.4024
  109OSM   H17S11230   1.392   6.266   9.024 -1.4435 -1.0821  2.3817
  109OSM   H17T11231   1.522   6.135   9.010  0.2956  0.3445 -0.6253
  109OSM   C18S11232   1.592   6.338   8.966  0.0560 -0.5782  0.4013
  109OSM   H18S11233   1.584   6.443   9.001 -0.8783 -0.7500  0.7189
  109OSM   H18T11234   1.570   6.331   8.857  1.0855 -0.6783  0.1841
  109OSM   H18U11235   1.700   6.313   8.973  0.1655 -0.1672  0.2125
  109OSM    C1F11236   0.962   5.975  10.564 -0.3573  0.8937 -0.6072
  109OSM     OF11237   0.890   6.071  10.592 -0.0716  0.2957 -0.1150
  109OSM    C2F11238   0.907   5.864  10.477  0.7423 -0.2739 -0.0139
  109OSM    H2F11239   0.818   5.827  10.533  0.4818  1.9580  1.1565
  109OSM    H2G11240   0.984   5.788  10.453  0.9920  0.1778 -0.6721
  109OSM    C3F11241   0.841   5.926  10.340 -0.2659  0.2034 -0.0647
  109OSM    H3F11242   0.761   5.994  10.377 -0.7138  0.6768 -1.8292
  109OSM    H3G11243   0.805   5.845  10.273  0.3174 -1.1014  1.1478
  109OSM    C4F11244   0.933   6.009  10.255 -0.5083  0.9354 -0.2224
  109OSM    H4F11245   1.021   5.956  10.212 -0.0400  0.6717  1.0270
  109OSM    H4G11246   0.971   6.092  10.319 -1.2474 -1.2611  3.3208
  109OSM    C5F11247   0.862   6.063  10.135  0.0167 -0.5834 -0.0436
  109OSM    H5F11248   0.819   6.159  10.173  2.5376  0.2765  0.8973
  109OSM    H5G11249   0.785   5.992  10.099  1.0310 -1.8345  0.1991
  109OSM    C6F11250   0.958   6.103  10.020 -0.4606  0.6006 -0.1025
  109OSM    H6F11251   1.023   6.020   9.984 -2.3076 -1.1411  0.3944
  109OSM    H6G11252   1.030   6.177  10.062 -1.1753  1.5551 -0.5270
  109OSM    C7F11253   0.894   6.164   9.899 -1.0371 -0.3712 -0.1411
  109OSM    H7F11254   0.851   6.262   9.928 -1.3147  0.3396 -2.7473
  109OSM    H7G11255   0.801   6.111   9.869 -1.6814 -0.9038  2.4762
  109OSM    C8F11256   0.987   6.177   9.770  0.3051 -0.2077  0.1816
  109OSM    H8F11257   1.001   6.072   9.736  0.8984 -0.4952  1.2727
  109OSM    H8G11258   1.085   6.215   9.806  0.5545 -0.3865 -0.2982
  109OSM    C9F11259   0.903   6.265   9.675 -0.5916 -0.6317  0.6353
  109OSM    H9F11260   0.892   6.367   9.714 -0.1488  0.1832 -1.2334
  109OSM   C10F11261   0.851   6.241   9.556 -0.0667  0.6472  0.1368
  109OSM   H10F11262   0.809   6.319   9.491 -2.5215 -1.1823 -0.6602
  109OSM   C11F11263   0.871   6.112   9.472 -0.7927 -0.3419  0.3636
  109OSM   H11F11264   0.780   6.048   9.470  0.2508 -1.8926  1.1319
  109OSM   H11G11265   0.953   6.049   9.511  1.8432  1.7163 -1.4967
  109OSM   C12F11266   0.904   6.145   9.326 -0.3428  0.2820 -0.5240
  109OSM   H12F11267   0.821   6.201   9.278 -0.0230  2.9982  1.8582
  109OSM   H12G11268   0.913   6.054   9.262 -0.7139 -1.3306  1.5923
  109OSM   C13F11269   1.042   6.216   9.320  0.4804  0.0395 -0.2605
  109OSM   H13F11270   1.115   6.136   9.345  0.7615  0.9133  1.8578
  109OSM   H13G11271   1.040   6.295   9.397 -0.5710 -1.8515  1.7506
  109OSM   C14F11272   1.071   6.268   9.175  0.5205  0.2113 -0.1653
  109OSM   H14F11273   1.170   6.318   9.182  1.0834 -0.7364 -1.0713
  109OSM   H14G11274   0.999   6.346   9.144  0.1083  0.7874  2.0881
  109OSM   C15F11275   1.062   6.160   9.065 -0.7583  0.5551  0.2800
  109OSM   H15F11276   0.958   6.125   9.051  0.0957 -1.3102 -2.3141
  109OSM   H15G11277   1.127   6.074   9.094 -0.6440  0.4150 -0.3667
  109OSM   C16F11278   1.106   6.208   8.925  0.1244 -0.3347  0.9399
  109OSM   H16F11279   1.200   6.261   8.951 -1.1275  1.8729  1.3083
  109OSM   H16G11280   1.032   6.288   8.902 -1.1302 -0.8269  3.0012
  109OSM   C17F11281   1.103   6.103   8.811 -0.4988  0.2101  0.1540
  109OSM   H17F11282   1.123   6.157   8.716  1.8561 -1.3192 -0.2953
  109OSM   H17G11283   1.004   6.053   8.809 -1.2967  1.7440 -0.9387
  109OSM   C18F11284   1.210   5.998   8.827  0.0521 -0.0769  0.1224
  109OSM   H18F11285   1.176   5.936   8.913  0.8708  3.6104  3.3921
  109OSM   H18G11286   1.308   6.043   8.852 -0.0095  0.7057 -0.9455
  109OSM   H18H11287   1.221   5.933   8.738  1.1425  1.0106 -0.5671
  110OSM      N11288   1.364   4.514  10.548  0.2740 -0.5057  0.1568
  110OSM    C1511289   1.392   4.403  10.640 -0.3452 -0.5323 -0.2866
  110OSM   H15A11290   1.493   4.371  10.619  1.9921  2.6437  4.4354
  110OSM   H15B11291   1.337   4.313  10.619  2.8286 -2.4505 -1.1321
  110OSM   H15C11292   1.392   4.442  10.741 -0.2263 -2.7464  0.6346
  110OSM    C1411293   1.398   4.459  10.411  0.9556 -0.0208 -0.3411
  110OSM   H14A11294   1.340   4.372  10.384 -2.3999  2.3209 -1.5096
  110OSM   H14B11295   1.505   4.450  10.404  0.8376 -2.6291  0.2182
  110OSM   H14C11296   1.370   4.533  10.337  1.2433 -0.1806 -0.6086
  110OSM    C1311297   1.225   4.554  10.556 -0.2225  0.1091 -0.2364
  110OSM   H13A11298   1.204   4.581  10.659 -2.6120 -0.1945 -0.5943
  110OSM   H13B11299   1.161   4.478  10.515 -1.7249  2.7782 -3.2737
  110OSM   H13C11300   1.205   4.640  10.493  2.1358  1.3731  0.5953
  110OSM    C1211301   1.464   4.640  10.570  0.6881  0.1785  0.1973
  110OSM   H12A11302   1.460   4.680  10.670 -1.0249  0.9235 -0.1435
  110OSM   H12B11303   1.434   4.723  10.508 -1.3349 -0.7047 -0.0971
  110OSM    C1111304   1.616   4.615  10.532 -0.5008  0.0210 -0.1822
  110OSM   H11A11305   1.669   4.709  10.561 -0.9025  0.7613 -1.7416
  110OSM   H11B11306   1.612   4.609  10.421  0.3421  2.2301 -0.3931
  110OSM      P11307   1.773   4.511  10.719  0.0891 -0.2469  0.2966
  110OSM    O1311308   1.690   4.539  10.836  0.1983 -0.0277 -0.1600
  110OSM    O1411309   1.863   4.400  10.729 -0.1646 -0.2051  0.8447
  110OSM    O1111310   1.861   4.645  10.690  0.1972 -0.2089 -0.0511
  110OSM    O1211311   1.675   4.498  10.596  0.2316  0.0636  0.0048
  110OSM    C1S11312   2.002   4.646  10.671 -0.1012 -0.2780 -0.1387
  110OSM    H1S11313   2.046   4.555  10.718  0.2000  0.1077  0.3331
  110OSM    H1T11314   2.045   4.729  10.731 -1.2351  1.7376 -1.9516
  110OSM     NF11315   2.178   4.624  10.500  0.5936 -0.0838  0.1785
  110OSM    HNF11316   2.251   4.689  10.517  1.5509 -1.4223  1.4815
  110OSM    C2S11317   2.042   4.666  10.526  0.1055 -0.9135 -0.1620
  110OSM    H2S11318   1.974   4.618  10.452  0.8819 -1.3828 -0.5950
  110OSM    C3S11319   2.021   4.816  10.508  0.1572 -0.6418 -0.2897
  110OSM    H3S11320   2.092   4.875  10.571 -0.8236  0.4187 -0.1556
  110OSM     O311321   1.897   4.866  10.559  0.1508  0.0076  0.1763
  110OSM    HO311322   1.864   4.789  10.606  2.2303 -0.4037  1.0709
  110OSM    C4S11323   2.046   4.871  10.372 -0.6386  0.5613  0.8980
  110OSM    H4S11324   2.132   4.940  10.369 -0.2146 -0.0082 -0.6234
  110OSM    C5S11325   1.960   4.857  10.273 -0.3410 -0.0022 -0.2208
  110OSM    H5S11326   1.866   4.802  10.291  0.3366 -0.9769  0.4616
  110OSM    C6S11327   1.978   4.925  10.138 -0.5178 -0.4359  1.0474
  110OSM    H6S11328   2.052   5.006  10.154  0.5816 -0.9917 -0.9099
  110OSM    H6T11329   1.883   4.977  10.112  0.9273  1.8984  0.1975
  110OSM    C7S11330   2.028   4.826  10.028 -0.1331 -0.1342  0.1252
  110OSM    H7S11331   1.957   4.740  10.024 -0.7092  0.3915 -1.5338
  110OSM    H7T11332   2.134   4.795  10.046 -0.1084 -0.3135 -0.3239
  110OSM    C8S11333   2.028   4.885   9.888  0.2340  0.6248 -0.5253
  110OSM    H8S11334   2.097   4.971   9.872  1.6445 -0.8227 -2.9043
  110OSM    H8T11335   1.930   4.935   9.876  1.5659  3.7305  0.5969
  110OSM    C9S11336   2.042   4.793   9.773  0.0804  0.8901  0.0128
  110OSM    H9S11337   1.952   4.730   9.788  0.7580  0.7108  5.2206
  110OSM    H9T11338   2.131   4.731   9.794 -2.1876 -2.2255  1.1136
  110OSM   C10S11339   2.053   4.880   9.646 -0.9282  0.1141 -0.4859
  110OSM   H10S11340   2.151   4.933   9.645 -0.6919 -0.3306 -1.1836
  110OSM   H10T11341   1.978   4.963   9.644 -0.2593  0.8825 -5.0889
  110OSM   C11S11342   2.033   4.806   9.513 -0.0192  0.2823  0.3630
  110OSM   H11S11343   2.048   4.870   9.423 -0.5616 -0.5271 -0.3230
  110OSM   H11T11344   1.933   4.760   9.500  0.0400 -0.1484  1.3393
  110OSM   C12S11345   2.131   4.684   9.499 -0.2862 -1.3187 -0.2608
  110OSM   H12S11346   2.115   4.618   9.586 -0.2387 -0.0214  0.7490
  110OSM   H12T11347   2.241   4.702   9.495 -0.3694 -0.3648  1.2447
  110OSM   C13S11348   2.105   4.596   9.376  0.4937 -0.4327  0.2635
  110OSM   H13S11349   2.009   4.541   9.385 -0.5027  1.1437 -0.3066
  110OSM   H13T11350   2.175   4.510   9.373 -0.1423 -0.9861  0.8476
  110OSM   C14S11351   2.094   4.680   9.243  0.2474 -0.2690 -0.4177
  110OSM   H14S11352   2.152   4.772   9.263 -0.6548 -0.1181  1.7370
  110OSM   H14T11353   1.989   4.705   9.215  0.7533 -0.0957 -2.3625
  110OSM   C15S11354   2.145   4.605   9.115 -0.0203  0.1783 -0.9213
  110OSM   H15S11355   2.127   4.495   9.115  0.9832 -0.0027 -0.5007
  110OSM   H15T11356   2.255   4.624   9.120 -0.4722  2.9403  0.4074
  110OSM   C16S11357   2.092   4.652   8.984 -0.3007  0.1632 -0.7360
  110OSM   H16S11358   2.123   4.756   8.960  2.8677 -0.3259  0.7580
  110OSM   H16T11359   1.983   4.664   9.000 -0.0060  0.4491  1.3171
  110OSM   C17S11360   2.110   4.560   8.866 -0.3206 -0.0915  0.7205
  110OSM   H17S11361   2.059   4.601   8.777  0.5276  1.9137  1.0953
  110OSM   H17T11362   2.065   4.460   8.883  1.0168 -0.8300  0.1320
  110OSM   C18S11363   2.254   4.540   8.829 -0.8490  0.1504  0.1149
  110OSM   H18S11364   2.301   4.478   8.908  0.4924  0.8100 -0.1310
  110OSM   H18T11365   2.318   4.631   8.820  0.5542 -0.6766  1.3682
  110OSM   H18U11366   2.255   4.488   8.731 -0.3899 -0.5986  0.5084
  110OSM    C1F11367   2.213   4.494  10.482 -0.6433 -0.1389 -0.1314
  110OSM     OF11368   2.130   4.405  10.474 -0.1926 -0.0240 -0.8196
  110OSM    C2F11369   2.355   4.462  10.471 -0.0582 -0.1588  0.2077
  110OSM    H2F11370   2.420   4.485  10.559  1.0213 -1.3693 -0.2491
  110OSM    H2G11371   2.383   4.528  10.386 -1.2409 -0.4599 -0.4345
  110OSM    C3F11372   2.397   4.315  10.427  0.2235 -0.6422 -0.1857
  110OSM    H3F11373   2.331   4.279  10.345 -0.4649  0.0798  0.0372
  110OSM    H3G11374   2.380   4.247  10.513  0.0283 -0.0820  0.2281
  110OSM    C4F11375   2.547   4.311  10.376 -0.2298  0.7446  0.0833
  110OSM    H4F11376   2.563   4.205  10.350 -1.1667  0.4202  0.8077
  110OSM    H4G11377   2.608   4.346  10.463 -0.6991 -0.5587  0.9654
  110OSM    C5F11378   2.575   4.386  10.242  0.3225  0.1642  0.2069
  110OSM    H5F11379   2.583   4.495  10.257 -0.6968  0.5831 -1.9729
  110OSM    H5G11380   2.494   4.365  10.170 -0.6951 -1.6867  1.7759
  110OSM    C6F11381   2.714   4.357  10.185 -0.0712  0.0346  0.3532
  110OSM    H6F11382   2.792   4.401  10.251  0.6029  0.3179 -0.6222
  110OSM    H6G11383   2.733   4.409  10.089  0.4588  0.5417  0.7265
  110OSM    C7F11384   2.746   4.208  10.174  1.2479  0.2805 -0.1410
  110OSM    H7F11385   2.656   4.160  10.131  2.1902 -0.9070 -0.8547
  110OSM    H7G11386   2.763   4.175  10.279 -1.3457  2.7794  1.2440
  110OSM    C8F11387   2.866   4.174  10.083  0.5970 -0.1609  0.0628
  110OSM    H8F11388   2.853   4.160   9.974  0.8394 -1.9435  0.2191
  110OSM    H8G11389   2.886   4.068  10.111 -2.6425 -1.3036 -1.4230
  110OSM    C9F11390   2.989   4.261  10.104  0.5412  0.0266 -0.0164
  110OSM    H9F11391   2.966   4.366  10.081 -2.1482 -0.3265  0.7232
  110OSM   C10F11392   3.118   4.227  10.133  0.4844  0.1161  0.2805
  110OSM   H10F11393   3.183   4.315  10.146 -0.9500  1.0867  1.1308
  110OSM   C11F11394   3.185   4.094  10.159  0.2165  0.5831  0.1506
  110OSM   H11F11395   3.285   4.090  10.111  0.2679 -0.3241  0.3146
  110OSM   H11G11396   3.137   4.002  10.119 -1.2947  1.2083  0.4765
  110OSM   C12F11397   3.212   4.080  10.319  0.6652  0.1054  0.5987
  110OSM   H12F11398   3.115   4.047  10.363  0.2226 -0.7179 -0.9103
  110OSM   H12G11399   3.254   4.169  10.369  1.7536 -0.6908  1.1555
  110OSM   C13F11400   3.307   3.970  10.356  0.7235  0.3589  0.6129
  110OSM   H13F11401   3.415   3.990  10.340  0.5490 -0.8188 -2.7765
  110OSM   H13G11402   3.289   3.897  10.275 -1.4015  1.0289  0.4248
  110OSM   C14F11403   3.279   3.893  10.480  0.4739  0.3904 -0.0380
  110OSM   H14F11404   3.179   3.844  10.477  1.3674 -1.5610  0.2502
  110OSM   H14G11405   3.287   3.971  10.558 -2.1939  1.3182 -0.5828
  110OSM   C15F11406   3.384   3.778  10.494  0.3090  0.7382 -0.2282
  110OSM   H15F11407   3.463   3.773  10.416 -0.1303 -1.1165 -0.5922
  110OSM   H15G11408   3.326   3.684  10.482  1.9693 -0.6114  1.6042
  110OSM   C16F11409   3.442   3.777  10.630 -0.7807 -0.0412 -0.3309
  110OSM   H16F11410   3.369   3.746  10.708  0.4782 -0.9305  0.5473
  110OSM   H16G11411   3.481   3.874  10.667  0.2985 -1.3218  2.1399
  110OSM   C17F11412   3.563   3.682  10.642  0.5543  0.6661  0.4536
  110OSM   H17F11413   3.629   3.707  10.727  3.1772  1.7763 -1.7358
  110OSM   H17G11414   3.631   3.701  10.555 -0.7729  2.9918 -0.1293
  110OSM   C18F11415   3.524   3.532  10.642 -1.0587  0.3245  0.5383
  110OSM   H18F11416   3.431   3.492  10.686 -1.4540  0.4769 -0.1402
  110OSM   H18G11417   3.617   3.484  10.681 -1.1836 -0.2404  0.1549
  110OSM   H18H11418   3.514   3.489  10.539  1.1911 -1.3890  0.9286
  111OSM      N11419   2.596   1.195  10.771  0.2142 -0.0810  0.3596
  111OSM    C1511420   2.592   1.337  10.733 -0.6238  0.2726 -0.1493
  111OSM   H15A11421   2.491   1.375  10.738 -1.4745 -1.9661  1.3710
  111OSM   H15B11422   2.630   1.344  10.632 -0.1768 -1.3912 -0.1251
  111OSM   H15C11423   2.654   1.395  10.800  0.9519 -0.6064 -0.7702
  111OSM    C1411424   2.523   1.175  10.894 -0.3266 -0.2082 -0.4640
  111OSM   H14A11425   2.520   1.068  10.914  2.2581 -0.3264 -0.2912
  111OSM   H14B11426   2.432   1.232  10.900 -0.7266 -0.9489  3.1759
  111OSM   H14C11427   2.560   1.221  10.984 -0.0759  0.4516 -0.9035
  111OSM    C1311428   2.517   1.116  10.677  0.1403  0.3683  0.4573
  111OSM   H13A11429   2.480   1.028  10.727 -0.9471  1.2090  1.1680
  111OSM   H13B11430   2.574   1.081  10.592 -0.7416 -0.9224  0.3820
  111OSM   H13C11431   2.433   1.176  10.645 -1.1526 -1.3225  0.5649
  111OSM    C1211432   2.732   1.134  10.772 -0.9059  0.7187  0.2462
  111OSM   H12A11433   2.762   1.123  10.669 -2.4825 -2.0532 -0.0460
  111OSM   H12B11434   2.726   1.031  10.806 -3.1815 -0.3458 -2.8826
  111OSM    C1111435   2.848   1.217  10.839  0.6649  0.4898  0.3526
  111OSM   H11A11436   2.815   1.234  10.944  0.4169 -3.0419  0.9936
  111OSM   H11B11437   2.857   1.319  10.797  1.9135  0.5827  0.7886
  111OSM      P11438   3.091   1.185  10.749 -0.3645  0.4378  0.3255
  111OSM    O1311439   3.156   1.311  10.801 -0.7934 -0.4150  0.0024
  111OSM    O1411440   3.181   1.062  10.743  0.0375 -0.0767  0.1099
  111OSM    O1111441   3.024   1.222  10.610 -0.3208 -0.0128  0.1169
  111OSM    O1211442   2.975   1.151  10.846  0.5852 -0.0635  0.0626
  111OSM    C1S11443   3.022   1.357  10.567  0.4142 -0.5013  0.0505
  111OSM    H1S11444   3.124   1.400  10.576 -0.0705  0.2614  2.5803
  111OSM    H1T11445   2.960   1.417  10.636  0.1837  1.2247 -1.5647
  111OSM     NF11446   2.994   1.523  10.384 -0.6208 -0.1585 -0.7271
  111OSM    HNF11447   2.930   1.581  10.435 -0.4122 -0.0035 -0.6440
  111OSM    C2S11448   2.983   1.385  10.421  0.6045 -0.1224 -0.1190
  111OSM    H2S11449   3.050   1.320  10.361 -0.1872  0.3684 -1.5889
  111OSM    C3S11450   2.835   1.336  10.403  0.2299  0.0903 -0.3439
  111OSM    H3S11451   2.765   1.392  10.469 -0.5811 -1.4705  0.1824
  111OSM     O311452   2.807   1.198  10.445  0.4252  0.3972 -0.9977
  111OSM    HO311453   2.884   1.167  10.492  1.2271  0.2064 -2.4003
  111OSM    C4S11454   2.782   1.350  10.268 -0.7792  0.4653 -0.2282
  111OSM    H4S11455   2.827   1.288  10.189 -2.2116  1.0362 -1.5652
  111OSM    C5S11456   2.675   1.427  10.229  0.5172 -0.3827 -0.7194
  111OSM    H5S11457   2.625   1.487  10.307 -1.0937 -0.1231 -1.9007
  111OSM    C6S11458   2.606   1.432  10.099  0.1640 -0.0038 -0.1602
  111OSM    H6S11459   2.621   1.530  10.051 -0.4695 -0.7695 -2.0187
  111OSM    H6T11460   2.500   1.399  10.094 -0.0190  0.7270 -1.3282
  111OSM    C7S11461   2.672   1.336   9.987 -0.4802  0.2517 -0.1709
  111OSM    H7S11462   2.683   1.232  10.026  0.0153  0.0098 -0.9207
  111OSM    H7T11463   2.775   1.377   9.985 -0.0945 -0.2808  2.9094
  111OSM    C8S11464   2.608   1.334   9.852 -0.2485 -0.3406  0.5695
  111OSM    H8S11465   2.606   1.428   9.791 -0.4453 -0.5125  0.3103
  111OSM    H8T11466   2.507   1.289   9.859 -0.9600  1.3068  1.5909
  111OSM    C9S11467   2.678   1.239   9.756  1.0408  0.0176  0.0582
  111OSM    H9S11468   2.689   1.150   9.821  1.9955  0.8688  1.0977
  111OSM    H9T11469   2.777   1.273   9.719  1.4087 -0.6664  0.3985
  111OSM   C10S11470   2.597   1.223   9.627  0.2702  0.1043  0.7128
  111OSM   H10S11471   2.565   1.326   9.598  0.6811  0.0640  0.0800
  111OSM   H10T11472   2.504   1.169   9.654 -1.0327  1.0287 -1.6115
  111OSM   C11S11473   2.649   1.141   9.509  0.1011 -0.3192 -0.7044
  111OSM   H11S11474   2.669   1.038   9.544  3.3602  0.7600  1.0052
  111OSM   H11T11475   2.751   1.167   9.473 -0.1068 -2.3096 -2.9696
  111OSM   C12S11476   2.549   1.149   9.387  0.1664 -0.1583 -0.2975
  111OSM   H12S11477   2.534   1.254   9.355  0.6343 -0.4273 -1.4210
  111OSM   H12T11478   2.453   1.104   9.420  0.6331 -1.0567 -0.1301
  111OSM   C13S11479   2.617   1.061   9.277  0.2406  0.5316 -0.0558
  111OSM   H13S11480   2.634   0.961   9.323 -1.9655 -0.7112 -1.7599
  111OSM   H13T11481   2.716   1.107   9.255 -0.1724  1.6558  0.3387
  111OSM   C14S11482   2.533   1.031   9.149 -0.4385  0.1214 -0.5474
  111OSM   H14S11483   2.453   0.957   9.170  1.3570 -1.5202  0.8733
  111OSM   H14T11484   2.606   0.994   9.073  1.3216  0.8780  0.6924
  111OSM   C15S11485   2.483   1.152   9.082 -0.7181 -0.1483  0.5946
  111OSM   H15S11486   2.568   1.223   9.073  0.5089 -1.3809  1.9683
  111OSM   H15T11487   2.412   1.198   9.155 -1.3801 -2.0378  1.2131
  111OSM   C16S11488   2.427   1.141   8.942  0.9888  1.0483 -0.2510
  111OSM   H16S11489   2.343   1.069   8.946  0.7442  1.3494  2.7103
  111OSM   H16T11490   2.512   1.111   8.877  0.3736 -1.3709 -0.0140
  111OSM   C17S11491   2.373   1.277   8.896 -0.2397  0.2049  0.0259
  111OSM   H17S11492   2.451   1.348   8.930  0.1389  0.2624 -0.9474
  111OSM   H17T11493   2.271   1.301   8.932 -1.3026 -0.8279 -2.1279
  111OSM   C18S11494   2.361   1.294   8.742 -0.1386 -0.6614 -0.4366
  111OSM   H18S11495   2.307   1.385   8.708  2.9343  1.1997 -0.6956
  111OSM   H18T11496   2.306   1.208   8.699 -1.0641 -0.3752  0.1488
  111OSM   H18U11497   2.465   1.304   8.703 -0.0296  1.0275  0.1983
  111OSM    C1F11498   3.115   1.568  10.360 -0.3320  0.3909  0.0680
  111OSM     OF11499   3.211   1.495  10.352 -0.4565  0.4882  0.2507
  111OSM    C2F11500   3.124   1.712  10.336 -0.3229  0.1672 -1.0817
  111OSM    H2F11501   3.027   1.764  10.352  0.5001  1.6310 -0.6132
  111OSM    H2G11502   3.139   1.720  10.227 -3.4268 -1.6482 -1.7558
  111OSM    C3F11503   3.246   1.780  10.408  0.0879 -0.0360  0.0298
  111OSM    H3F11504   3.339   1.745  10.358  0.6322  0.7951  0.4270
  111OSM    H3G11505   3.259   1.753  10.515 -0.7770  0.1889  0.1976
  111OSM    C4F11506   3.252   1.933  10.390  0.5679 -0.3293 -0.5076
  111OSM    H4F11507   3.235   1.966  10.286 -1.5997  1.9539  0.4419
  111OSM    H4G11508   3.355   1.959  10.422  0.8134 -1.1248 -0.6407
  111OSM    C5F11509   3.157   2.018  10.479 -0.5431 -0.1185  0.0659
  111OSM    H5F11510   3.162   1.971  10.580  1.6169  0.5844  0.3380
  111OSM    H5G11511   3.056   1.995  10.440  0.1932 -0.6900 -1.5608
  111OSM    C6F11512   3.179   2.164  10.500 -0.2063 -0.5206  0.2373
  111OSM    H6F11513   3.287   2.185  10.518  0.8032 -4.5290  0.0052
  111OSM    H6G11514   3.118   2.212  10.579  0.3032  2.7792 -1.2232
  111OSM    C7F11515   3.136   2.247  10.379 -0.3569  0.6164 -0.0636
  111OSM    H7F11516   3.160   2.190  10.287  0.4646  1.2559 -0.2635
  111OSM    H7G11517   3.187   2.346  10.370  0.7132  0.1634  0.7276
  111OSM    C8F11518   2.978   2.263  10.368  0.3216 -0.0832  0.6353
  111OSM    H8F11519   2.945   2.312  10.462 -1.3122  0.8704 -0.3874
  111OSM    H8G11520   2.916   2.172  10.382 -0.0025 -0.1107 -0.8545
  111OSM    C9F11521   2.930   2.342  10.250 -0.4105  0.2292 -0.4711
  111OSM    H9F11522   2.878   2.434  10.281 -0.4549  0.5655 -1.4967
  111OSM   C10F11523   2.916   2.301  10.120  0.0499  0.5511  0.2957
  111OSM   H10F11524   2.886   2.378  10.048  1.1578 -0.1583 -0.9516
  111OSM   C11F11525   2.949   2.167  10.062 -0.3641  0.4823  0.7366
  111OSM   H11F11526   2.862   2.098  10.064 -0.3668  0.4605  0.0073
  111OSM   H11G11527   3.033   2.122  10.119  0.8006  0.3199 -1.0376
  111OSM   C12F11528   2.991   2.155   9.913  0.4523  0.5071 -0.6191
  111OSM   H12F11529   3.021   2.050   9.891 -2.0139 -1.2955  3.4542
  111OSM   H12G11530   3.089   2.207   9.919  1.5082 -1.5653  1.9740
  111OSM   C13F11531   2.903   2.202   9.798  0.6391  0.7037  0.0730
  111OSM   H13F11532   2.962   2.189   9.705 -1.4800 -2.1642 -1.0403
  111OSM   H13G11533   2.879   2.310   9.807  1.9692  0.9635  0.5700
  111OSM   C14F11534   2.769   2.135   9.801 -0.6632 -0.0325  0.0921
  111OSM   H14F11535   2.697   2.161   9.882 -2.0792 -2.0418 -0.4316
  111OSM   H14G11536   2.784   2.026   9.821 -1.4019  0.1153  1.6347
  111OSM   C15F11537   2.693   2.126   9.675  0.0118 -0.3220  0.1093
  111OSM   H15F11538   2.671   2.224   9.629  2.4861 -0.0999 -0.7879
  111OSM   H15G11539   2.603   2.063   9.687  0.0134 -1.1060 -3.0188
  111OSM   C16F11540   2.764   2.066   9.555  0.6975  0.6409  0.5145
  111OSM   H16F11541   2.796   1.968   9.595 -2.0646 -0.2873  0.7205
  111OSM   H16G11542   2.854   2.124   9.528 -1.2550  3.1842 -1.0443
  111OSM   C17F11543   2.663   2.056   9.440 -0.7056 -0.0353  0.2800
  111OSM   H17F11544   2.615   2.154   9.416 -2.9825 -0.7578  1.6100
  111OSM   H17G11545   2.577   1.991   9.466 -0.7703 -0.1754 -0.2656
  111OSM   C18F11546   2.718   2.013   9.301 -0.4731 -0.9748  0.3340
  111OSM   H18F11547   2.788   1.927   9.300  0.1051 -0.5108 -0.4397
  111OSM   H18G11548   2.773   2.098   9.255 -2.8856 -1.2831 -3.5420
  111OSM   H18H11549   2.636   1.991   9.231 -0.5721  3.7787 -1.4482
  112OSM      N11550   0.832   1.271  11.012 -0.7563 -0.2347  0.3307
  112OSM    C1511551   0.980   1.301  11.038  0.2410  0.1240  0.3685
  112OSM   H15A11552   1.032   1.228  11.099  1.1873 -0.7368 -1.3794
  112OSM   H15B11553   0.999   1.398  11.080  0.3754  0.0124  0.5699
  112OSM   H15C11554   1.038   1.297  10.947 -1.0656  0.0387 -0.4813
  112OSM    C1411555   0.747   1.291  11.138  0.1300 -0.4540 -0.1196
  112OSM   H14A11556   0.655   1.234  11.137 -0.4030  0.3619  0.6754
  112OSM   H14B11557   0.734   1.398  11.146 -1.3040 -0.5879 -0.3149
  112OSM   H14C11558   0.796   1.250  11.225 -1.1495 -1.2255  0.2641
  112OSM    C1311559   0.782   1.366  10.907  0.0216 -0.2786 -0.2185
  112OSM   H13A11560   0.834   1.344  10.816 -0.6103 -1.5714 -0.2868
  112OSM   H13B11561   0.790   1.471  10.933  0.9164 -0.5053  0.4790
  112OSM   H13C11562   0.678   1.347  10.885 -0.5224  0.3899  1.5570
  112OSM    C1211563   0.822   1.129  10.972  0.1093 -0.1060  0.4644
  112OSM   H12A11564   0.719   1.101  10.963  0.1633 -0.3325  0.5423
  112OSM   H12B11565   0.856   1.060  11.048 -0.9695  0.4427  1.4695
  112OSM    C1111566   0.881   1.078  10.840  0.7579  0.0011 -0.3807
  112OSM   H11A11567   0.837   1.147  10.766  0.4180 -0.1671 -0.3351
  112OSM   H11B11568   0.846   0.976  10.813 -1.1283  0.1947  1.0770
  112OSM      P11569   1.110   0.956  10.877 -0.2657  0.1899 -0.1286
  112OSM    O1311570   1.248   0.981  10.911  0.3751 -0.2622  0.1406
  112OSM    O1411571   1.034   0.876  10.978 -0.0680 -0.3006 -0.4693
  112OSM    O1111572   1.111   0.866  10.746  0.5610 -0.2186 -0.0711
  112OSM    O1211573   1.023   1.083  10.836  0.1474 -0.5789 -0.2955
  112OSM    C1S11574   1.039   0.899  10.629  0.0558  0.0087 -0.2823
  112OSM    H1S11575   1.053   1.004  10.595 -0.5653 -0.0059 -0.6014
  112OSM    H1T11576   0.931   0.896  10.655  0.8056  0.9193  3.5361
  112OSM     NF11577   0.971   0.842  10.399 -0.3711  0.9208 -0.1411
  112OSM    HNF11578   0.884   0.792  10.399 -1.5595  2.8436 -1.3537
  112OSM    C2S11579   1.055   0.802  10.511  0.2216  0.3904  0.2925
  112OSM    H2S11580   1.160   0.807  10.476  0.7926 -2.2186  1.3782
  112OSM    C3S11581   1.035   0.658  10.558  0.7225 -0.5374  0.3578
  112OSM    H3S11582   0.932   0.633  10.594  0.8543 -2.1640 -0.2862
  112OSM     O311583   1.124   0.626  10.654  0.5881  0.1738 -1.0362
  112OSM    HO311584   1.142   0.709  10.698 -2.2983  0.8967 -0.9783
  112OSM    C4S11585   1.058   0.567  10.434  0.4587 -0.3752 -0.5094
  112OSM    H4S11586   1.126   0.608  10.358  0.5156  0.3533 -0.0788
  112OSM    C5S11587   0.995   0.448  10.417 -0.3620  0.5208 -0.2167
  112OSM    H5S11588   0.933   0.408  10.499 -1.0768  1.5689 -0.2283
  112OSM    C6S11589   1.002   0.358  10.301 -0.1434  0.7878  0.4130
  112OSM    H6S11590   0.898   0.338  10.269 -0.2848  2.4286 -0.2732
  112OSM    H6T11591   1.061   0.265  10.317  1.6114  0.8546 -4.0529
  112OSM    C7S11592   1.072   0.426  10.178  0.7456  0.6785 -1.4212
  112OSM    H7S11593   1.182   0.427  10.187  0.6920  1.1697 -0.7995
  112OSM    H7T11594   1.035   0.530  10.168 -0.6981  0.5565  1.5343
  112OSM    C8S11595   1.020   0.354  10.053  0.3141 -0.1320 -0.1839
  112OSM    H8S11596   0.910   0.357  10.063  0.1820 -2.5246 -0.2121
  112OSM    H8T11597   1.060   0.250  10.043  0.8881 -0.2088  2.2595
  112OSM    C9S11598   1.060   0.423   9.919 -0.3158  0.0901 -0.2467
  112OSM    H9S11599   1.171   0.416   9.914 -0.3833  0.2561 -2.6908
  112OSM    H9T11600   1.042   0.532   9.923 -2.1353 -0.2015  0.7385
  112OSM   C10S11601   1.009   0.356   9.794 -0.0326 -0.4968 -0.4707
  112OSM   H10S11602   0.899   0.342   9.801 -0.1644  0.0695 -1.2347
  112OSM   H10T11603   1.045   0.253   9.775 -2.5115 -1.4024 -0.6615
  112OSM   C11S11604   1.031   0.444   9.669  0.4989  0.4765 -0.6896
  112OSM   H11S11605   1.137   0.478   9.668  0.9976 -0.9622 -0.0389
  112OSM   H11T11606   0.969   0.536   9.670  0.8793  0.7427 -0.9557
  112OSM   C12S11607   1.004   0.361   9.545 -0.0606 -1.1561 -0.9582
  112OSM   H12S11608   0.896   0.337   9.557 -0.3529  0.8019  0.8838
  112OSM   H12T11609   1.068   0.270   9.546  1.3645 -0.1693 -0.9195
  112OSM   C13S11610   1.031   0.437   9.417 -0.1445 -0.4276 -0.6426
  112OSM   H13S11611   1.124   0.497   9.425 -1.1956  1.0472  2.2407
  112OSM   H13T11612   0.961   0.523   9.404 -2.3935 -2.0799 -0.0061
  112OSM   C14S11613   1.019   0.361   9.289 -0.5588 -0.1344  0.6560
  112OSM   H14S11614   1.077   0.267   9.302  1.3504  0.5060 -2.3144
  112OSM   H14T11615   1.080   0.418   9.216 -0.5703 -0.9292  0.0110
  112OSM   C15S11616   0.884   0.342   9.233  0.1680  0.1649 -0.1991
  112OSM   H15S11617   0.827   0.436   9.241  0.4703  0.4924 -1.5561
  112OSM   H15T11618   0.833   0.270   9.300 -0.8165  1.8605  0.9535
  112OSM   C16S11619   0.897   0.316   9.087  0.3708 -0.5935  0.2252
  112OSM   H16S11620   0.936   0.215   9.061 -0.5409 -0.6516 -1.0177
  112OSM   H16T11621   0.956   0.395   9.036  0.5534  0.2244  1.6504
  112OSM   C17S11622   0.755   0.310   9.022  0.4810  0.2799 -0.1146
  112OSM   H17S11623   0.690   0.260   9.097 -0.9142  2.4143  0.1886
  112OSM   H17T11624   0.755   0.254   8.926  0.5413  0.2536 -0.0994
  112OSM   C18S11625   0.678   0.442   9.005 -0.0826 -0.2578  0.0046
  112OSM   H18S11626   0.573   0.423   8.977 -0.4218  2.4118 -0.8200
  112OSM   H18T11627   0.728   0.504   8.928 -1.3565  1.2884  0.3650
  112OSM   H18U11628   0.669   0.507   9.095 -2.0841  0.4989 -0.6949
  112OSM    C1F11629   0.982   0.953  10.321 -0.3677 -0.0312 -0.4872
  112OSM     OF11630   1.064   1.044  10.347 -0.3538  0.1798 -0.6523
  112OSM    C2F11631   0.892   0.955  10.202  0.2950 -0.3446  0.2679
  112OSM    H2F11632   0.930   1.035  10.134  1.2254 -1.6101 -0.7588
  112OSM    H2G11633   0.786   0.981  10.223 -0.2436 -1.2017 -1.2914
  112OSM    C3F11634   0.886   0.824  10.111 -0.0903  0.0959 -0.3651
  112OSM    H3F11635   0.857   0.742  10.181 -0.5151 -0.4911 -1.2081
  112OSM    H3G11636   0.993   0.826  10.081 -0.3704 -1.1886 -1.5698
  112OSM    C4F11637   0.798   0.842   9.984  0.7448 -0.2279 -0.0037
  112OSM    H4F11638   0.830   0.942   9.950  1.4860  0.7190  3.1182
  112OSM    H4G11639   0.689   0.838  10.000  0.3339 -1.6072 -2.5878
  112OSM    C5F11640   0.817   0.744   9.863 -0.8911 -0.4964 -0.3386
  112OSM    H5F11641   0.804   0.638   9.891  0.3662 -1.6699 -3.7337
  112OSM    H5G11642   0.923   0.747   9.830 -0.0838 -0.1153  2.0646
  112OSM    C6F11643   0.721   0.770   9.749 -0.0982  0.1919 -0.1810
  112OSM    H6F11644   0.724   0.875   9.711 -1.8535 -0.3623 -2.0386
  112OSM    H6G11645   0.619   0.764   9.792 -0.2789 -0.6468 -0.7042
  112OSM    C7F11646   0.724   0.671   9.634  0.1384  0.3142 -0.0008
  112OSM    H7F11647   0.722   0.567   9.673  0.5124  1.0810  2.2063
  112OSM    H7G11648   0.820   0.680   9.579 -0.3376  2.3515 -0.5836
  112OSM    C8F11649   0.608   0.676   9.533 -0.4495  0.1754  0.0974
  112OSM    H8F11650   0.509   0.652   9.576  1.3122  0.1620  4.6121
  112OSM    H8G11651   0.625   0.596   9.458 -1.8429  1.4682 -1.7152
  112OSM    C9F11652   0.606   0.806   9.452  0.5869 -0.3420  0.1349
  112OSM    H9F11653   0.627   0.902   9.501 -2.1535  0.0072  0.8182
  112OSM   C10F11654   0.577   0.820   9.319  0.5679 -0.6428  0.3186
  112OSM   H10F11655   0.588   0.919   9.272 -1.3572 -0.5389 -0.0010
  112OSM   C11F11656   0.542   0.720   9.216 -0.4045 -0.0837  0.1489
  112OSM   H11F11657   0.561   0.615   9.250  1.9194  0.2832  0.1659
  112OSM   H11G11658   0.604   0.724   9.124  1.8596  0.0555  1.5995
  112OSM   C12F11659   0.396   0.737   9.160  0.4173 -0.2831  0.6189
  112OSM   H12F11660   0.380   0.835   9.110  1.6916  0.5923  1.8568
  112OSM   H12G11661   0.329   0.727   9.248 -1.3307 -2.6541 -0.8802
  112OSM   C13F11662   0.359   0.630   9.057  0.6682 -0.3577  0.4668
  112OSM   H13F11663   0.362   0.530   9.106  1.4802  0.3614  1.9489
  112OSM   H13G11664   0.426   0.633   8.969 -1.1849  1.0765 -0.9623
  112OSM   C14F11665   0.214   0.649   9.010  0.4131  0.1362 -0.2404
  112OSM   H14F11666   0.199   0.759   9.011 -2.3380 -0.1809  0.7812
  112OSM   H14G11667   0.148   0.612   9.091 -0.6911 -0.3822 -1.3360
  112OSM   C15F11668   0.178   0.584   8.877  0.0279  0.2123  0.1863
  112OSM   H15F11669   0.142   0.482   8.902  0.5493  0.1208  0.5748
  112OSM   H15G11670   0.276   0.563   8.829  0.2151 -0.2213  0.7607
  112OSM   C16F11671   0.077   0.657   8.793  0.1703  0.0932  0.0485
  112OSM   H16F11672  -0.015   0.678   8.852  0.0889 -1.3023  0.4482
  112OSM   H16G11673   0.050   0.591   8.708  1.9873  0.3472 -0.7783
  112OSM   C17F11674   0.125   0.788   8.726 -0.2319 -0.1639  0.7463
  112OSM   H17F11675   0.174   0.862   8.794 -0.2520  0.0767  0.5034
  112OSM   H17G11676   0.031   0.830   8.686  1.0467  1.3683 -0.8389
  112OSM   C18F11677   0.223   0.791   8.603 -0.2643 -0.1568 -0.0239
  112OSM   H18F11678   0.174   0.741   8.516  2.0129 -1.5022 -0.6290
  112OSM   H18G11679   0.316   0.734   8.623  0.9831  1.0297 -2.0974
  112OSM   H18H11680   0.246   0.897   8.583  0.4734  0.1387  2.1286
  113OSM      N11681   2.227   0.500  10.883  0.3011 -0.4023  0.0987
  113OSM    C1511682   2.273   0.364  10.919  0.0991 -0.5302 -0.0604
  113OSM   H15A11683   2.214   0.326  11.001 -0.1640 -3.6752 -1.5857
  113OSM   H15B11684   2.378   0.344  10.937  0.4903  0.5676 -0.9962
  113OSM   H15C11685   2.235   0.297  10.843  1.0757 -0.1763 -0.8824
  113OSM    C1411686   2.227   0.598  10.994  0.0624  0.0597  0.5938
  113OSM   H14A11687   2.198   0.698  10.963 -2.2817 -0.4074  1.1577
  113OSM   H14B11688   2.325   0.616  11.038  0.2242  0.3841  0.1040
  113OSM   H14C11689   2.169   0.566  11.079 -0.9462  0.6407  0.1422
  113OSM    C1311690   2.319   0.549  10.773  0.8861  1.0347 -0.2872
  113OSM   H13A11691   2.327   0.478  10.692  0.7658  1.8238 -1.0102
  113OSM   H13B11692   2.423   0.570  10.796  0.8117  0.7091  0.3825
  113OSM   H13C11693   2.283   0.644  10.736 -3.2078 -0.0388  0.4228
  113OSM    C1211694   2.081   0.481  10.832 -0.1532 -0.5405  0.3345
  113OSM   H12A11695   2.036   0.572  10.796  2.3407  0.3708 -0.7260
  113OSM   H12B11696   2.020   0.444  10.913  1.0040 -0.8123  1.1141
  113OSM    C1111697   2.065   0.369  10.726 -0.1215 -0.4740 -0.2370
  113OSM   H11A11698   2.158   0.366  10.665 -1.8460  0.3043 -3.1217
  113OSM   H11B11699   1.992   0.380  10.643  2.0181 -3.3684 -2.7090
  113OSM      P11700   1.914   0.205  10.850  0.0126 -0.4566 -0.3105
  113OSM    O1311701   1.925   0.075  10.913 -0.0939  0.2390 -0.6009
  113OSM    O1411702   1.873   0.320  10.936  0.2048  0.0911 -0.3248
  113OSM    O1111703   1.817   0.201  10.727 -0.4206 -0.2131 -0.5587
  113OSM    O1211704   2.053   0.241  10.788 -0.1756  0.1088 -0.4340
  113OSM    C1S11705   1.859   0.126  10.613  0.0644 -0.1743 -0.0898
  113OSM    H1S11706   1.886   0.019  10.628  1.3430 -0.8687 -5.3143
  113OSM    H1T11707   1.954   0.166  10.571 -1.0584  0.2357 -2.4372
  113OSM     NF11708   1.753   0.022  10.412 -0.5263  0.1045 -0.2109
  113OSM    HNF11709   1.785   0.043  10.320 -1.0172  2.2760  0.0792
  113OSM    C2S11710   1.753   0.135  10.501  0.8174 -0.3330  0.1529
  113OSM    H2S11711   1.652   0.146  10.547  0.5785  0.6788 -0.5806
  113OSM    C3S11712   1.762   0.268  10.430  0.0195 -0.1406  0.1817
  113OSM    H3S11713   1.861   0.277  10.382  0.4553  0.6336  1.1944
  113OSM     O311714   1.758   0.379  10.517 -0.0342 -0.0631 -0.5338
  113OSM    HO311715   1.764   0.334  10.601 -0.7771 -0.3554 -0.6360
  113OSM    C4S11716   1.642   0.286  10.336 -0.4565  0.5619 -0.1412
  113OSM    H4S11717   1.542   0.277  10.381 -0.3434  1.5182  0.3373
  113OSM    C5S11718   1.654   0.314  10.203  0.3311  0.3134 -0.5101
  113OSM    H5S11719   1.757   0.316  10.166  0.1909  2.8925 -0.9307
  113OSM    C6S11720   1.550   0.343  10.108  0.7938  0.5020 -0.1944
  113OSM    H6S11721   1.569   0.439  10.056 -2.4787  0.9899 -0.6742
  113OSM    H6T11722   1.450   0.356  10.154  1.3417  0.5262  1.0583
  113OSM    C7S11723   1.528   0.251   9.987  0.6912  0.2606 -0.2738
  113OSM    H7S11724   1.527   0.147  10.025  3.2779 -0.1230 -1.0358
  113OSM    H7T11725   1.621   0.258   9.926  0.8879 -1.0979 -0.1711
  113OSM    C8S11726   1.407   0.282   9.887 -0.1183  0.2415  0.0151
  113OSM    H8S11727   1.371   0.387   9.877 -1.6861 -0.4682 -3.1286
  113OSM    H8T11728   1.321   0.236   9.940  2.1225 -0.4760  3.3465
  113OSM    C9S11729   1.434   0.234   9.745 -0.4126  0.2837  1.0215
  113OSM    H9S11730   1.356   0.157   9.727  0.3105  0.1320 -1.9612
  113OSM    H9T11731   1.530   0.177   9.745 -0.6727 -0.2629 -1.3631
  113OSM   C10S11732   1.432   0.335   9.627 -0.1003 -0.6071  0.3150
  113OSM   H10S11733   1.522   0.400   9.626  0.7360 -1.7433 -0.3420
  113OSM   H10T11734   1.345   0.404   9.637 -0.2326 -0.7345  0.0628
  113OSM   C11S11735   1.417   0.259   9.491 -0.0477  0.1379 -0.1673
  113OSM   H11S11736   1.320   0.206   9.481 -0.6310  0.7779  1.6997
  113OSM   H11T11737   1.497   0.182   9.497  1.1442  1.3873  0.8515
  113OSM   C12S11738   1.424   0.332   9.363 -0.0456 -0.6676 -0.0831
  113OSM   H12S11739   1.526   0.371   9.345  0.4590 -1.1461  1.6046
  113OSM   H12T11740   1.359   0.422   9.372 -1.0606 -1.5029  1.4036
  113OSM   C13S11741   1.379   0.247   9.242  0.1413 -0.1761  0.3970
  113OSM   H13S11742   1.281   0.199   9.264  0.7764 -1.4016  0.6016
  113OSM   H13T11743   1.446   0.161   9.226  0.8785  0.0872  1.8929
  113OSM   C14S11744   1.377   0.324   9.111  0.0697  0.2956  0.4760
  113OSM   H14S11745   1.477   0.369   9.092 -0.0201  0.4422  0.3508
  113OSM   H14T11746   1.319   0.419   9.119 -2.4841 -1.2468  1.5471
  113OSM   C15S11747   1.329   0.232   8.998  0.1304 -0.2775  0.1620
  113OSM   H15S11748   1.235   0.186   9.035  0.9493  0.8094  4.0143
  113OSM   H15T11749   1.402   0.149   8.985  0.5675  0.0432  0.5372
  113OSM   C16S11750   1.312   0.302   8.849 -0.4503 -0.4494  0.0186
  113OSM   H16S11751   1.414   0.342   8.832 -0.5917  0.4017  1.0185
  113OSM   H16T11752   1.229   0.376   8.856 -2.0137 -2.2040  0.9620
  113OSM   C17S11753   1.267   0.211   8.739 -0.1681  0.5085 -0.4334
  113OSM   H17S11754   1.315   0.111   8.753  0.2707  1.0051  2.1039
  113OSM   H17T11755   1.314   0.252   8.647 -0.0420  0.2050 -0.5072
  113OSM   C18S11756   1.115   0.189   8.724  0.0669 -0.5030  0.0388
  113OSM   H18S11757   1.074   0.284   8.684  3.7973  0.4256 -2.0739
  113OSM   H18T11758   1.071   0.169   8.824 -3.2866 -2.3391 -1.6355
  113OSM   H18U11759   1.081   0.099   8.670 -0.5278 -0.2067 -0.0863
  113OSM    C1F11760   1.725  -0.098  10.460 -0.0424 -0.2043  0.2492
  113OSM     OF11761   1.696  -0.115  10.578 -0.4863  0.0991  0.0535
  113OSM    C2F11762   1.737  -0.206  10.359  0.7982 -0.0745  0.3331
  113OSM    H2F11763   1.835  -0.199  10.306  0.0571 -1.3614 -1.2726
  113OSM    H2G11764   1.652  -0.213  10.289 -1.0254 -1.9751  2.5906
  113OSM    C3F11765   1.741  -0.348  10.426  0.1776  0.0890  0.0858
  113OSM    H3F11766   1.652  -0.352  10.492  1.6222  2.6324  2.3975
  113OSM    H3G11767   1.823  -0.359  10.500  0.1584 -0.7220 -0.0034
  113OSM    C4F11768   1.744  -0.449  10.321  0.0116 -0.2745 -0.6105
  113OSM    H4F11769   1.664  -0.434  10.245 -2.1797  1.0965  1.8106
  113OSM    H4G11770   1.716  -0.550  10.358  0.8587 -0.7735 -1.2844
  113OSM    C5F11771   1.886  -0.460  10.256 -0.5114  0.4346 -0.4580
  113OSM    H5F11772   1.948  -0.517  10.329  0.0332  1.4829 -0.0798
  113OSM    H5G11773   1.937  -0.363  10.239  2.2433 -0.9710 -0.8557
  113OSM    C6F11774   1.877  -0.537  10.121 -0.3241 -0.6072  0.0698
  113OSM    H6F11775   1.829  -0.470  10.046 -0.2519  0.2599  0.7857
  113OSM    H6G11776   1.811  -0.625  10.134 -0.4197 -0.6519 -0.6720
  113OSM    C7F11777   2.010  -0.590  10.062  0.0927  0.7756 -0.7235
  113OSM    H7F11778   1.989  -0.659   9.979  0.6379 -2.1543  1.4195
  113OSM    H7G11779   2.065  -0.663  10.125 -0.4360  2.0699  1.3602
  113OSM    C8F11780   2.098  -0.476  10.006  0.3790  0.3121 -0.1280
  113OSM    H8F11781   2.114  -0.403  10.089 -0.0940 -1.6084  1.7490
  113OSM    H8G11782   2.046  -0.422   9.925 -0.6843 -1.5640 -0.7566
  113OSM    C9F11783   2.227  -0.519   9.943  0.1806 -0.5360 -0.2337
  113OSM    H9F11784   2.322  -0.495   9.994  0.9551 -0.8896 -1.4622
  113OSM   C10F11785   2.233  -0.559   9.813 -0.1271 -0.6782  0.0039
  113OSM   H10F11786   2.327  -0.605   9.780  0.2391 -0.0819  0.1921
  113OSM   C11F11787   2.131  -0.585   9.705 -0.3315 -0.0075 -0.0539
  113OSM   H11F11788   2.158  -0.526   9.615 -1.0635  0.9742  0.3577
  113OSM   H11G11789   2.028  -0.555   9.736 -0.5293 -0.9711  0.2610
  113OSM   C12F11790   2.109  -0.733   9.656  0.1271  0.0996 -0.1197
  113OSM   H12F11791   2.005  -0.735   9.617 -0.8343 -1.6402  2.2845
  113OSM   H12G11792   2.107  -0.795   9.748 -0.5286 -0.1408 -0.2938
  113OSM   C13F11793   2.210  -0.772   9.543  0.7346  0.0053 -1.2161
  113OSM   H13F11794   2.315  -0.764   9.580  0.0407  0.4651  0.8263
  113OSM   H13G11795   2.185  -0.703   9.460 -1.2331  1.6231  0.5890
  113OSM   C14F11796   2.199  -0.919   9.497 -0.1326  0.9734  1.0877
  113OSM   H14F11797   2.259  -0.927   9.403 -0.6201 -2.8616  0.9444
  113OSM   H14G11798   2.099  -0.949   9.460  0.8349 -1.0429 -0.1062
  113OSM   C15F11799   2.257  -1.013   9.608 -0.5033  0.2456  0.1983
  113OSM   H15F11800   2.212  -0.990   9.707  2.5609 -2.3325  2.3705
  113OSM   H15G11801   2.364  -0.987   9.617  0.0783 -1.4777 -1.1344
  113OSM   C16F11802   2.233  -1.160   9.576  0.2292  0.2723  0.2639
  113OSM   H16F11803   2.273  -1.174   9.473  0.5378  0.2826  0.3805
  113OSM   H16G11804   2.125  -1.187   9.577 -0.0208  0.8818 -2.2095
  113OSM   C17F11805   2.305  -1.262   9.662 -0.2115  0.1530  0.3292
  113OSM   H17F11806   2.414  -1.270   9.639 -0.3310 -0.2774 -0.1151
  113OSM   H17G11807   2.283  -1.369   9.641  1.9219 -0.0217 -1.3568
  113OSM   C18F11808   2.291  -1.232   9.816 -0.0977 -0.5281 -0.1905
  113OSM   H18F11809   2.189  -1.209   9.854  0.4224  1.6285  0.0387
  113OSM   H18G11810   2.357  -1.150   9.852  0.3193 -0.5822 -0.8276
  113OSM   H18H11811   2.312  -1.323   9.876 -0.1630 -0.7188 -0.4563
  114OSM      N11812   3.178   4.778  11.691 -0.0166  0.2306  0.4912
  114OSM    C1511813   3.266   4.704  11.781  0.6679  0.5690 -0.2858
  114OSM   H15A11814   3.281   4.598  11.765 -0.8660 -0.0209  1.8673
  114OSM   H15B11815   3.232   4.719  11.882 -0.0527 -0.2810 -0.3883
  114OSM   H15C11816   3.369   4.738  11.775  0.4402  1.1885 -0.7912
  114OSM    C1411817   3.181   4.919  11.729 -0.2617  0.3098 -0.2373
  114OSM   H14A11818   3.140   4.941  11.826  0.6557  0.9974  0.0018
  114OSM   H14B11819   3.125   4.983  11.663 -1.5829 -1.9622 -1.4699
  114OSM   H14C11820   3.278   4.957  11.700 -0.8714  0.3799 -2.4059
  114OSM    C1311821   3.233   4.751  11.556 -0.1019  0.3603  0.5207
  114OSM   H13A11822   3.329   4.798  11.543  0.5248 -0.0785  3.0774
  114OSM   H13B11823   3.171   4.797  11.480 -3.0073 -1.9760  1.2747
  114OSM   H13C11824   3.246   4.648  11.526  0.6459 -0.4745  3.3868
  114OSM    C1211825   3.033   4.726  11.700 -0.4155  0.8342 -0.4543
  114OSM   H12A11826   2.999   4.763  11.795 -1.4560 -2.6233  0.6528
  114OSM   H12B11827   3.041   4.619  11.695 -2.2595  0.7278 -2.6998
  114OSM    C1111828   2.938   4.771  11.588 -0.1049 -0.1760  0.1129
  114OSM   H11A11829   2.945   4.882  11.587 -0.2370 -0.1661  0.1827
  114OSM   H11B11830   2.836   4.741  11.621  0.6421 -2.4349  0.5905
  114OSM      P11831   2.921   4.570  11.434  0.0969  0.2042  0.0724
  114OSM    O1311832   2.987   4.481  11.531 -0.3166 -0.2585  0.1715
  114OSM    O1411833   2.778   4.569  11.429 -0.7467  0.3338  0.0827
  114OSM    O1111834   2.976   4.532  11.287  0.8805  0.1323 -0.0759
  114OSM    O1211835   2.971   4.717  11.460 -0.1829 -0.2798 -0.1889
  114OSM    C1S11836   3.106   4.501  11.256 -0.0394  0.2816 -0.1918
  114OSM    H1S11837   3.137   4.403  11.299  2.5526  0.6205 -1.1084
  114OSM    H1T11838   3.176   4.578  11.295  3.9828 -1.9980 -2.2139
  114OSM     NF11839   3.256   4.448  11.075  0.1301 -0.3634  0.1396
  114OSM    HNF11840   3.309   4.517  11.026  0.4434 -0.5018  0.2822
  114OSM    C2S11841   3.124   4.501  11.107 -0.1867 -0.2611  0.0398
  114OSM    H2S11842   3.052   4.421  11.081  0.7221 -1.2739  0.5544
  114OSM    C3S11843   3.094   4.638  11.051  0.0388 -0.1553  0.1804
  114OSM    H3S11844   3.169   4.713  11.085 -0.0913  0.0036  0.1192
  114OSM     O311845   2.971   4.698  11.099  0.1963 -0.5041  0.5990
  114OSM    HO311846   2.959   4.650  11.181  0.4998 -0.1283  0.8706
  114OSM    C4S11847   3.096   4.628  10.900 -0.2749  0.3049  0.1932
  114OSM    H4S11848   3.200   4.613  10.867 -0.8598  0.8667 -2.0708
  114OSM    C5S11849   3.000   4.638  10.806  0.5890  0.1384  0.3567
  114OSM    H5S11850   2.894   4.651  10.830  0.6043  2.7693 -0.6911
  114OSM    C6S11851   3.036   4.626  10.659  0.0441 -0.0815 -0.0681
  114OSM    H6S11852   3.140   4.588  10.650 -0.2975 -0.6421 -2.3445
  114OSM    H6T11853   3.031   4.728  10.614  0.2605  0.0966  0.3064
  114OSM    C7S11854   2.952   4.526  10.577  0.1830 -0.1290 -0.0775
  114OSM    H7S11855   2.985   4.531  10.471 -0.3043 -1.1525 -0.2931
  114OSM    H7T11856   2.844   4.551  10.590  0.3772 -0.3373  2.1540
  114OSM    C8S11857   2.962   4.378  10.632 -0.4581 -0.5926 -0.4353
  114OSM    H8S11858   2.908   4.361  10.727  1.2061 -1.4243  0.4063
  114OSM    H8T11859   3.070   4.355  10.648 -0.3186  0.1612 -0.2426
  114OSM    C9S11860   2.915   4.267  10.535  0.5638 -0.5062  0.3432
  114OSM    H9S11861   2.998   4.259  10.461 -0.5555  0.4817 -1.0599
  114OSM    H9T11862   2.823   4.294  10.479  0.8394  0.4572  0.3290
  114OSM   C10S11863   2.911   4.124  10.596 -0.6774  0.3290 -0.5825
  114OSM   H10S11864   2.832   4.117  10.674 -1.8788 -2.7804 -1.9201
  114OSM   H10T11865   3.008   4.091  10.638  0.1601  1.9470 -1.1514
  114OSM   C11S11866   2.866   4.018  10.489 -0.7818  0.7863  0.7483
  114OSM   H11S11867   2.935   4.014  10.402 -0.0840 -0.6769  1.3433
  114OSM   H11T11868   2.758   4.032  10.464 -0.9287  0.8268  1.3774
  114OSM   C12S11869   2.869   3.866  10.538  0.0675 -0.1831 -0.2555
  114OSM   H12S11870   2.790   3.868  10.616 -1.2664  1.2283 -1.5825
  114OSM   H12T11871   2.965   3.848  10.591  0.2403  2.6216  0.5614
  114OSM   C13S11872   2.853   3.756  10.436 -0.2068 -0.4323  0.1231
  114OSM   H13S11873   2.846   3.659  10.491 -2.3807  0.7888  2.1626
  114OSM   H13T11874   2.936   3.755  10.362 -2.1874  1.6742 -2.3200
  114OSM   C14S11875   2.736   3.778  10.349  0.3932 -0.4996 -0.8730
  114OSM   H14S11876   2.741   3.871  10.289 -0.2456 -0.9213 -1.5980
  114OSM   H14T11877   2.655   3.786  10.425  0.9749  0.0895 -0.3037
  114OSM   C15S11878   2.711   3.660  10.249  0.7440  0.0717  0.0797
  114OSM   H15S11879   2.777   3.676  10.161  0.3901  0.6485 -0.0845
  114OSM   H15T11880   2.609   3.676  10.207  1.6794  0.4025 -2.2282
  114OSM   C16S11881   2.737   3.512  10.296  0.0179  0.4748 -0.4811
  114OSM   H16S11882   2.685   3.488  10.390  0.4558  1.8850  0.1462
  114OSM   H16T11883   2.847   3.501  10.310 -0.1030  0.4279  0.4616
  114OSM   C17S11884   2.699   3.399  10.197 -0.8235 -1.7338  0.6874
  114OSM   H17S11885   2.765   3.423  10.111 -1.7678  0.0330  0.4064
  114OSM   H17T11886   2.598   3.412  10.152  0.3563 -1.1814 -1.9497
  114OSM   C18S11887   2.714   3.260  10.256 -0.0993  0.0303  0.0070
  114OSM   H18S11888   2.626   3.244  10.322  0.1674 -1.5341  0.0145
  114OSM   H18T11889   2.805   3.256  10.320 -0.5940  0.7475  0.7795
  114OSM   H18U11890   2.715   3.184  10.175  0.6666 -0.2219  0.2505
  114OSM    C1F11891   3.303   4.327  11.108  0.7719  0.5149 -0.4428
  114OSM     OF11892   3.223   4.238  11.150 -0.1328  0.0379  0.3595
  114OSM    C2F11893   3.451   4.299  11.095 -0.3243  0.0077  0.1556
  114OSM    H2F11894   3.495   4.315  11.195 -1.2164  3.7449  0.0776
  114OSM    H2G11895   3.500   4.365  11.020 -0.5630  1.0893  0.9242
  114OSM    C3F11896   3.476   4.162  11.021 -0.8207 -1.0542  0.4755
  114OSM    H3F11897   3.382   4.104  11.024 -2.8295  1.9442  0.0238
  114OSM    H3G11898   3.550   4.104  11.080 -3.6144 -3.3049  2.0524
  114OSM    C4F11899   3.529   4.171  10.873 -0.5452 -0.2546 -0.0890
  114OSM    H4F11900   3.553   4.068  10.841 -0.9957 -1.2560  2.5695
  114OSM    H4G11901   3.619   4.236  10.871 -0.5783 -0.1323  1.2464
  114OSM    C5F11902   3.420   4.236  10.790  0.1043 -0.2289 -0.4514
  114OSM    H5F11903   3.402   4.340  10.827 -3.1184 -0.9348  0.2610
  114OSM    H5G11904   3.326   4.177  10.794 -0.2300  0.1793 -1.7927
  114OSM    C6F11905   3.469   4.237  10.644 -0.3723  0.3869 -0.7752
  114OSM    H6F11906   3.444   4.139  10.597 -1.5164 -0.0514  0.7104
  114OSM    H6G11907   3.579   4.254  10.642 -0.1576 -0.1911  2.2807
  114OSM    C7F11908   3.398   4.353  10.567  0.3017  0.4245 -0.2757
  114OSM    H7F11909   3.393   4.444  10.631 -0.5484 -0.5125  1.0391
  114OSM    H7G11910   3.291   4.331  10.545  0.1822  0.9586 -0.2500
  114OSM    C8F11911   3.483   4.374  10.442 -0.4202 -0.3533  0.1678
  114OSM    H8F11912   3.488   4.279  10.385 -1.0354 -0.6159  0.5416
  114OSM    H8G11913   3.590   4.392  10.464 -0.6794  2.4009 -0.5489
  114OSM    C9F11914   3.459   4.477  10.342 -0.2313  0.2122  0.2406
  114OSM    H9F11915   3.402   4.564  10.378  2.4607  1.7369  1.0822
  114OSM   C10F11916   3.493   4.489  10.213  0.7703 -0.2229  0.1382
  114OSM   H10F11917   3.454   4.580  10.166 -0.4465 -0.2687  0.9848
  114OSM   C11F11918   3.572   4.391  10.124  0.2582  0.4968 -0.4205
  114OSM   H11F11919   3.604   4.304  10.184 -2.0901 -0.0277  0.1947
  114OSM   H11G11920   3.662   4.445  10.088 -0.0356  0.8475 -0.6344
  114OSM   C12F11921   3.489   4.326  10.010 -0.3580 -1.5670 -0.0774
  114OSM   H12F11922   3.398   4.285  10.060 -3.3837  2.8564 -1.4060
  114OSM   H12G11923   3.546   4.248   9.956 -0.6977 -1.5643 -0.4425
  114OSM   C13F11924   3.452   4.422   9.900 -0.4539 -0.6977 -0.3512
  114OSM   H13F11925   3.550   4.447   9.855 -0.5930 -1.3439 -1.0356
  114OSM   H13G11926   3.400   4.513   9.936  1.2024  0.6807 -1.2858
  114OSM   C14F11927   3.364   4.366   9.788  0.2068 -0.2132 -0.2063
  114OSM   H14F11928   3.265   4.351   9.835  0.0539 -0.2824 -0.5460
  114OSM   H14G11929   3.402   4.266   9.758  1.4882  0.6606 -1.7004
  114OSM   C15F11930   3.353   4.441   9.652  0.6927 -0.1580  0.1593
  114OSM   H15F11931   3.452   4.429   9.601  1.5980  1.0326  1.5553
  114OSM   H15G11932   3.347   4.551   9.660  2.5434 -0.0829  1.1833
  114OSM   C16F11933   3.244   4.384   9.562  1.1963  0.3533 -0.3032
  114OSM   H16F11934   3.141   4.416   9.585  0.7091 -1.3910  0.1234
  114OSM   H16G11935   3.231   4.276   9.587 -1.3445  0.7285  0.2098
  114OSM   C17F11936   3.276   4.396   9.416  0.4772 -0.2494  0.6169
  114OSM   H17F11937   3.368   4.336   9.396  0.6168  0.3085 -0.4978
  114OSM   H17G11938   3.296   4.503   9.395  0.1334 -0.2574  0.2356
  114OSM   C18F11939   3.158   4.346   9.330  0.4623 -0.1306  0.1319
  114OSM   H18F11940   3.175   4.368   9.222 -1.8391  1.3614 -0.0049
  114OSM   H18G11941   3.057   4.389   9.352  0.6532  0.8217 -0.7674
  114OSM   H18H11942   3.160   4.235   9.338  2.2726 -0.1804 -0.6123
  115OSM      N11943   4.129   3.091   6.167  0.0529  0.4856  0.3406
  115OSM    C1511944   4.032   3.064   6.273  0.3765  0.1064  0.0765
  115OSM   H15A11945   4.078   3.014   6.357  1.1874  1.1466  0.2630
  115OSM   H15B11946   3.947   3.006   6.239 -0.8785  0.0373  2.9996
  115OSM   H15C11947   3.995   3.158   6.311 -0.9690 -0.5661  0.5111
  115OSM    C1411948   4.155   2.966   6.086 -0.5467  0.0365  0.7208
  115OSM   H14A11949   4.190   2.883   6.146  1.4365 -1.2932 -2.0645
  115OSM   H14B11950   4.237   2.981   6.018 -0.1706  3.1114  1.6692
  115OSM   H14C11951   4.066   2.931   6.035 -0.1332 -0.8389  0.5984
  115OSM    C1311952   4.066   3.183   6.073  0.1153 -0.1279  0.4794
  115OSM   H13A11953   4.001   3.146   5.995  0.6411 -0.8701  0.3787
  115OSM   H13B11954   4.135   3.245   6.020 -0.5548  0.1161 -0.1206
  115OSM   H13C11955   4.004   3.262   6.113 -0.1986  0.1144 -0.4600
  115OSM    C1211956   4.262   3.151   6.213 -0.3755 -0.3543 -0.1495
  115OSM   H12A11957   4.300   3.081   6.286 -0.3946  0.2413  0.4372
  115OSM   H12B11958   4.246   3.244   6.266  1.7919  1.3227 -2.2048
  115OSM    C1111959   4.373   3.194   6.112  0.3640 -0.2992  0.1928
  115OSM   H11A11960   4.458   3.248   6.160 -0.0342  0.3608  0.1629
  115OSM   H11B11961   4.326   3.274   6.051  0.1884 -1.5841 -1.4265
  115OSM      P11962   4.519   2.989   6.036  0.1443 -0.0290 -0.2200
  115OSM    O1311963   4.489   2.875   5.949 -0.0507 -0.1350 -0.4843
  115OSM    O1411964   4.655   3.051   6.025 -0.1296  0.1662 -0.5856
  115OSM    O1111965   4.488   2.950   6.180 -0.2528  0.1412  0.1870
  115OSM    O1211966   4.407   3.096   6.017 -0.3074  0.2559 -0.0186
  115OSM    C1S11967   4.560   2.834   6.240  0.6614  0.4022  0.3905
  115OSM    H1S11968   4.660   2.820   6.194  0.5303 -1.0107  0.4838
  115OSM    H1T11969   4.503   2.741   6.222 -0.1690  0.8190  0.8214
  115OSM     NF11970   4.660   2.762   6.439  0.0649 -0.6907 -0.3261
  115OSM    HNF11971   4.630   2.674   6.475 -0.4637  0.3436  1.9674
  115OSM    C2S11972   4.566   2.854   6.389  0.0332  0.3612  0.2029
  115OSM    H2S11973   4.587   2.958   6.421 -0.9832 -0.5408  4.4718
  115OSM    C3S11974   4.423   2.828   6.450 -0.8115  0.2695  0.0541
  115OSM    H3S11975   4.397   2.722   6.433 -0.4246  0.3208 -0.9632
  115OSM     O311976   4.317   2.904   6.388 -0.4235  0.4596  0.1633
  115OSM    HO311977   4.356   2.962   6.322  0.6298  0.9973  1.2204
  115OSM    C4S11978   4.431   2.864   6.597  0.4187 -0.3893 -0.6553
  115OSM    H4S11979   4.472   2.789   6.666  0.7526 -0.2778 -0.7309
  115OSM    C5S11980   4.400   2.984   6.650  0.3580  0.3520 -0.5592
  115OSM    H5S11981   4.348   3.055   6.583  0.1918 -1.3464 -2.2850
  115OSM    C6S11982   4.402   3.021   6.792 -0.2799  0.2816  0.4948
  115OSM    H6S11983   4.297   3.022   6.828 -0.8941 -0.2354 -1.1900
  115OSM    H6T11984   4.444   3.121   6.814 -0.0158 -0.0066  1.3320
  115OSM    C7S11985   4.488   2.931   6.887 -0.1687 -0.1081  0.0239
  115OSM    H7S11986   4.593   2.912   6.856 -0.3557  1.5415 -1.8352
  115OSM    H7T11987   4.450   2.827   6.881 -2.1205  0.6214 -1.0390
  115OSM    C8S11988   4.505   2.977   7.031  0.0811 -0.2881  0.9718
  115OSM    H8S11989   4.494   3.087   7.039 -1.1799 -0.2553 -0.5975
  115OSM    H8T11990   4.610   2.955   7.059  0.3029 -0.7863 -0.1904
  115OSM    C9S11991   4.415   2.922   7.139 -0.3713 -0.0651 -0.9264
  115OSM    H9S11992   4.421   2.811   7.141 -1.6106 -0.1731 -2.0649
  115OSM    H9T11993   4.308   2.947   7.131 -0.5117 -0.5951 -0.7473
  115OSM   C10S11994   4.483   2.957   7.280 -0.1145  0.2870  0.3561
  115OSM   H10S11995   4.442   3.058   7.306 -0.8529  0.2602 -0.6544
  115OSM   H10T11996   4.593   2.964   7.263  0.2734  0.4727  2.6372
  115OSM   C11S11997   4.449   2.869   7.393 -0.7326 -0.5776 -0.8799
  115OSM   H11S11998   4.477   2.768   7.356  0.5112  0.2020 -2.1739
  115OSM   H11T11999   4.340   2.856   7.414  0.0971 -2.1545  3.5326
  115OSM   C12S12000   4.527   2.913   7.518  0.0959 -0.2046  0.0487
  115OSM   H12S12001   4.492   3.017   7.533  1.6704  0.4404 -0.5390
  115OSM   H12T12002   4.635   2.914   7.491 -0.2350 -1.7263 -1.5650
  115OSM   C13S12003   4.495   2.833   7.646  0.6682  0.2009  0.0747
  115OSM   H13S12004   4.532   2.729   7.630 -0.2763 -0.4339  1.7071
  115OSM   H13T12005   4.385   2.840   7.665  0.5570  1.5556 -0.9422
  115OSM   C14S12006   4.554   2.897   7.773 -0.0222  0.5327 -0.4218
  115OSM   H14S12007   4.535   3.006   7.779 -1.1306  0.2630  2.1680
  115OSM   H14T12008   4.665   2.895   7.762 -0.0433 -0.7657 -0.5252
  115OSM   C15S12009   4.495   2.833   7.898 -0.2612  0.3656 -0.6917
  115OSM   H15S12010   4.387   2.857   7.892 -0.9905 -2.7963 -2.5605
  115OSM   H15T12011   4.533   2.896   7.982  0.2125  1.1746 -1.4887
  115OSM   C16S12012   4.497   2.678   7.914  0.1228  0.1539 -0.2166
  115OSM   H16S12013   4.598   2.636   7.934 -0.0153 -1.6260 -2.7106
  115OSM   H16T12014   4.468   2.636   7.816 -0.5130  0.0404  0.0168
  115OSM   C17S12015   4.390   2.637   8.018 -0.4749  0.2107  0.3037
  115OSM   H17S12016   4.383   2.526   8.026  1.4849  0.0971  0.9347
  115OSM   H17T12017   4.294   2.674   7.977  0.2901  1.1915 -0.6521
  115OSM   C18S12018   4.401   2.703   8.149  0.0277  0.2171 -0.8205
  115OSM   H18S12019   4.414   2.813   8.156  0.4440  0.1622 -0.7299
  115OSM   H18T12020   4.489   2.662   8.202 -1.0788  0.1098  1.0279
  115OSM   H18U12021   4.308   2.696   8.211 -0.3733  4.8951 -0.5471
  115OSM    C1F12022   4.791   2.784   6.416  0.7047 -0.2482 -0.1490
  115OSM     OF12023   4.837   2.883   6.359  0.0692  0.3101 -0.0702
  115OSM    C2F12024   4.889   2.685   6.451  0.2331  0.3824 -0.6274
  115OSM    H2F12025   4.991   2.728   6.438 -0.0388  0.8440 -1.2700
  115OSM    H2G12026   4.874   2.599   6.382 -3.4671 -1.0172  1.6728
  115OSM    C3F12027   4.884   2.615   6.594  0.1660 -0.4334  0.1196
  115OSM    H3F12028   4.965   2.539   6.605 -0.8536 -1.5285  0.2914
  115OSM    H3G12029   4.782   2.570   6.594 -0.1664  0.2780  1.1451
  115OSM    C4F12030   4.895   2.714   6.712  0.7570 -0.0984 -0.4571
  115OSM    H4F12031   4.818   2.793   6.700  0.4793 -0.0774  1.2723
  115OSM    H4G12032   4.996   2.759   6.725  0.4886 -0.0025  1.7473
  115OSM    C5F12033   4.874   2.661   6.854 -0.1235 -0.4761  0.0859
  115OSM    H5F12034   4.897   2.749   6.918  1.0005  0.0545 -1.0081
  115OSM    H5G12035   4.942   2.577   6.877  0.1120 -0.1472  0.6186
  115OSM    C6F12036   4.739   2.601   6.876 -0.1887 -0.3495 -0.2424
  115OSM    H6F12037   4.723   2.517   6.805 -1.2754  1.0007 -1.6673
  115OSM    H6G12038   4.664   2.680   6.855 -0.4737 -0.9924 -1.7792
  115OSM    C7F12039   4.722   2.550   7.021 -0.0771 -0.2092 -0.0852
  115OSM    H7F12040   4.775   2.453   7.029  2.0962  0.9569  0.6286
  115OSM    H7G12041   4.617   2.516   7.025 -0.3594  0.5957 -0.4560
  115OSM    C8F12042   4.752   2.647   7.133 -0.7212 -0.4082 -0.8948
  115OSM    H8F12043   4.697   2.738   7.102 -3.3741 -1.8805 -0.8243
  115OSM    H8G12044   4.863   2.661   7.133 -0.1345 -3.9384  0.3413
  115OSM    C9F12045   4.693   2.594   7.273  0.1561  0.3340  0.2216
  115OSM    H9F12046   4.592   2.550   7.261 -0.0787  0.1040  2.6267
  115OSM   C10F12047   4.749   2.596   7.393 -0.2435  0.6691  0.6480
  115OSM   H10F12048   4.708   2.543   7.480  2.5122  0.2799  1.8227
  115OSM   C11F12049   4.880   2.669   7.423 -0.8125 -0.0150 -0.0685
  115OSM   H11F12050   4.900   2.742   7.341  0.0063 -0.8042 -0.5859
  115OSM   H11G12051   4.965   2.598   7.420 -0.7640  0.0378  0.0590
  115OSM   C12F12052   4.883   2.715   7.564 -0.5313 -0.5215  0.0611
  115OSM   H12F12053   4.786   2.759   7.597  0.2283  1.2229  0.0818
  115OSM   H12G12054   4.950   2.803   7.568 -1.1527  0.1131 -2.2326
  115OSM   C13F12055   4.923   2.607   7.667 -0.3848 -0.2502  0.1238
  115OSM   H13F12056   5.011   2.553   7.627 -0.7855  0.0884 -1.2982
  115OSM   H13G12057   4.836   2.537   7.676 -0.8991  0.2864 -0.5414
  115OSM   C14F12058   4.930   2.661   7.811 -0.1149 -0.2281 -0.2191
  115OSM   H14F12059   4.840   2.721   7.835  0.4489  0.5676 -0.0363
  115OSM   H14G12060   5.024   2.719   7.825  0.4938 -0.5327 -2.7037
  115OSM   C15F12061   4.923   2.538   7.903  0.5183  0.2274  0.8696
  115OSM   H15F12062   5.005   2.467   7.878  0.9714  1.0753 -0.1138
  115OSM   H15G12063   4.829   2.482   7.881  0.8200 -1.0388  2.6523
  115OSM   C16F12064   4.924   2.565   8.051  0.1286  0.0896 -0.3222
  115OSM   H16F12065   4.844   2.637   8.077 -0.4859  1.0646 -4.2792
  115OSM   H16G12066   5.022   2.614   8.071 -1.0760  1.9434  1.2947
  115OSM   C17F12067   4.889   2.434   8.118  0.1112  0.6999  0.4276
  115OSM   H17F12068   4.954   2.351   8.082  0.4031  0.4172  1.5735
  115OSM   H17G12069   4.787   2.404   8.086  0.2675  1.7985 -1.2508
  115OSM   C18F12070   4.894   2.432   8.268  0.3233  0.6962  0.0852
  115OSM   H18F12071   4.892   2.324   8.294 -3.0482  0.1189 -1.9802
  115OSM   H18G12072   4.810   2.489   8.312 -1.0050 -2.6601  2.3542
  115OSM   H18H12073   4.994   2.466   8.302  1.9590  0.4237 -3.8460
  116OSM      N12074   4.474   5.633   6.370 -0.6877 -0.4094  0.1461
  116OSM    C1512075   4.382   5.622   6.243  0.0025  0.0577  0.2694
  116OSM   H15A12076   4.335   5.525   6.242 -2.5068  1.1915  0.6288
  116OSM   H15B12077   4.433   5.643   6.150  0.4831  1.4741  0.8180
  116OSM   H15C12078   4.306   5.699   6.246  1.2970  1.4315 -0.5559
  116OSM    C1412079   4.523   5.774   6.389 -0.1345  0.2349 -0.6027
  116OSM   H14A12080   4.441   5.841   6.413  0.5611  0.4077  1.4764
  116OSM   H14B12081   4.586   5.803   6.306  1.9850 -0.7680  0.5699
  116OSM   H14C12082   4.573   5.785   6.484 -1.3388  0.8675 -0.0236
  116OSM    C1312083   4.396   5.588   6.489 -0.2073 -0.6235 -0.0574
  116OSM   H13A12084   4.315   5.657   6.505  2.2411  1.9878  2.2467
  116OSM   H13B12085   4.456   5.598   6.578  1.1937 -0.5055 -0.9706
  116OSM   H13C12086   4.356   5.489   6.478  0.8694 -0.9320 -1.5351
  116OSM    C1212087   4.590   5.532   6.345  0.5806  0.3537  0.2536
  116OSM   H12A12088   4.554   5.430   6.340  2.7693 -0.4373 -0.5907
  116OSM   H12B12089   4.655   5.528   6.431 -0.0212  1.3010  0.7727
  116OSM    C1112090   4.681   5.564   6.220  0.8526 -0.0642  0.3406
  116OSM   H11A12091   4.625   5.529   6.130 -0.4418 -0.3332  1.2233
  116OSM   H11B12092   4.766   5.492   6.225  0.4343 -0.5195  1.2581
  116OSM      P12093   4.850   5.749   6.260 -0.3988 -0.5420  0.0450
  116OSM    O1312094   4.960   5.707   6.169 -0.3811  0.0753  0.2582
  116OSM    O1412095   4.833   5.892   6.280  0.0256 -0.2083  0.3454
  116OSM    O1112096   4.865   5.680   6.396  0.4523 -0.2666  0.1241
  116OSM    O1212097   4.723   5.700   6.193 -0.1224 -0.5572 -0.0123
  116OSM    C1S12098   4.949   5.725   6.499 -0.0001  0.3695 -0.0448
  116OSM    H1S12099   4.965   5.835   6.491 -0.5348  0.3690 -1.2140
  116OSM    H1T12100   5.051   5.681   6.499  0.3134  0.9190  2.7396
  116OSM     NF12101   4.975   5.738   6.750 -0.0633 -0.1887 -0.2498
  116OSM    HNF12102   5.068   5.704   6.740  0.6225  1.3736  0.5273
  116OSM    C2S12103   4.899   5.676   6.642  0.5673 -0.2337 -0.1326
  116OSM    H2S12104   4.793   5.708   6.636  1.1162  1.5784 -1.2954
  116OSM    C3S12105   4.910   5.523   6.651 -0.6275 -0.6990 -0.6795
  116OSM    H3S12106   5.017   5.494   6.659 -0.5235 -0.1287  0.0786
  116OSM     O312107   4.856   5.458   6.538 -0.1106  0.3947 -0.3175
  116OSM    HO312108   4.853   5.524   6.468 -1.7900  0.0844 -0.5693
  116OSM    C4S12109   4.855   5.475   6.784  0.1298 -0.4612  0.6331
  116OSM    H4S12110   4.915   5.524   6.862 -0.9114  0.2607  0.9959
  116OSM    C5S12111   4.751   5.395   6.819 -0.3711 -0.0116  0.9973
  116OSM    H5S12112   4.688   5.345   6.744  2.4361 -0.2115 -1.4137
  116OSM    C6S12113   4.729   5.367   6.960  0.4842  0.5909 -0.2892
  116OSM    H6S12114   4.819   5.332   7.014  0.5161  0.5187 -0.3900
  116OSM    H6T12115   4.655   5.285   6.973  0.3494  0.3866 -2.1523
  116OSM    C7S12116   4.679   5.496   7.021  0.4862 -0.1191 -0.0311
  116OSM    H7S12117   4.588   5.536   6.972 -0.2761 -3.2191 -1.4105
  116OSM    H7T12118   4.760   5.571   7.006  0.1132  0.1281 -0.8334
  116OSM    C8S12119   4.646   5.484   7.172 -0.7140  0.1858 -0.5681
  116OSM    H8S12120   4.564   5.410   7.176  0.3017 -1.0014  3.6600
  116OSM    H8T12121   4.609   5.579   7.216  1.4642 -0.1436  2.2803
  116OSM    C9S12122   4.770   5.431   7.253 -0.2694 -0.4469  0.0966
  116OSM    H9S12123   4.846   5.512   7.254 -1.7237  0.9676  1.9264
  116OSM    H9T12124   4.794   5.334   7.204  0.5766  0.4695 -1.4162
  116OSM   C10S12125   4.742   5.394   7.400  0.1055  0.1251  0.6093
  116OSM   H10S12126   4.687   5.297   7.405  0.4102 -0.1149 -0.4070
  116OSM   H10T12127   4.690   5.481   7.445  0.7937  0.1280  1.4222
  116OSM   C11S12128   4.883   5.379   7.462  0.1888 -0.4983 -0.2045
  116OSM   H11S12129   4.928   5.478   7.481 -2.0140  0.5021  0.1819
  116OSM   H11T12130   4.953   5.340   7.386  0.8324  0.2368 -0.0006
  116OSM   C12S12131   4.879   5.312   7.599 -0.2407 -0.1585  0.3224
  116OSM   H12S12132   4.978   5.265   7.618  0.6798  1.6415  0.1874
  116OSM   H12T12133   4.800   5.233   7.601  1.0189 -1.4485  1.6939
  116OSM   C13S12134   4.854   5.422   7.703  0.4048  0.4386  0.2833
  116OSM   H13S12135   4.758   5.476   7.683  1.4324  1.4091 -2.6357
  116OSM   H13T12136   4.938   5.495   7.707 -1.1152  2.3540 -0.6131
  116OSM   C14S12137   4.846   5.343   7.837 -0.2178 -0.1061  0.1042
  116OSM   H14S12138   4.941   5.294   7.868 -0.2911 -1.1165 -1.2322
  116OSM   H14T12139   4.772   5.262   7.820 -0.9882  0.5841  0.1012
  116OSM   C15S12140   4.805   5.438   7.954  0.5840 -0.2413 -0.2044
  116OSM   H15S12141   4.728   5.390   8.018  0.6889 -1.5737 -1.0442
  116OSM   H15T12142   4.761   5.528   7.906  2.4062  0.5461 -0.4579
  116OSM   C16S12143   4.924   5.494   8.038 -0.3565  0.2098  0.1826
  116OSM   H16S12144   4.899   5.597   8.072 -5.0099 -0.1510 -1.4353
  116OSM   H16T12145   5.016   5.509   7.977  0.6074 -0.9832  1.2997
  116OSM   C17S12146   4.950   5.402   8.150  0.5477 -1.0475 -0.5343
  116OSM   H17S12147   5.056   5.410   8.184  0.7622 -2.6988 -0.7140
  116OSM   H17T12148   4.949   5.301   8.103 -1.1885 -0.6103 -1.5142
  116OSM   C18S12149   4.852   5.397   8.265  0.5432  0.2147 -0.6246
  116OSM   H18S12150   4.813   5.500   8.279 -0.9574 -0.2648 -1.0071
  116OSM   H18T12151   4.894   5.347   8.355  2.0108  0.7867 -0.9643
  116OSM   H18U12152   4.767   5.330   8.237  0.1550  0.5995 -0.3828
  116OSM    C1F12153   4.933   5.850   6.801  0.2007 -0.0592 -0.3722
  116OSM     OF12154   4.816   5.878   6.775 -0.8832  0.0828  0.1176
  116OSM    C2F12155   5.032   5.942   6.862 -0.0510  0.4357 -0.2168
  116OSM    H2F12156   5.094   5.993   6.785  0.3197 -0.8096 -0.7527
  116OSM    H2G12157   5.087   5.881   6.936  0.9600  1.6076  0.0420
  116OSM    C3F12158   4.970   6.050   6.949 -0.2333  0.2128 -0.8791
  116OSM    H3F12159   4.891   6.014   7.018  2.0920 -0.6105  1.5029
  116OSM    H3G12160   4.921   6.130   6.888 -0.0727  0.8198 -0.2196
  116OSM    C4F12161   5.066   6.136   7.045  0.1062 -0.5875  0.2998
  116OSM    H4F12162   5.077   6.228   6.983  2.0457  0.2148  1.7474
  116OSM    H4G12163   5.163   6.085   7.063  0.7168 -0.6836 -2.7025
  116OSM    C5F12164   4.996   6.173   7.178 -0.2327 -0.1243 -0.0654
  116OSM    H5F12165   4.990   6.076   7.232  0.9223 -0.2023 -0.0550
  116OSM    H5G12166   4.896   6.211   7.148 -0.4285 -1.3285 -0.9846
  116OSM    C6F12167   5.056   6.286   7.260  0.1406 -0.5026  0.3994
  116OSM    H6F12168   5.044   6.378   7.198 -2.6126 -2.7029 -2.6440
  116OSM    H6G12169   5.164   6.275   7.285 -0.1825  0.2806  2.3737
  116OSM    C7F12170   4.982   6.296   7.389 -0.9873  0.0738 -0.2104
  116OSM    H7F12171   4.975   6.189   7.420 -1.3319 -0.8525 -3.1235
  116OSM    H7G12172   4.879   6.327   7.362 -1.4043  0.0045  1.2377
  116OSM    C8F12173   5.059   6.388   7.497  0.1758 -0.2866  0.8456
  116OSM    H8F12174   5.167   6.360   7.494  0.1149 -0.5133  0.7110
  116OSM    H8G12175   5.013   6.349   7.590  0.1583  1.5168  1.6249
  116OSM    C9F12176   5.036   6.535   7.463  0.2856  0.2213  0.1922
  116OSM    H9F12177   5.035   6.561   7.356  0.9881 -0.4598  0.0033
  116OSM   C10F12178   5.032   6.637   7.552  0.9966  0.0263 -0.9278
  116OSM   H10F12179   5.017   6.742   7.522  0.3393 -0.6336 -3.1477
  116OSM   C11F12180   5.047   6.616   7.697  0.0769  1.0337  0.1408
  116OSM   H11F12181   5.075   6.712   7.745  1.0970  0.4060  0.8466
  116OSM   H11G12182   5.138   6.553   7.711  0.1129  1.2820  1.1434
  116OSM   C12F12183   4.927   6.564   7.759 -0.6456  0.1143  0.1931
  116OSM   H12F12184   4.920   6.459   7.725 -1.4752  0.4308 -0.6584
  116OSM   H12G12185   4.834   6.621   7.735 -0.1656 -0.3584 -3.3201
  116OSM   C13F12186   4.934   6.576   7.913 -0.2661 -0.4789  0.4569
  116OSM   H13F12187   4.916   6.683   7.937  0.6431 -0.9194  3.5848
  116OSM   H13G12188   5.032   6.533   7.941  0.7582  0.1706 -1.8877
  116OSM   C14F12189   4.819   6.504   7.984 -0.4999 -0.8133 -0.3362
  116OSM   H14F12190   4.818   6.395   7.962 -0.7378 -1.3367  2.0177
  116OSM   H14G12191   4.724   6.547   7.946 -0.3711  1.1113  1.3865
  116OSM   C15F12192   4.807   6.540   8.133  0.5803  0.3709 -0.5737
  116OSM   H15F12193   4.718   6.483   8.167  1.6974 -1.3616 -0.4234
  116OSM   H15G12194   4.777   6.646   8.148 -0.7051 -0.1666  0.8865
  116OSM   C16F12195   4.924   6.509   8.223  0.4448  0.5379  0.8227
  116OSM   H16F12196   5.019   6.556   8.189 -0.0781  1.4738  0.6204
  116OSM   H16G12197   4.937   6.399   8.216  2.2640  0.7107  0.8513
  116OSM   C17F12198   4.895   6.528   8.374 -0.2804 -0.7784 -0.1710
  116OSM   H17F12199   4.845   6.625   8.395  1.8472  0.2962  0.2187
  116OSM   H17G12200   4.993   6.544   8.423  0.3806 -0.1259 -1.6242
  116OSM   C18F12201   4.822   6.420   8.448 -1.5693 -0.0878  0.5048
  116OSM   H18F12202   4.882   6.326   8.446  1.3363  1.6775 -1.8414
  116OSM   H18G12203   4.722   6.407   8.401 -2.0824 -0.1288  1.5627
  116OSM   H18H12204   4.813   6.452   8.554  0.0178  2.1607  0.0102
  117OSM      N12205   4.465   1.220   6.289  1.1500 -0.7271 -0.1583
  117OSM    C1512206   4.591   1.276   6.236  0.2006 -0.0786 -0.3875
  117OSM   H15A12207   4.611   1.230   6.140 -1.4693 -0.6626 -0.4959
  117OSM   H15B12208   4.676   1.265   6.301 -0.5611  0.9717  0.8423
  117OSM   H15C12209   4.578   1.382   6.218  0.0292  0.2049  1.2635
  117OSM    C1412210   4.492   1.072   6.281 -0.2838 -1.2376 -0.2485
  117OSM   H14A12211   4.515   1.047   6.178 -0.3948 -0.5317 -0.4503
  117OSM   H14B12212   4.406   1.016   6.313 -0.4052 -2.2464 -2.1924
  117OSM   H14C12213   4.569   1.041   6.350 -1.9500 -0.9489  1.8357
  117OSM    C1312214   4.448   1.241   6.437  0.4883  0.2502  0.6503
  117OSM   H13A12215   4.353   1.198   6.468 -1.3742  1.1966 -3.1450
  117OSM   H13B12216   4.453   1.346   6.463  2.8802  0.4742 -0.5261
  117OSM   H13C12217   4.533   1.204   6.493  1.0673  1.2094  0.4204
  117OSM    C1212218   4.342   1.267   6.213  0.1307 -0.0546 -0.3261
  117OSM   H12A12219   4.355   1.247   6.108  0.8334 -2.5551  0.1602
  117OSM   H12B12220   4.332   1.373   6.227 -3.8345 -0.5439  2.4616
  117OSM    C1112221   4.202   1.210   6.259  0.2615  0.9854  0.2519
  117OSM   H11A12222   4.131   1.243   6.181  1.4205 -1.1857 -1.8595
  117OSM   H11B12223   4.169   1.257   6.354  1.1137 -0.4240  1.2957
  117OSM      P12224   4.078   0.992   6.330 -0.2076 -0.0559  0.2786
  117OSM    O1312225   3.950   1.037   6.272  0.3867  0.1982 -0.8940
  117OSM    O1412226   4.100   0.846   6.324  0.2146  0.1253 -0.2313
  117OSM    O1112227   4.083   1.038   6.480 -0.0307  0.3517 -0.2107
  117OSM    O1212228   4.202   1.065   6.269  0.2441  0.2030 -0.7645
  117OSM    C1S12229   4.162   0.978   6.585  0.0020 -0.1853  0.4108
  117OSM    H1S12230   4.266   1.018   6.585  0.0580 -0.2094 -1.9303
  117OSM    H1T12231   4.176   0.868   6.575  1.4584  0.0992 -1.1986
  117OSM     NF12232   4.189   0.951   6.823 -0.2678 -0.2045 -0.1459
  117OSM    HNF12233   4.178   0.854   6.842 -1.0291 -0.0362  0.3124
  117OSM    C2S12234   4.105   1.010   6.726  0.7166  0.0665  0.4113
  117OSM    H2S12235   4.100   1.120   6.739 -1.6617 -0.0827  1.4028
  117OSM    C3S12236   3.957   0.963   6.736 -0.6512  0.2478 -0.1563
  117OSM    H3S12237   3.953   0.854   6.711 -2.3725  0.1411  0.4166
  117OSM     O312238   3.881   1.039   6.643  0.3932 -0.4614 -0.1321
  117OSM    HO312239   3.934   1.047   6.564 -0.9110  1.0804 -0.8879
  117OSM    C4S12240   3.901   0.991   6.881 -0.8440  0.1585 -0.1900
  117OSM    H4S12241   3.916   1.099   6.897  1.0881  0.1280 -1.4671
  117OSM    C5S12242   3.844   0.906   6.969 -0.4262 -0.3325  0.3123
  117OSM    H5S12243   3.832   0.799   6.947  0.3512 -0.0063 -1.9120
  117OSM    C6S12244   3.801   0.949   7.110 -0.3680  0.1701 -0.1082
  117OSM    H6S12245   3.819   1.056   7.136 -0.8017  0.2356 -0.0669
  117OSM    H6T12246   3.846   0.896   7.196 -0.3761 -0.5911 -0.5686
  117OSM    C7S12247   3.642   0.944   7.122 -0.2976 -0.0567  0.0566
  117OSM    H7S12248   3.602   0.842   7.108  0.3283  0.0456 -3.0211
  117OSM    H7T12249   3.599   1.016   7.049 -0.4215  1.2561  1.3729
  117OSM    C8S12250   3.594   0.995   7.260 -0.4762 -0.2826 -0.6024
  117OSM    H8S12251   3.484   1.012   7.264 -0.3100  1.3155 -1.9601
  117OSM    H8T12252   3.645   1.087   7.294 -1.2329  0.2187 -0.7938
  117OSM    C9S12253   3.626   0.896   7.376  0.1823 -0.5033  0.1173
  117OSM    H9S12254   3.734   0.913   7.399  0.6163 -0.7776 -1.5884
  117OSM    H9T12255   3.612   0.792   7.340  1.4736 -0.1959 -1.3903
  117OSM   C10S12256   3.545   0.933   7.505 -0.0415 -0.3141 -0.2635
  117OSM   H10S12257   3.457   0.867   7.524 -0.0995 -0.5151 -1.2039
  117OSM   H10T12258   3.511   1.037   7.485 -0.1863 -0.4896 -0.9573
  117OSM   C11S12259   3.632   0.942   7.634  0.3510 -0.0256 -0.1521
  117OSM   H11S12260   3.719   1.006   7.608 -0.4548  2.2679  2.3965
  117OSM   H11T12261   3.665   0.840   7.665 -2.3918 -0.7483  0.6884
  117OSM   C12S12262   3.554   0.996   7.754 -0.5625  0.0185  0.0756
  117OSM   H12S12263   3.469   0.930   7.783  1.1544 -1.8110  1.1892
  117OSM   H12T12264   3.514   1.099   7.740  0.0656  0.2354 -0.1484
  117OSM   C13S12265   3.645   0.994   7.874  0.0330  0.3462  0.4621
  117OSM   H13S12266   3.746   1.035   7.848 -0.1690  0.5475 -0.0156
  117OSM   H13T12267   3.670   0.888   7.897 -0.0635  0.1180 -0.4590
  117OSM   C14S12268   3.578   1.058   7.996 -0.0744  0.1537 -0.1047
  117OSM   H14S12269   3.597   0.997   8.086  1.0787  2.8021  1.5845
  117OSM   H14T12270   3.468   1.046   7.986 -0.2279  1.4323 -0.1842
  117OSM   C15S12271   3.619   1.206   8.011 -0.3566  0.0934  0.4651
  117OSM   H15S12272   3.590   1.263   7.920  0.0770 -1.5410 -0.7582
  117OSM   H15T12273   3.730   1.207   8.018 -0.0826  0.9403 -2.4525
  117OSM   C16S12274   3.556   1.265   8.138 -0.5847 -0.7286 -0.3460
  117OSM   H16S12275   3.566   1.199   8.226  0.2229  0.4054  0.4449
  117OSM   H16T12276   3.445   1.268   8.132 -0.7441  1.9763  1.9852
  117OSM   C17S12277   3.597   1.405   8.202  0.1951  0.1294  0.2565
  117OSM   H17S12278   3.707   1.420   8.195  0.3080 -0.8812 -0.2500
  117OSM   H17T12279   3.570   1.399   8.310 -0.1542  1.3138  0.2449
  117OSM   C18S12280   3.513   1.507   8.125  0.6637  0.1848  0.2778
  117OSM   H18S12281   3.550   1.514   8.020  2.2590 -1.8850  0.6460
  117OSM   H18T12282   3.529   1.609   8.167 -1.6179  0.0811  1.5896
  117OSM   H18U12283   3.402   1.505   8.122  0.5327  2.7183  0.5953
  117OSM    C1F12284   4.297   1.019   6.862  1.1449  0.0504  0.2429
  117OSM     OF12285   4.329   1.122   6.805  0.3222  0.0400 -0.4629
  117OSM    C2F12286   4.361   0.969   6.986 -1.1577  0.2317 -0.4776
  117OSM    H2F12287   4.361   0.858   6.993 -2.9173  0.1165 -1.6339
  117OSM    H2G12288   4.302   1.020   7.066  0.1908 -1.0521  1.4395
  117OSM    C3F12289   4.511   1.011   6.993 -0.8497 -0.4815  0.0457
  117OSM    H3F12290   4.510   1.121   6.982 -1.2795 -0.0935  2.9850
  117OSM    H3G12291   4.583   0.967   6.921 -1.6721  0.0918 -1.1657
  117OSM    C4F12292   4.575   0.996   7.128 -0.3373  0.1780  0.1276
  117OSM    H4F12293   4.575   0.887   7.153 -0.8169  0.3366  0.8398
  117OSM    H4G12294   4.501   1.048   7.191 -1.4670 -0.7626 -0.3789
  117OSM    C5F12295   4.712   1.061   7.142 -0.1733  0.3815  0.0845
  117OSM    H5F12296   4.738   1.135   7.064  1.8520 -1.1980 -0.8395
  117OSM    H5G12297   4.791   0.986   7.121 -0.0983  0.2142  0.9068
  117OSM    C6F12298   4.730   1.112   7.286 -0.4295 -0.5491 -0.1470
  117OSM    H6F12299   4.664   1.201   7.300  0.4765  0.3001 -1.0252
  117OSM    H6G12300   4.828   1.164   7.277 -0.1119 -1.1548 -0.1798
  117OSM    C7F12301   4.718   0.996   7.387  0.1134 -0.1269  0.1564
  117OSM    H7F12302   4.779   0.910   7.351  0.9406  1.3820 -2.2400
  117OSM    H7G12303   4.611   0.970   7.394 -0.3637  0.7995 -2.6654
  117OSM    C8F12304   4.768   1.028   7.535  0.5445  0.0714 -0.5778
  117OSM    H8F12305   4.743   0.950   7.610 -0.4243  0.8039 -0.1241
  117OSM    H8G12306   4.698   1.107   7.570  0.7166  1.0156 -2.2302
  117OSM    C9F12307   4.918   1.056   7.549  0.3755  0.5031 -0.3095
  117OSM    H9F12308   4.979   1.021   7.465  1.3877 -0.5890  0.8332
  117OSM   C10F12309   4.973   1.116   7.655 -0.6040  0.3099 -0.1570
  117OSM   H10F12310   5.081   1.135   7.656 -0.1135 -2.1399  0.2293
  117OSM   C11F12311   4.893   1.176   7.773  0.1496 -0.1173 -0.4834
  117OSM   H11F12312   4.796   1.125   7.793  0.0538 -1.4981 -3.8562
  117OSM   H11G12313   4.872   1.284   7.760 -0.1669 -0.4559 -3.6010
  117OSM   C12F12314   4.969   1.153   7.904  0.2676  0.7520  0.2849
  117OSM   H12F12315   5.069   1.201   7.897  0.0084  1.4769  1.2447
  117OSM   H12G12316   4.990   1.045   7.918  0.1372  0.7318  0.3264
  117OSM   C13F12317   4.891   1.194   8.027  0.5991  0.0694 -0.4739
  117OSM   H13F12318   4.795   1.139   8.029  0.7515 -0.2252  2.2084
  117OSM   H13G12319   4.856   1.300   8.035 -0.9482 -0.4014 -0.7494
  117OSM   C14F12320   4.980   1.176   8.154  0.4570  0.3295  0.1724
  117OSM   H14F12321   5.066   1.245   8.147 -0.2258  1.2109  0.2493
  117OSM   H14G12322   5.027   1.075   8.147 -0.9343 -0.3859  0.6804
  117OSM   C15F12323   4.908   1.194   8.286 -0.0139 -0.1418 -0.7229
  117OSM   H15F12324   4.807   1.147   8.283 -0.9588  1.5393  1.8233
  117OSM   H15G12325   4.884   1.302   8.290  0.5479 -0.0644  0.9501
  117OSM   C16F12326   4.971   1.130   8.410  0.8819 -0.8354  0.7094
  117OSM   H16F12327   5.080   1.150   8.397  0.5266  0.3623 -0.6986
  117OSM   H16G12328   4.947   1.022   8.412 -1.9704 -0.3218 -0.8300
  117OSM   C17F12329   4.924   1.189   8.541 -0.3333 -0.2967  0.1241
  117OSM   H17F12330   4.990   1.148   8.621  1.2655 -2.0798 -1.9930
  117OSM   H17G12331   4.939   1.299   8.553 -0.1562 -0.4674  1.8332
  117OSM   C18F12332   4.783   1.146   8.583  0.0568 -0.0561  0.4991
  117OSM   H18F12333   4.790   1.124   8.692 -0.1609 -0.1327  0.4985
  117OSM   H18G12334   4.760   1.050   8.531 -1.2653  0.0727  0.8074
  117OSM   H18H12335   4.710   1.228   8.569 -0.6348 -0.9033 -1.2075
  118OSM      N12336   5.093   2.703   5.655  0.0088 -0.6146 -0.2062
  118OSM    C1512337   5.157   2.613   5.561 -0.8398 -0.1094  0.4202
  118OSM   H15A12338   5.203   2.533   5.617 -2.4116 -1.3634 -0.0044
  118OSM   H15B12339   5.236   2.662   5.506  0.7152 -0.6001  2.1348
  118OSM   H15C12340   5.088   2.579   5.485  0.0152 -0.6408 -0.1438
  118OSM    C1412341   5.053   2.824   5.582 -0.4178 -0.2360 -0.9067
  118OSM   H14A12342   4.970   2.794   5.519 -1.0997 -0.6423  0.1530
  118OSM   H14B12343   5.134   2.867   5.526  0.9088 -1.9503 -0.3980
  118OSM   H14C12344   5.016   2.889   5.661  0.1845 -1.4346  0.3928
  118OSM    C1312345   4.962   2.641   5.706 -0.5935  0.0116  0.3332
  118OSM   H13A12346   4.902   2.717   5.756 -1.0802 -1.7594  2.6244
  118OSM   H13B12347   4.978   2.559   5.774 -0.3343 -1.1202 -1.0582
  118OSM   H13C12348   4.899   2.601   5.628 -1.9436  1.3411  0.6818
  118OSM    C1212349   5.182   2.741   5.770 -0.1422  1.0491 -0.3985
  118OSM   H12A12350   5.119   2.802   5.834 -0.2054  0.6751 -0.0978
  118OSM   H12B12351   5.254   2.806   5.725 -0.6436 -0.0957 -3.0472
  118OSM    C1112352   5.256   2.625   5.852  0.0197  0.3479  0.3932
  118OSM   H11A12353   5.337   2.656   5.922  1.6274  2.2161 -2.1191
  118OSM   H11B12354   5.308   2.560   5.779  0.6666  1.6412 -0.3383
  118OSM      P12355   5.100   2.585   6.065 -0.1692 -0.4874  0.3253
  118OSM    O1312356   5.034   2.718   6.052 -0.0997 -0.0954 -0.4781
  118OSM    O1412357   5.017   2.472   6.117 -0.4572  0.2082 -0.3580
  118OSM    O1112358   5.221   2.606   6.165  0.3582  0.2159  0.1570
  118OSM    O1212359   5.164   2.542   5.925 -0.1623 -0.3689  0.5157
  118OSM    C1S12360   5.211   2.580   6.302  0.6293 -0.3791 -0.1159
  118OSM    H1S12361   5.109   2.557   6.339  0.4838 -0.0094 -0.2821
  118OSM    H1T12362   5.225   2.678   6.353  0.1631 -1.1251  1.5035
  118OSM     NF12363   5.304   2.463   6.501  0.2003  0.4634  0.4378
  118OSM    HNF12364   5.364   2.507   6.568  1.8288 -0.0899 -0.6087
  118OSM    C2S12365   5.321   2.482   6.358 -0.4669  0.4632 -0.8797
  118OSM    H2S12366   5.299   2.387   6.304  1.0429  0.2547 -1.1683
  118OSM    C3S12367   5.460   2.542   6.325 -0.6830  0.2223 -0.2800
  118OSM    H3S12368   5.474   2.636   6.383 -0.4515 -0.1689  0.2988
  118OSM     O312369   5.495   2.564   6.186 -0.4172 -0.7487  0.3803
  118OSM    HO312370   5.411   2.578   6.141 -0.5971 -1.1956  0.5739
  118OSM    C4S12371   5.559   2.446   6.387 -0.1069  0.5195  0.0879
  118OSM    H4S12372   5.554   2.342   6.349  2.3011  0.3455  0.0838
  118OSM    C5S12373   5.644   2.468   6.488 -0.3977 -0.4083 -0.3935
  118OSM    H5S12374   5.663   2.567   6.532  1.8141 -0.9896  0.0941
  118OSM    C6S12375   5.738   2.367   6.542  0.0161  0.5203  0.0063
  118OSM    H6S12376   5.840   2.412   6.546 -0.9586  2.7848  0.7932
  118OSM    H6T12377   5.742   2.278   6.476 -1.2651 -0.7345  1.5374
  118OSM    C7S12378   5.702   2.324   6.684  1.0162  0.1360 -0.5652
  118OSM    H7S12379   5.682   2.409   6.753 -0.1330  2.0489 -3.0965
  118OSM    H7T12380   5.788   2.269   6.728  1.6106  3.3637  2.8521
  118OSM    C8S12381   5.570   2.254   6.676 -0.5198 -0.1317  0.1317
  118OSM    H8S12382   5.573   2.161   6.615 -1.6075 -1.2448  1.6992
  118OSM    H8T12383   5.487   2.321   6.645 -0.9688 -0.4120  0.6991
  118OSM    C9S12384   5.542   2.197   6.812  0.5638  0.3448 -0.7192
  118OSM    H9S12385   5.445   2.143   6.804  1.0126 -1.0239  2.0206
  118OSM    H9T12386   5.526   2.272   6.892 -0.1598 -1.3742  0.8431
  118OSM   C10S12387   5.638   2.089   6.866  0.7453  0.5522 -0.4924
  118OSM   H10S12388   5.729   2.133   6.912  1.9947 -1.1386 -1.2300
  118OSM   H10T12389   5.663   2.021   6.782 -1.0567 -1.8476  0.8054
  118OSM   C11S12390   5.570   2.008   6.977  0.1742  0.2224  0.3914
  118OSM   H11S12391   5.501   1.945   6.918  1.2348 -0.6653  0.0637
  118OSM   H11T12392   5.506   2.074   7.039 -2.0805 -1.2606 -0.2610
  118OSM   C12S12393   5.657   1.922   7.075  0.2207  0.0272  0.0353
  118OSM   H12S12394   5.724   1.988   7.133  2.5639 -1.4213 -0.8593
  118OSM   H12T12395   5.733   1.862   7.020  0.1021 -0.7880  0.7541
  118OSM   C13S12396   5.580   1.839   7.182 -0.7662 -0.2627  0.5427
  118OSM   H13S12397   5.524   1.754   7.137 -0.7068 -1.6214  2.8615
  118OSM   H13T12398   5.511   1.911   7.232  0.9592 -0.1612  2.9616
  118OSM   C14S12399   5.675   1.784   7.288 -0.0901  0.0990  0.6189
  118OSM   H14S12400   5.731   1.865   7.341  3.0837 -0.3313 -1.7288
  118OSM   H14T12401   5.760   1.735   7.235  0.3997  1.5227  0.0392
  118OSM   C15S12402   5.626   1.671   7.385 -0.1069 -0.4407 -0.0590
  118OSM   H15S12403   5.610   1.577   7.327 -0.1348 -1.1129  1.0119
  118OSM   H15T12404   5.531   1.714   7.423 -0.3789 -0.6581 -0.4783
  118OSM   C16S12405   5.711   1.639   7.516 -0.0254  0.2103 -0.0058
  118OSM   H16S12406   5.644   1.599   7.596  0.5147 -2.1047 -0.6409
  118OSM   H16T12407   5.754   1.732   7.557  2.2119  0.0347 -1.7881
  118OSM   C17S12408   5.830   1.545   7.500 -1.0332 -0.3243  0.0686
  118OSM   H17S12409   5.912   1.609   7.462 -0.5676 -0.5174  0.7424
  118OSM   H17T12410   5.817   1.467   7.422  0.7753  1.0889 -1.7610
  118OSM   C18S12411   5.896   1.500   7.627 -0.2186 -0.0816 -0.0310
  118OSM   H18S12412   5.992   1.454   7.596 -1.1436 -1.0460 -1.6474
  118OSM   H18T12413   5.828   1.423   7.671 -2.8364  1.5460 -0.9617
  118OSM   H18U12414   5.913   1.590   7.689  0.7529  0.3962 -0.9572
  118OSM    C1F12415   5.200   2.401   6.551 -0.3474 -0.2812  0.7323
  118OSM     OF12416   5.116   2.330   6.489 -0.2410  0.1325 -0.0714
  118OSM    C2F12417   5.199   2.408   6.702  0.5317  0.4865  0.1981
  118OSM    H2F12418   5.184   2.508   6.748  0.9702  0.6435  0.0096
  118OSM    H2G12419   5.300   2.370   6.731  1.4124  1.0056 -1.9985
  118OSM    C3F12420   5.092   2.305   6.752 -0.1355 -0.1121 -0.2156
  118OSM    H3F12421   5.113   2.207   6.703  2.8446  0.1724  0.3013
  118OSM    H3G12422   4.991   2.336   6.717 -0.8840 -1.3268  0.7595
  118OSM    C4F12423   5.097   2.293   6.906 -0.0920 -0.2328  0.2287
  118OSM    H4F12424   5.004   2.239   6.934  0.9146 -0.8961  2.5142
  118OSM    H4G12425   5.106   2.396   6.947  0.8206 -1.0399  2.1916
  118OSM    C5F12426   5.212   2.210   6.971 -0.0982 -0.0234  0.0066
  118OSM    H5F12427   5.301   2.276   6.966 -0.0174 -0.1962 -0.9328
  118OSM    H5G12428   5.236   2.111   6.927  2.2491 -0.1309  1.3729
  118OSM    C6F12429   5.213   2.190   7.126  0.0821  0.5673 -0.0537
  118OSM    H6F12430   5.289   2.117   7.160  0.8392  2.0010  1.4306
  118OSM    H6G12431   5.115   2.138   7.131 -0.1313  0.8699 -0.9166
  118OSM    C7F12432   5.220   2.320   7.200  0.2989 -0.1943  0.5347
  118OSM    H7F12433   5.121   2.370   7.200  0.4137  0.1033 -1.7490
  118OSM    H7G12434   5.301   2.382   7.157  0.1816 -1.4314 -1.6332
  118OSM    C8F12435   5.276   2.312   7.341  0.0290  0.1239  0.1156
  118OSM    H8F12436   5.218   2.240   7.403  2.9348 -1.8026  0.8129
  118OSM    H8G12437   5.254   2.410   7.388 -1.4428 -0.6254  1.0766
  118OSM    C9F12438   5.423   2.273   7.353 -0.8012  0.0768  0.7591
  118OSM    H9F12439   5.472   2.281   7.255 -0.5826 -0.5568  0.8113
  118OSM   C10F12440   5.498   2.221   7.450  0.2044 -0.3338  0.7723
  118OSM   H10F12441   5.606   2.211   7.435  0.3513  1.8151  0.0741
  118OSM   C11F12442   5.450   2.193   7.584  0.1513  0.2890 -0.2514
  118OSM   H11F12443   5.341   2.177   7.589  0.0422  0.6089 -1.3868
  118OSM   H11G12444   5.476   2.288   7.637  0.8437 -0.4311  0.7567
  118OSM   C12F12445   5.512   2.074   7.659 -0.5415  0.1055  0.4144
  118OSM   H12F12446   5.620   2.095   7.677  0.4039 -3.0712 -0.7667
  118OSM   H12G12447   5.509   1.982   7.597 -1.6538 -0.7796  1.7343
  118OSM   C13F12448   5.454   2.054   7.801 -0.4401  0.2841 -0.1731
  118OSM   H13F12449   5.350   2.016   7.791  0.3259 -1.6928 -1.2539
  118OSM   H13G12450   5.458   2.153   7.851  1.0783  0.9417 -1.4945
  118OSM   C14F12451   5.540   1.951   7.883 -0.0513 -0.2677  0.8370
  118OSM   H14F12452   5.500   1.959   7.987 -2.8938  0.4103 -0.2288
  118OSM   H14G12453   5.643   1.991   7.873 -0.2936 -0.0974 -1.4266
  118OSM   C15F12454   5.533   1.799   7.845  0.3803  0.2373  0.1659
  118OSM   H15F12455   5.556   1.799   7.736 -1.6039  4.5652 -0.4666
  118OSM   H15G12456   5.426   1.771   7.855  0.0515  2.1327  3.7791
  118OSM   C16F12457   5.624   1.710   7.930  0.4307 -0.8874  1.1752
  118OSM   H16F12458   5.722   1.762   7.924  1.0878 -1.9819  1.9571
  118OSM   H16G12459   5.630   1.606   7.889  2.4685 -0.5809  0.5549
  118OSM   C17F12460   5.586   1.697   8.077  0.1497 -0.2762  0.0405
  118OSM   H17F12461   5.475   1.685   8.081 -0.1344  1.2420 -1.8769
  118OSM   H17G12462   5.593   1.796   8.126  1.8794 -1.5195  2.5364
  118OSM   C18F12463   5.658   1.593   8.160 -0.0828 -0.2217  0.3315
  118OSM   H18F12464   5.766   1.616   8.147 -0.3917  0.7956 -0.5827
  118OSM   H18G12465   5.639   1.490   8.124  0.1685 -0.1270 -0.0775
  118OSM   H18H12466   5.636   1.613   8.267  0.4114  0.7607  0.2573
  119OSM      N12467   6.163   1.805   6.124 -0.0582 -0.1094  0.3069
  119OSM    C1512468   6.310   1.825   6.105  0.1760 -0.3346 -0.3879
  119OSM   H15A12469   6.362   1.753   6.167 -0.8540  0.0674  0.9858
  119OSM   H15B12470   6.350   1.919   6.140 -1.8447  0.1944  0.6827
  119OSM   H15C12471   6.333   1.816   6.000 -1.6988  0.1612 -0.8803
  119OSM    C1412472   6.123   1.803   6.265 -0.1966 -0.0057 -0.6628
  119OSM   H14A12473   6.016   1.815   6.273 -0.2643 -1.8054  2.4879
  119OSM   H14B12474   6.179   1.880   6.315  1.8427 -2.0760  0.4140
  119OSM   H14C12475   6.151   1.713   6.316 -0.1727  1.2582  1.6721
  119OSM    C1312476   6.103   1.932   6.061  0.0526  0.3318 -0.4175
  119OSM   H13A12477   5.996   1.915   6.050 -0.0512 -0.4250  1.3641
  119OSM   H13B12478   6.138   1.941   5.960  0.4062 -0.7679 -0.4069
  119OSM   H13C12479   6.129   2.020   6.118 -2.1435  0.0005  1.2892
  119OSM    C1212480   6.105   1.685   6.058 -0.4511 -0.5671 -0.1114
  119OSM   H12A12481   6.118   1.704   5.952  1.2565 -2.9644 -0.4189
  119OSM   H12B12482   5.999   1.678   6.077 -0.8668 -3.2936 -2.6001
  119OSM    C1112483   6.157   1.544   6.087  0.1827  0.2043  0.0892
  119OSM   H11A12484   6.101   1.469   6.027 -0.3726  0.2315  0.5677
  119OSM   H11B12485   6.126   1.525   6.192 -2.4309  1.4909 -0.3565
  119OSM      P12486   6.375   1.477   5.960  0.0032  0.1237 -0.0030
  119OSM    O1312487   6.307   1.501   5.830  0.4730  0.1200 -0.1870
  119OSM    O1412488   6.517   1.521   5.965  0.4964  0.0018 -0.1589
  119OSM    O1112489   6.357   1.327   5.997  0.3610  0.4228 -0.1026
  119OSM    O1212490   6.302   1.545   6.081 -0.6953 -0.6604 -0.1157
  119OSM    C1S12491   6.419   1.261   6.106  0.1815  0.8593 -1.2184
  119OSM    H1S12492   6.526   1.290   6.103  0.4847  0.3471  1.7587
  119OSM    H1T12493   6.416   1.152   6.084 -1.1989  0.4229  0.8004
  119OSM     NF12494   6.451   1.246   6.355  0.0840 -0.0275 -0.2796
  119OSM    HNF12495   6.439   1.157   6.399  0.0170  0.9974  1.9135
  119OSM    C2S12496   6.353   1.276   6.250 -0.6183  0.0731  0.2396
  119OSM    H2S12497   6.323   1.381   6.271 -0.3641 -0.1905  2.1039
  119OSM    C3S12498   6.225   1.184   6.256 -0.5878 -0.1395 -0.2614
  119OSM    H3S12499   6.255   1.084   6.217  3.6510  0.3650  1.1451
  119OSM     O312500   6.123   1.218   6.163  0.5881 -0.1378  0.3523
  119OSM    HO312501   6.155   1.301   6.125  0.0457  0.5924  1.4333
  119OSM    C4S12502   6.175   1.177   6.390 -0.5935 -0.2557 -0.0570
  119OSM    H4S12503   6.205   1.090   6.449  0.3608  0.1239  0.0334
  119OSM    C5S12504   6.093   1.268   6.451 -0.5063  0.3355 -0.1007
  119OSM    H5S12505   6.067   1.363   6.401  1.4298  1.8240  1.5845
  119OSM    C6S12506   6.045   1.243   6.592 -0.3786 -0.5406 -0.2634
  119OSM    H6S12507   5.951   1.187   6.578 -0.6362 -0.4072  0.8220
  119OSM    H6T12508   6.015   1.340   6.637 -0.2626 -0.3322 -0.6339
  119OSM    C7S12509   6.135   1.155   6.685 -0.1602 -0.5339  0.1562
  119OSM    H7S12510   6.169   1.065   6.629 -1.2434 -0.5610 -0.4937
  119OSM    H7T12511   6.073   1.120   6.770  0.9746  0.7715  1.5725
  119OSM    C8S12512   6.249   1.230   6.745 -0.6153  0.7118  0.3244
  119OSM    H8S12513   6.214   1.303   6.821 -0.8637  0.8944  0.0367
  119OSM    H8T12514   6.303   1.280   6.662 -2.6833  2.8730  0.1649
  119OSM    C9S12515   6.345   1.126   6.814  0.3862 -0.6118  0.2850
  119OSM    H9S12516   6.407   1.060   6.750 -1.4511 -2.8959  0.6868
  119OSM    H9T12517   6.277   1.065   6.878 -1.0022  1.8467  1.2709
  119OSM   C10S12518   6.429   1.191   6.912  0.4203 -0.4893 -0.8832
  119OSM   H10S12519   6.367   1.249   6.983  0.5780 -0.9156 -0.3914
  119OSM   H10T12520   6.496   1.267   6.866  1.8036  0.4809  2.4521
  119OSM   C11S12521   6.519   1.099   6.998  0.3254 -0.5231  0.4962
  119OSM   H11S12522   6.586   1.047   6.926 -0.5865 -1.8523  0.5843
  119OSM   H11T12523   6.464   1.032   7.068 -0.7237 -0.3798 -0.1687
  119OSM   C12S12524   6.606   1.186   7.087 -0.5366  0.3166  0.3531
  119OSM   H12S12525   6.543   1.255   7.146 -1.2700 -0.9933  1.1618
  119OSM   H12T12526   6.680   1.242   7.025 -0.9107 -0.2441 -0.6172
  119OSM   C13S12527   6.707   1.097   7.167  0.2968 -0.0919 -0.3792
  119OSM   H13S12528   6.806   1.146   7.159 -0.4469  1.0971 -5.2409
  119OSM   H13T12529   6.722   0.999   7.118 -0.3657  0.2187 -1.2192
  119OSM   C14S12530   6.655   1.077   7.309 -0.3199  0.2086 -0.3844
  119OSM   H14S12531   6.566   1.012   7.314  0.6455 -1.0765  0.6364
  119OSM   H14T12532   6.631   1.179   7.346 -0.9632  0.2211 -0.8176
  119OSM   C15S12533   6.757   1.026   7.407 -0.4305 -0.4841  0.1590
  119OSM   H15S12534   6.846   1.088   7.384 -0.0105 -0.6388  1.3356
  119OSM   H15T12535   6.779   0.922   7.375 -1.0788 -0.5974  0.0622
  119OSM   C16S12536   6.714   1.031   7.553 -0.3564 -0.2289  0.1502
  119OSM   H16S12537   6.608   0.997   7.558 -1.0620  1.0732 -3.0552
  119OSM   H16T12538   6.725   1.136   7.588 -0.9661 -0.0213 -0.2512
  119OSM   C17S12539   6.799   0.945   7.644 -0.3578  0.1635  0.8984
  119OSM   H17S12540   6.817   0.841   7.611  0.4098  1.1015 -1.9345
  119OSM   H17T12541   6.761   0.940   7.748  0.7829 -2.1389  1.2579
  119OSM   C18S12542   6.947   0.989   7.659 -0.1362  0.0119  0.1365
  119OSM   H18S12543   6.982   0.943   7.754 -2.0085 -0.9867  0.3936
  119OSM   H18T12544   6.952   1.099   7.669 -0.3235 -0.1167  1.9000
  119OSM   H18U12545   7.003   0.947   7.572 -3.0576 -2.1091 -0.8854
  119OSM    C1F12546   6.543   1.332   6.396 -0.8526 -0.1519  0.2730
  119OSM     OF12547   6.587   1.427   6.333  0.3499  0.2815  0.4080
  119OSM    C2F12548   6.612   1.285   6.523 -0.4627  0.4053  0.3483
  119OSM    H2F12549   6.693   1.215   6.490 -0.7896  0.3857 -0.4401
  119OSM    H2G12550   6.541   1.222   6.580  1.0732 -0.3401  1.5138
  119OSM    C3F12551   6.686   1.385   6.619 -0.8677 -0.1820 -0.1058
  119OSM    H3F12552   6.612   1.449   6.671 -0.1131  1.0308 -0.4908
  119OSM    H3G12553   6.758   1.442   6.556 -1.9608 -0.3508 -1.5739
  119OSM    C4F12554   6.787   1.315   6.717 -0.5876  0.1174  0.6966
  119OSM    H4F12555   6.761   1.211   6.746 -0.0405 -0.7866 -1.7886
  119OSM    H4G12556   6.777   1.378   6.808  1.1583  1.7399 -0.1683
  119OSM    C5F12557   6.934   1.309   6.668 -0.0368  0.4297 -0.5492
  119OSM    H5F12558   6.955   1.399   6.606 -0.2312 -0.3407 -1.7529
  119OSM    H5G12559   6.943   1.220   6.602  0.3856  1.7855 -2.4167
  119OSM    C6F12560   7.039   1.298   6.777 -0.7768 -0.1639  0.5773
  119OSM    H6F12561   7.066   1.395   6.824  1.5184 -0.0004 -0.8906
  119OSM    H6G12562   7.141   1.271   6.744  0.7254  1.6682  3.3435
  119OSM    C7F12563   6.995   1.203   6.882 -0.0012  0.8222 -0.2727
  119OSM    H7F12564   6.940   1.115   6.842 -1.3424  1.7196 -0.5035
  119OSM    H7G12565   6.930   1.249   6.959  0.2502  1.1275 -0.2398
  119OSM    C8F12566   7.117   1.143   6.963  0.0080 -0.1785  0.2418
  119OSM    H8F12567   7.158   1.229   7.020 -0.9761  0.0313  0.6498
  119OSM    H8G12568   7.200   1.090   6.910  0.0708  0.8324 -0.7013
  119OSM    C9F12569   7.070   1.054   7.075  0.4665 -0.5363 -0.0645
  119OSM    H9F12570   6.999   0.979   7.038  1.1936 -1.0061 -0.5548
  119OSM   C10F12571   7.133   1.034   7.197 -0.2082  0.1017 -0.0038
  119OSM   H10F12572   7.083   0.974   7.274 -2.7275 -0.1149 -1.6583
  119OSM   C11F12573   7.260   1.107   7.227  0.2907  0.1552  0.0709
  119OSM   H11F12574   7.238   1.193   7.294 -1.7022  0.0193 -0.3504
  119OSM   H11G12575   7.310   1.150   7.137 -0.7196 -0.1512 -0.6508
  119OSM   C12F12576   7.358   1.020   7.299 -0.2894 -0.1074 -0.8536
  119OSM   H12F12577   7.456   1.072   7.309  0.4671 -1.8214  1.1841
  119OSM   H12G12578   7.370   0.923   7.247 -0.6294 -0.1638 -0.8272
  119OSM   C13F12579   7.302   0.993   7.440 -0.2116  0.1551  0.6185
  119OSM   H13F12580   7.201   0.947   7.438  1.1041 -2.9462  0.8088
  119OSM   H13G12581   7.299   1.088   7.498  1.1682 -0.9290  2.5753
  119OSM   C14F12582   7.397   0.902   7.524  0.2851 -0.5182 -0.3369
  119OSM   H14F12583   7.502   0.936   7.512  1.2823 -2.3482  2.1953
  119OSM   H14G12584   7.385   0.801   7.478 -2.5588 -0.1807 -0.5320
  119OSM   C15F12585   7.364   0.910   7.673  0.2318  0.1269  0.5608
  119OSM   H15F12586   7.423   0.831   7.725  0.6968 -0.9696 -1.5080
  119OSM   H15G12587   7.256   0.884   7.685  0.8629 -5.1788 -2.2320
  119OSM   C16F12588   7.412   1.037   7.744  0.5386  0.3367 -0.4827
  119OSM   H16F12589   7.352   1.129   7.722  0.6146  0.3614 -0.5870
  119OSM   H16G12590   7.515   1.054   7.708  0.3782 -0.8158 -1.5394
  119OSM   C17F12591   7.398   1.025   7.899  0.0891 -0.2688  0.0988
  119OSM   H17F12592   7.419   0.927   7.946  0.1262  0.0722  0.8132
  119OSM   H17G12593   7.291   1.046   7.922 -1.0518 -4.0317 -1.0542
  119OSM   C18F12594   7.474   1.137   7.979 -0.3437  0.3468  0.2961
  119OSM   H18F12595   7.422   1.233   7.956 -0.2944  0.5908  1.1687
  119OSM   H18G12596   7.576   1.153   7.938 -1.5101 -1.2725 -3.6942
  119OSM   H18H12597   7.470   1.118   8.088  2.4138 -0.0072  0.4164
  120OSM      N12598   4.150   6.703   6.392 -0.1723  0.1092  0.7585
  120OSM    C1512599   4.209   6.702   6.251  0.0923 -0.0579 -0.2667
  120OSM   H15A12600   4.270   6.786   6.221 -0.3332  0.1490 -0.5526
  120OSM   H15B12601   4.131   6.701   6.176  1.0027 -0.5049 -1.2371
  120OSM   H15C12602   4.272   6.616   6.235  3.1312  1.9267  0.2015
  120OSM    C1412603   4.031   6.615   6.383  0.2002  0.6368  0.4912
  120OSM   H14A12604   4.050   6.526   6.325  1.4276  0.0555  1.7353
  120OSM   H14B12605   3.946   6.668   6.341  0.6577  0.2071 -1.0297
  120OSM   H14C12606   4.000   6.578   6.480 -2.2108 -2.5534 -1.3133
  120OSM    C1312607   4.244   6.638   6.495 -0.6790 -0.2747  0.3469
  120OSM   H13A12608   4.346   6.670   6.480 -0.8264 -0.2672 -0.6876
  120OSM   H13B12609   4.245   6.531   6.484 -2.4174 -0.3274  0.3632
  120OSM   H13C12610   4.217   6.669   6.595  1.9879  1.6781  0.5469
  120OSM    C1212611   4.109   6.842   6.429 -0.4404  0.0693  0.0506
  120OSM   H12A12612   4.035   6.826   6.506  0.3647 -2.7979  0.3249
  120OSM   H12B12613   4.054   6.888   6.348  0.3009  0.5987 -0.1639
  120OSM    C1112614   4.215   6.929   6.492 -0.5733 -0.4269  0.0736
  120OSM   H11A12615   4.237   6.885   6.591  0.5135 -0.7078 -0.2836
  120OSM   H11B12616   4.175   7.031   6.508 -1.3853 -0.7366  0.0944
  120OSM      P12617   4.468   6.953   6.463 -0.4271 -0.3990 -0.0194
  120OSM    O1312618   4.539   6.824   6.462 -0.8033  0.2288 -0.0342
  120OSM    O1412619   4.529   7.069   6.391  0.7967 -0.3027  0.2231
  120OSM    O1112620   4.446   7.003   6.614 -0.4639 -0.0978 -0.2269
  120OSM    O1212621   4.323   6.932   6.414 -0.1486  0.4636  0.1901
  120OSM    C1S12622   4.514   7.111   6.666  0.0666 -0.7008  0.0548
  120OSM    H1S12623   4.463   7.204   6.634  2.5117  0.0839 -1.8381
  120OSM    H1T12624   4.617   7.117   6.626  0.2391 -0.4371  0.5235
  120OSM     NF12625   4.612   7.216   6.878  0.1273  0.3380 -0.1128
  120OSM    HNF12626   4.699   7.197   6.923 -0.2946  0.3648  0.7440
  120OSM    C2S12627   4.530   7.104   6.822  0.7056 -0.0969 -0.4320
  120OSM    H2S12628   4.430   7.106   6.871  0.3452 -1.4443 -1.0430
  120OSM    C3S12629   4.591   6.965   6.865 -0.5608  0.3227  0.0559
  120OSM    H3S12630   4.688   6.964   6.811 -0.6574  1.3378 -0.1454
  120OSM     O312631   4.522   6.847   6.819  0.1940 -0.4485  0.8080
  120OSM    HO312632   4.463   6.879   6.751 -0.5385  0.5062  1.8635
  120OSM    C4S12633   4.605   6.968   7.023 -0.5269  0.2679  0.8773
  120OSM    H4S12634   4.692   7.022   7.061  0.3321  2.4156 -3.4742
  120OSM    C5S12635   4.516   6.924   7.111 -0.0244 -0.1781 -0.2870
  120OSM    H5S12636   4.424   6.881   7.070 -0.3221  1.3662 -1.3328
  120OSM    C6S12637   4.525   6.931   7.262 -0.2684 -0.3376 -0.0042
  120OSM    H6S12638   4.505   6.826   7.292 -0.2727 -0.5327 -0.6878
  120OSM    H6T12639   4.440   6.988   7.306  2.5022  2.6042  1.9776
  120OSM    C7S12640   4.657   6.976   7.330 -0.4058 -0.3664  0.3763
  120OSM    H7S12641   4.651   7.087   7.334 -2.3201 -0.3456 -1.3747
  120OSM    H7T12642   4.748   6.942   7.277 -0.3832 -0.2478  0.3374
  120OSM    C8S12643   4.662   6.931   7.473  0.1767 -0.0018 -0.6471
  120OSM    H8S12644   4.645   6.821   7.470 -0.9510  0.1767 -1.0907
  120OSM    H8T12645   4.581   6.968   7.539  2.2479 -1.1982  2.8634
  120OSM    C9S12646   4.797   6.959   7.530  0.2540  0.3607  0.1438
  120OSM    H9S12647   4.810   7.069   7.519  1.6062 -0.0062 -3.0125
  120OSM    H9T12648   4.880   6.916   7.469  0.0142  1.8040 -1.2628
  120OSM   C10S12649   4.815   6.915   7.678  0.1610 -0.7883 -0.2578
  120OSM   H10S12650   4.919   6.882   7.700  0.7918 -0.3305 -2.3278
  120OSM   H10T12651   4.748   6.833   7.713  0.5760 -0.9948  0.0662
  120OSM   C11S12652   4.779   7.043   7.765 -0.5775  0.1836  0.3892
  120OSM   H11S12653   4.688   7.094   7.727 -1.6709 -0.0566  2.5367
  120OSM   H11T12654   4.865   7.111   7.749  0.0467 -1.0386 -1.8866
  120OSM   C12S12655   4.770   7.005   7.913 -0.0237 -0.0589 -0.6723
  120OSM   H12S12656   4.869   6.978   7.957  0.2241  2.0365  0.1376
  120OSM   H12T12657   4.703   6.919   7.935  0.4115 -0.7159 -1.8176
  120OSM   C13S12658   4.708   7.118   8.003 -0.5532  0.5278  0.5013
  120OSM   H13S12659   4.612   7.151   7.958  0.1955  0.9867 -0.8256
  120OSM   H13T12660   4.768   7.211   8.002 -1.0287  0.8384  0.6451
  120OSM   C14S12661   4.707   7.080   8.157 -0.4410 -0.4543  0.4325
  120OSM   H14S12662   4.813   7.064   8.188 -0.0868  0.7323 -0.1037
  120OSM   H14T12663   4.647   6.987   8.170  1.2533 -1.4709  1.4221
  120OSM   C15S12664   4.659   7.198   8.240 -0.5987  0.1081 -0.0993
  120OSM   H15S12665   4.566   7.239   8.194 -1.5222  1.9474  3.1199
  120OSM   H15T12666   4.745   7.265   8.222 -0.5001 -0.0792 -0.3327
  120OSM   C16S12667   4.638   7.166   8.389 -0.2346 -0.6753  0.3305
  120OSM   H16S12668   4.725   7.119   8.440  0.3519  1.1287  1.0711
  120OSM   H16T12669   4.546   7.104   8.392 -2.1306  2.0104  1.7160
  120OSM   C17S12670   4.608   7.293   8.458 -0.3028 -0.6197 -0.0759
  120OSM   H17S12671   4.533   7.349   8.397  1.2375 -1.4109 -2.8933
  120OSM   H17T12672   4.701   7.353   8.460 -0.8874  0.6790 -3.7636
  120OSM   C18S12673   4.561   7.291   8.602 -0.6053 -0.5296 -1.0009
  120OSM   H18S12674   4.475   7.223   8.617  0.2680 -1.2272  1.2478
  120OSM   H18T12675   4.527   7.394   8.627 -2.9130 -1.3382 -0.5349
  120OSM   H18U12676   4.636   7.252   8.674 -1.1570 -0.2457 -0.2608
  120OSM    C1F12677   4.555   7.335   6.888 -0.1803  0.3060 -0.1999
  120OSM     OF12678   4.453   7.370   6.831  0.1249 -0.2404 -0.0507
  120OSM    C2F12679   4.630   7.441   6.962  0.8211 -0.1264  0.0530
  120OSM    H2F12680   4.555   7.519   6.988 -0.1863 -0.5307 -1.4552
  120OSM    H2G12681   4.703   7.492   6.897 -0.7822  1.0766 -0.8934
  120OSM    C3F12682   4.694   7.385   7.098  0.1300  0.4580  0.7092
  120OSM    H3F12683   4.750   7.463   7.152 -1.0458  1.7821  0.0836
  120OSM    H3G12684   4.775   7.318   7.060 -0.1667  0.4945 -0.0063
  120OSM    C4F12685   4.593   7.330   7.200 -0.5910  0.8535 -0.2391
  120OSM    H4F12686   4.649   7.295   7.289  3.1244 -0.8479 -2.9958
  120OSM    H4G12687   4.560   7.228   7.171  2.7717 -0.5951  0.6526
  120OSM    C5F12688   4.487   7.427   7.248  0.0010  0.2325 -0.3709
  120OSM    H5F12689   4.440   7.484   7.165 -1.3978  1.2590  1.0511
  120OSM    H5G12690   4.549   7.493   7.311  0.8759 -1.4906  0.6548
  120OSM    C6F12691   4.380   7.355   7.336  0.2630  0.0480  0.1551
  120OSM    H6F12692   4.341   7.265   7.285 -0.4012 -0.5474  1.6475
  120OSM    H6G12693   4.295   7.425   7.355 -1.6158 -1.5938 -1.7671
  120OSM    C7F12694   4.427   7.322   7.483  0.1525 -0.4726 -0.0095
  120OSM    H7F12695   4.493   7.406   7.513  1.2279 -1.0447 -0.7109
  120OSM    H7G12696   4.497   7.237   7.468  0.6830 -0.2059  0.8554
  120OSM    C8F12697   4.308   7.294   7.578  0.0279  0.5536 -0.2042
  120OSM    H8F12698   4.225   7.241   7.527  0.0871  0.0708  0.1966
  120OSM    H8G12699   4.255   7.386   7.611 -1.0723  0.3312 -1.2759
  120OSM    C9F12700   4.362   7.222   7.700  0.4172 -0.8480  0.4060
  120OSM    H9F12701   4.365   7.113   7.685 -0.5188 -0.6396 -1.5134
  120OSM   C10F12702   4.390   7.277   7.824  0.3424 -0.5124  0.3103
  120OSM   H10F12703   4.430   7.208   7.900 -1.2369 -2.1765 -0.3000
  120OSM   C11F12704   4.370   7.422   7.865  0.0263  0.0975  0.0013
  120OSM   H11F12705   4.306   7.415   7.955 -0.3324  0.4629 -0.2223
  120OSM   H11G12706   4.328   7.485   7.784 -2.3148 -0.4511  0.7021
  120OSM   C12F12707   4.481   7.493   7.942  0.5302 -0.9706 -0.4251
  120OSM   H12F12708   4.519   7.429   8.025  1.7483 -0.5714 -0.6556
  120OSM   H12G12709   4.435   7.581   7.992  1.3683 -1.0498  0.5201
  120OSM   C13F12710   4.595   7.538   7.850  0.2996 -0.0503  0.2091
  120OSM   H13F12711   4.548   7.617   7.787  0.6181  0.8382  1.0621
  120OSM   H13G12712   4.621   7.444   7.797 -0.9672  0.5583 -1.5894
  120OSM   C14F12713   4.728   7.602   7.906 -0.3088  0.5165  0.1065
  120OSM   H14F12714   4.713   7.678   7.985 -1.5589  0.2608  0.1333
  120OSM   H14G12715   4.785   7.660   7.830  0.4461  1.3449  1.2732
  120OSM   C15F12716   4.828   7.495   7.952 -0.3916  0.8522  0.2190
  120OSM   H15F12717   4.811   7.400   7.898  1.1652  1.7406 -1.9670
  120OSM   H15G12718   4.796   7.455   8.050 -1.4882  1.8811  0.3110
  120OSM   C16F12719   4.970   7.550   7.950  0.5058  0.0133 -0.4524
  120OSM   H16F12720   4.984   7.636   8.019 -1.0894  1.6869 -2.0806
  120OSM   H16G12721   5.002   7.590   7.851  0.8095 -0.1625 -0.4257
  120OSM   C17F12722   5.080   7.450   7.975  0.1491  0.3544  0.0042
  120OSM   H17F12723   5.179   7.499   7.972  1.8288 -2.8143 -0.5395
  120OSM   H17G12724   5.080   7.375   7.893 -0.3246  0.3183  0.0340
  120OSM   C18F12725   5.077   7.377   8.115  0.4346 -0.4866 -0.1808
  120OSM   H18F12726   5.102   7.449   8.196 -0.8036 -0.7385  0.4491
  120OSM   H18G12727   5.149   7.292   8.124 -1.0321 -1.7156  0.3700
  120OSM   H18H12728   4.980   7.333   8.145  1.6256 -3.1712  0.0813
  121OSM      N12729   0.381   1.362   6.341  0.2679 -0.2201  0.6066
  121OSM    C1512730   0.526   1.326   6.325  0.0748  0.1907 -0.1772
  121OSM   H15A12731   0.564   1.261   6.402 -1.4490 -0.6481 -0.0929
  121OSM   H15B12732   0.584   1.415   6.343 -0.8089  1.0235 -1.3220
  121OSM   H15C12733   0.542   1.291   6.224 -1.2470  1.1680 -0.7499
  121OSM    C1412734   0.363   1.402   6.479 -0.1747  0.3686  0.2419
  121OSM   H14A12735   0.381   1.315   6.541 -0.6385 -1.3052 -1.8737
  121OSM   H14B12736   0.257   1.418   6.492  0.0662  1.2600  1.2429
  121OSM   H14C12737   0.413   1.492   6.511 -0.7713  0.8135 -0.0547
  121OSM    C1312738   0.353   1.480   6.248 -0.2523  0.4611 -0.1999
  121OSM   H13A12739   0.344   1.441   6.148  1.8968  0.1646 -0.3281
  121OSM   H13B12740   0.441   1.543   6.252  0.6315 -0.7666  0.6255
  121OSM   H13C12741   0.266   1.533   6.283 -1.1502  0.9522 -2.9853
  121OSM    C1212742   0.290   1.243   6.322 -0.2139  0.0899 -0.0891
  121OSM   H12A12743   0.190   1.282   6.325  0.0360  0.7882 -0.4982
  121OSM   H12B12744   0.306   1.175   6.404  0.2188  1.2148  0.7831
  121OSM    C1112745   0.292   1.170   6.190 -0.0516 -0.0242  0.0323
  121OSM   H11A12746   0.263   1.244   6.113 -0.1698 -2.7000 -2.7270
  121OSM   H11B12747   0.207   1.100   6.206 -0.2492  0.3263  0.5118
  121OSM      P12748   0.456   0.980   6.225  0.1288  0.3046 -0.3462
  121OSM    O1312749   0.416   0.868   6.141 -0.0918  0.0753 -0.0310
  121OSM    O1412750   0.604   0.991   6.256 -0.2999 -0.3145 -0.3843
  121OSM    O1112751   0.365   0.986   6.356  0.0909  0.9532 -0.6177
  121OSM    O1212752   0.424   1.110   6.152 -0.1057 -0.3512  0.4039
  121OSM    C1S12753   0.357   0.864   6.436 -0.2099  0.1197 -0.3599
  121OSM    H1S12754   0.454   0.854   6.490 -1.2661 -1.5685  1.3376
  121OSM    H1T12755   0.342   0.765   6.388  1.7172 -0.0581 -0.7020
  121OSM     NF12756   0.261   0.792   6.665 -0.9138 -0.2466  0.8889
  121OSM    HNF12757   0.200   0.713   6.672  0.8316 -1.7801 -0.3176
  121OSM    C2S12758   0.243   0.884   6.546 -0.7098 -0.2027 -0.0955
  121OSM    H2S12759   0.246   0.990   6.579 -1.2115 -0.0338 -0.5667
  121OSM    C3S12760   0.098   0.872   6.479 -0.1119  0.5602  0.0571
  121OSM    H3S12761   0.091   0.767   6.443 -0.7943  0.9771 -1.0802
  121OSM     O312762   0.092   0.953   6.364 -0.1927 -0.1308  0.6745
  121OSM    HO312763   0.184   0.978   6.350 -0.3359  0.7499  1.2205
  121OSM    C4S12764  -0.008   0.904   6.572  0.2724 -0.3584 -0.8631
  121OSM    H4S12765  -0.017   1.006   6.612  0.7061 -1.1846  1.5161
  121OSM    C5S12766  -0.103   0.819   6.613  0.4100 -0.1514  0.3977
  121OSM    H5S12767  -0.100   0.714   6.578  0.4995 -0.2960  0.8388
  121OSM    C6S12768  -0.209   0.853   6.714  0.6858 -0.6194 -0.3899
  121OSM    H6S12769  -0.307   0.836   6.666  0.1051 -2.0405  1.1830
  121OSM    H6T12770  -0.195   0.956   6.753  2.5447 -0.5916 -1.0185
  121OSM    C7S12771  -0.205   0.744   6.824 -0.8704 -0.0684  0.5914
  121OSM    H7S12772  -0.214   0.640   6.785  1.3940 -1.0294  2.4275
  121OSM    H7T12773  -0.283   0.770   6.899 -1.7046 -1.9578  0.4428
  121OSM    C8S12774  -0.079   0.747   6.913 -0.5465 -0.2224 -0.1301
  121OSM    H8S12775  -0.045   0.853   6.917 -0.5058 -0.1869 -1.1400
  121OSM    H8T12776   0.005   0.690   6.866 -1.2851 -0.3529 -1.3341
  121OSM    C9S12777  -0.109   0.702   7.060 -0.2044  0.8716  0.4434
  121OSM    H9S12778  -0.145   0.597   7.058  0.7469  0.5287 -2.3777
  121OSM    H9T12779  -0.182   0.772   7.106 -0.9139  0.5673 -0.2099
  121OSM   C10S12780   0.029   0.701   7.133  0.0035 -0.4564 -0.6161
  121OSM   H10S12781   0.060   0.806   7.152 -0.5676 -0.1474 -1.3872
  121OSM   H10T12782   0.106   0.646   7.076  0.1557 -1.0938  0.1746
  121OSM   C11S12783   0.011   0.650   7.280 -0.3719 -0.0111  0.4507
  121OSM   H11S12784  -0.005   0.540   7.268  0.6153  0.0175 -1.6923
  121OSM   H11T12785  -0.077   0.696   7.329 -1.0336  0.1951 -0.8856
  121OSM   C12S12786   0.135   0.662   7.368 -0.2053  0.7617  0.5273
  121OSM   H12S12787   0.161   0.768   7.390  2.4835  0.7409 -1.8826
  121OSM   H12T12788   0.225   0.611   7.326  0.5417  1.6422  1.0137
  121OSM   C13S12789   0.116   0.574   7.500 -0.2909  0.8734 -0.0329
  121OSM   H13S12790   0.109   0.467   7.470 -1.3296  1.2453 -1.2280
  121OSM   H13T12791   0.024   0.580   7.561  1.0664 -1.5854  2.4527
  121OSM   C14S12792   0.238   0.590   7.585 -0.3946 -0.8192  0.1493
  121OSM   H14S12793   0.237   0.691   7.631 -2.4595 -0.9403  0.4815
  121OSM   H14T12794   0.328   0.565   7.525  0.2071  0.8206  0.3114
  121OSM   C15S12795   0.222   0.491   7.707  0.4102 -0.4130 -0.0650
  121OSM   H15S12796   0.218   0.394   7.652 -3.7022  0.9277 -2.6178
  121OSM   H15T12797   0.124   0.514   7.754  0.6088 -1.9522  1.1746
  121OSM   C16S12798   0.340   0.489   7.805  0.5721 -0.2298  0.6890
  121OSM   H16S12799   0.438   0.471   7.755  0.4094 -2.6171  1.1104
  121OSM   H16T12800   0.326   0.405   7.876  1.1203 -0.2598  0.7696
  121OSM   C17S12801   0.368   0.626   7.869  0.2515  0.3375  0.2877
  121OSM   H17S12802   0.267   0.655   7.905 -0.0415 -1.0994  0.7042
  121OSM   H17T12803   0.396   0.702   7.792  1.4794 -0.7623 -0.4057
  121OSM   C18S12804   0.471   0.622   7.983 -0.1270 -0.1885  0.5243
  121OSM   H18S12805   0.422   0.547   8.049  0.7458 -0.4736  0.8562
  121OSM   H18T12806   0.479   0.719   8.037  0.3542  0.1957 -0.2165
  121OSM   H18U12807   0.571   0.593   7.945 -0.0608 -1.5829  1.6664
  121OSM    C1F12808   0.367   0.794   6.746  0.2068  0.1153 -0.4338
  121OSM     OF12809   0.447   0.885   6.746 -0.0313  0.0538  0.0625
  121OSM    C2F12810   0.382   0.669   6.835 -0.5529  0.3353 -0.1072
  121OSM    H2F12811   0.433   0.587   6.780 -1.9390 -0.1192 -0.7630
  121OSM    H2G12812   0.283   0.625   6.862 -0.4054 -0.2340 -0.4734
  121OSM    C3F12813   0.463   0.694   6.963 -0.4936  0.2935  0.3087
  121OSM    H3F12814   0.424   0.783   7.017 -0.7944  1.7425 -2.1816
  121OSM    H3G12815   0.569   0.727   6.952  0.2130 -1.7557  0.5696
  121OSM    C4F12816   0.473   0.570   7.053 -0.0427  0.5164 -0.3422
  121OSM    H4F12817   0.521   0.488   6.995 -0.6692 -0.0473 -0.0756
  121OSM    H4G12818   0.375   0.528   7.084 -0.4792  2.3455  0.9195
  121OSM    C5F12819   0.559   0.600   7.181  0.2130  0.3098  0.0113
  121OSM    H5F12820   0.507   0.683   7.232 -0.9533 -1.4456  1.8140
  121OSM    H5G12821   0.663   0.625   7.149  1.1199 -0.7567  1.9636
  121OSM    C6F12822   0.562   0.499   7.299  0.4340  0.5740 -0.3621
  121OSM    H6F12823   0.458   0.463   7.313  0.7526 -0.0014  0.6639
  121OSM    H6G12824   0.592   0.547   7.395 -1.8013  1.7149 -0.1636
  121OSM    C7F12825   0.654   0.377   7.266 -0.2532  0.2187 -0.4074
  121OSM    H7F12826   0.749   0.414   7.220  0.8351 -1.5727  0.2850
  121OSM    H7G12827   0.602   0.316   7.189 -1.8089  0.7066  0.2183
  121OSM    C8F12828   0.683   0.295   7.394 -0.1537  0.0318  0.4684
  121OSM    H8F12829   0.715   0.194   7.361  0.2420 -0.0555  1.1063
  121OSM    H8G12830   0.586   0.280   7.447  0.1062 -0.1491  0.8972
  121OSM    C9F12831   0.784   0.372   7.482 -0.4078  0.7726  0.1283
  121OSM    H9F12832   0.878   0.403   7.434  1.0936 -2.6210  0.6137
  121OSM   C10F12833   0.787   0.369   7.613 -0.2373  0.6853  0.3018
  121OSM   H10F12834   0.866   0.432   7.657 -1.8830  1.6510  2.0294
  121OSM   C11F12835   0.695   0.304   7.711  0.1464  0.3751  0.3034
  121OSM   H11F12836   0.613   0.255   7.656  1.6281  0.1297 -1.8433
  121OSM   H11G12837   0.650   0.383   7.775 -1.9979  1.4626 -2.3391
  121OSM   C12F12838   0.750   0.192   7.795 -0.3986 -0.3141 -0.2908
  121OSM   H12F12839   0.812   0.131   7.725  1.4588  1.2902 -0.1441
  121OSM   H12G12840   0.674   0.131   7.848  1.2135 -0.0047  2.5596
  121OSM   C13F12841   0.848   0.240   7.899  0.3020 -0.2878  0.0504
  121OSM   H13F12842   0.789   0.279   7.983 -0.4049 -0.4198 -0.3763
  121OSM   H13G12843   0.922   0.317   7.867  1.3555 -1.1879  0.2298
  121OSM   C14F12844   0.929   0.123   7.953 -0.1978  0.4403 -0.0963
  121OSM   H14F12845   1.008   0.078   7.891 -0.0381  0.4772  0.0798
  121OSM   H14G12846   0.862   0.038   7.981  0.1595  0.0481 -0.4215
  121OSM   C15F12847   0.999   0.158   8.088 -0.1336 -0.6498 -0.3812
  121OSM   H15F12848   0.917   0.191   8.156  0.8415  1.8795 -0.3231
  121OSM   H15G12849   1.067   0.245   8.077  0.5089 -1.1734 -0.6464
  121OSM   C16F12850   1.082   0.040   8.147 -0.1173 -0.4391 -0.8064
  121OSM   H16F12851   1.159   0.007   8.074 -0.6337  2.1251 -2.6274
  121OSM   H16G12852   1.017  -0.048   8.166 -0.1301 -0.1191  0.8368
  121OSM   C17F12853   1.142   0.086   8.283  0.5581  0.4018 -0.2203
  121OSM   H17F12854   1.056   0.124   8.342 -1.8482 -1.6194 -2.2177
  121OSM   H17G12855   1.221   0.159   8.256  2.3423 -2.0160 -1.9734
  121OSM   C18F12856   1.201  -0.041   8.355 -0.0754 -0.4816 -0.0809
  121OSM   H18F12857   1.298  -0.075   8.313 -0.2550  0.3732 -1.2268
  121OSM   H18G12858   1.127  -0.124   8.358  0.7905 -1.2750 -0.1024
  121OSM   H18H12859   1.221   0.001   8.455 -0.1298  3.2688 -1.4731
  122OSM      N12860   4.286   3.706   6.022  1.0270 -0.2847  0.1935
  122OSM    C1512861   4.152   3.720   5.957 -0.3791  0.8503  0.3309
  122OSM   H15A12862   4.124   3.824   5.956  0.7341  1.2072  1.8758
  122OSM   H15B12863   4.077   3.660   6.007 -0.1470  0.4798  0.2414
  122OSM   H15C12864   4.158   3.680   5.857 -1.6864 -0.1094  0.6008
  122OSM    C1412865   4.313   3.561   6.022  0.2250 -0.3354 -0.2359
  122OSM   H14A12866   4.307   3.518   5.923 -0.6142  1.8845 -1.2222
  122OSM   H14B12867   4.234   3.509   6.073 -0.3272  0.4925 -0.2239
  122OSM   H14C12868   4.414   3.551   6.059  0.6870  0.1725 -1.3145
  122OSM    C1312869   4.378   3.790   5.941  0.2431  0.1179 -0.5704
  122OSM   H13A12870   4.368   3.896   5.958  3.0658  0.5679 -1.2614
  122OSM   H13B12871   4.353   3.777   5.836  1.1711  0.4407 -0.8398
  122OSM   H13C12872   4.482   3.764   5.955 -0.1943 -1.5696 -0.2566
  122OSM    C1212873   4.273   3.748   6.167  0.5884 -0.8216 -0.1987
  122OSM   H12A12874   4.372   3.746   6.211  0.5213  1.2199  0.1533
  122OSM   H12B12875   4.205   3.678   6.215 -1.3556  0.2053 -1.3228
  122OSM    C1112876   4.222   3.896   6.188 -1.1665 -0.0542  0.6597
  122OSM   H11A12877   4.206   3.888   6.298  4.0629 -0.5195  1.6172
  122OSM   H11B12878   4.131   3.914   6.126  1.1631  2.2680 -2.4172
  122OSM      P12879   4.277   4.153   6.163  0.0618  0.2125  0.3849
  122OSM    O1312880   4.354   4.222   6.059  0.1115  0.2825 -0.3342
  122OSM    O1412881   4.133   4.163   6.143 -0.1984 -0.1291  0.1793
  122OSM    O1112882   4.310   4.202   6.307  0.0935 -0.0889  0.0357
  122OSM    O1212883   4.322   4.000   6.160 -0.1511  0.3179 -0.0242
  122OSM    C1S12884   4.424   4.152   6.372 -0.9353  0.1454 -1.0411
  122OSM    H1S12885   4.515   4.193   6.323 -2.3894  0.8316 -3.3084
  122OSM    H1T12886   4.429   4.042   6.362 -1.8505  0.1650 -1.8270
  122OSM     NF12887   4.567   4.148   6.588  0.4614 -0.5030  0.1496
  122OSM    HNF12888   4.580   4.057   6.626  1.5519 -0.8401 -0.9597
  122OSM    C2S12889   4.434   4.172   6.529  0.0536 -0.2571  0.3513
  122OSM    H2S12890   4.420   4.281   6.546  0.5551 -0.2128  0.4926
  122OSM    C3S12891   4.316   4.093   6.603  0.0758 -0.3001 -0.0727
  122OSM    H3S12892   4.321   3.985   6.581  0.4696 -0.5612  1.2057
  122OSM     O312893   4.184   4.118   6.561  0.0368 -0.7119 -0.2910
  122OSM    HO312894   4.198   4.159   6.475  0.2138 -1.4155 -0.6024
  122OSM    C4S12895   4.319   4.111   6.754 -0.1723 -0.2466  0.0622
  122OSM    H4S12896   4.354   4.021   6.807  0.9036  1.4406  2.4166
  122OSM    C5S12897   4.261   4.214   6.824 -0.5636 -0.1617  0.7463
  122OSM    H5S12898   4.198   4.279   6.763  1.1298  1.4646  0.6323
  122OSM    C6S12899   4.256   4.230   6.974 -0.4638 -0.2887 -0.0429
  122OSM    H6S12900   4.267   4.338   6.997  1.0589 -0.2044 -1.0278
  122OSM    H6T12901   4.330   4.168   7.029 -1.5531 -0.5233  1.2152
  122OSM    C7S12902   4.118   4.187   7.032 -0.8234 -0.3877  0.1509
  122OSM    H7S12903   4.077   4.090   6.995 -0.1732 -2.6706  4.6176
  122OSM    H7T12904   4.049   4.271   7.011  2.2800  1.9907 -1.2822
  122OSM    C8S12905   4.114   4.155   7.191 -0.5237 -0.0948  0.3658
  122OSM    H8S12906   4.100   4.248   7.249  1.8350 -0.6482  1.9388
  122OSM    H8T12907   4.217   4.123   7.217  0.3928  1.2551 -1.3327
  122OSM    C9S12908   4.001   4.060   7.228 -0.3546 -0.0734 -0.8812
  122OSM    H9S12909   3.985   3.972   7.162  1.1815 -0.4921 -0.7362
  122OSM    H9T12910   3.906   4.117   7.221 -0.6937 -0.6985 -1.4764
  122OSM   C10S12911   4.016   4.011   7.376 -0.1777 -0.5638 -0.5787
  122OSM   H10S12912   4.110   3.952   7.380 -1.1277 -2.2031 -1.4969
  122OSM   H10T12913   3.929   3.946   7.397 -0.3905 -0.8951 -2.3366
  122OSM   C11S12914   4.033   4.123   7.475  0.6604 -0.1129  0.2969
  122OSM   H11S12915   3.995   4.214   7.425  0.2681 -1.0319 -1.1311
  122OSM   H11T12916   4.142   4.133   7.494  0.7487 -0.9371  0.2394
  122OSM   C12S12917   3.942   4.093   7.600  0.2679 -0.8632  0.3847
  122OSM   H12S12918   3.981   4.003   7.652 -0.4521 -2.0866 -1.1205
  122OSM   H12T12919   3.836   4.077   7.570  0.8135  0.1671 -2.3304
  122OSM   C13S12920   3.947   4.217   7.692  0.4788  0.8424  0.4244
  122OSM   H13S12921   3.911   4.296   7.623 -0.6204 -0.3979 -0.4784
  122OSM   H13T12922   4.050   4.224   7.733 -0.7692  0.0938  4.0741
  122OSM   C14S12923   3.843   4.217   7.811 -1.0021  0.0974  0.3235
  122OSM   H14S12924   3.740   4.206   7.771 -0.1105 -1.7669 -1.7293
  122OSM   H14T12925   3.857   4.320   7.850  0.5665 -0.0626  0.2359
  122OSM   C15S12926   3.881   4.114   7.923 -0.7645 -0.1539  0.6142
  122OSM   H15S12927   3.980   4.132   7.969 -0.1877  3.2364 -1.5467
  122OSM   H15T12928   3.883   4.014   7.874  2.9751  0.7205 -1.3777
  122OSM   C16S12929   3.788   4.123   8.047 -0.2984  0.0747  0.0898
  122OSM   H16S12930   3.683   4.111   8.015 -0.5325  1.2631  0.3642
  122OSM   H16T12931   3.797   4.230   8.076 -0.8374  0.6081 -1.5926
  122OSM   C17S12932   3.829   4.036   8.169  0.6069  0.2460  0.3652
  122OSM   H17S12933   3.930   4.072   8.200  1.5642 -1.2958 -0.8247
  122OSM   H17T12934   3.832   3.930   8.136 -3.6732 -0.3640  1.3397
  122OSM   C18S12935   3.731   4.064   8.284  0.8813 -0.2716 -0.2808
  122OSM   H18S12936   3.635   4.011   8.268  1.3284 -0.9380 -0.8231
  122OSM   H18T12937   3.701   4.170   8.296 -0.6985 -0.9456  2.6155
  122OSM   H18U12938   3.780   4.036   8.380  0.0827 -0.6497  0.0289
  122OSM    C1F12939   4.683   4.206   6.534  0.5887 -0.0796  0.3008
  122OSM     OF12940   4.672   4.296   6.446  0.3192  0.1153 -0.2028
  122OSM    C2F12941   4.818   4.163   6.592  0.5819  0.3324  0.2007
  122OSM    H2F12942   4.858   4.088   6.520 -0.4058  0.6136 -0.6699
  122OSM    H2G12943   4.806   4.118   6.693  0.3080  1.5194  0.7047
  122OSM    C3F12944   4.922   4.280   6.591  0.2261  0.2432 -0.1440
  122OSM    H3F12945   4.887   4.354   6.666  0.7325 -1.7204  2.1427
  122OSM    H3G12946   4.933   4.333   6.494  0.9514 -0.0501 -0.2345
  122OSM    C4F12947   5.056   4.231   6.641  0.9923 -0.0722 -0.3479
  122OSM    H4F12948   5.120   4.322   6.633 -1.5341  1.9636  0.8605
  122OSM    H4G12949   5.087   4.145   6.578  2.8594 -0.0081  0.4236
  122OSM    C5F12950   5.053   4.188   6.793  0.3367  0.3608 -0.3674
  122OSM    H5F12951   4.982   4.102   6.804 -0.0967  0.5503 -1.5272
  122OSM    H5G12952   5.001   4.268   6.850 -0.3090  0.2152 -0.7373
  122OSM    C6F12953   5.192   4.146   6.848 -0.5407  0.4964  0.2593
  122OSM    H6F12954   5.271   4.214   6.809  0.0851 -0.4114 -0.0829
  122OSM    H6G12955   5.208   4.038   6.830  0.0227  0.3816  1.3192
  122OSM    C7F12956   5.190   4.160   7.001  0.6740  0.3642 -0.4411
  122OSM    H7F12957   5.127   4.077   7.039 -0.7663  1.4003 -0.4855
  122OSM    H7G12958   5.140   4.253   7.037 -0.3619 -0.8902  1.5481
  122OSM    C8F12959   5.333   4.130   7.066  0.0263 -0.0630 -0.4387
  122OSM    H8F12960   5.318   4.158   7.172  1.6433  1.2401 -0.5212
  122OSM    H8G12961   5.404   4.203   7.022  0.5752 -0.3067  0.0240
  122OSM    C9F12962   5.368   3.986   7.047  0.0019  0.2705 -0.8102
  122OSM    H9F12963   5.351   3.948   6.946  0.4672 -0.6020 -0.5695
  122OSM   C10F12964   5.445   3.926   7.138  0.4506 -0.2892  0.4481
  122OSM   H10F12965   5.476   3.822   7.121 -0.3649 -0.3000 -1.1637
  122OSM   C11F12966   5.495   3.982   7.266 -0.1689 -0.8265  0.4954
  122OSM   H11F12967   5.491   4.093   7.271 -0.9228 -0.7725 -0.9226
  122OSM   H11G12968   5.596   3.938   7.276 -1.0221 -3.0628 -0.0803
  122OSM   C12F12969   5.404   3.939   7.378  0.1183  0.7661  0.0124
  122OSM   H12F12970   5.365   3.837   7.356  0.5471  0.8594 -1.2551
  122OSM   H12G12971   5.314   4.004   7.376 -0.5802 -0.1684  0.2532
  122OSM   C13F12972   5.476   3.962   7.513  0.1240  0.2241  0.6326
  122OSM   H13F12973   5.552   4.043   7.511 -0.1046  0.5157  2.4010
  122OSM   H13G12974   5.526   3.865   7.534 -1.3470 -0.4488  1.1325
  122OSM   C14F12975   5.379   3.988   7.630 -0.5183 -0.2420  0.2411
  122OSM   H14F12976   5.303   3.907   7.629  1.0222 -1.7400 -1.1301
  122OSM   H14G12977   5.323   4.083   7.619  0.1325  0.1120 -0.0758
  122OSM   C15F12978   5.453   3.988   7.766  0.4452 -0.8407  0.9318
  122OSM   H15F12979   5.391   4.049   7.835  2.5345  2.7364 -0.0596
  122OSM   H15G12980   5.547   4.047   7.755 -1.1101  1.6563  0.2372
  122OSM   C16F12981   5.491   3.849   7.816  0.0026  0.1625  0.3893
  122OSM   H16F12982   5.527   3.790   7.729 -3.5555 -2.1254  0.2595
  122OSM   H16G12983   5.403   3.800   7.863 -0.0757  0.4754  0.5695
  122OSM   C17F12984   5.601   3.857   7.926 -0.6382  0.5849 -0.3704
  122OSM   H17F12985   5.559   3.914   8.011 -0.1166 -1.1086  1.0762
  122OSM   H17G12986   5.694   3.904   7.888  0.6188 -0.4401  1.3520
  122OSM   C18F12987   5.641   3.714   7.975 -0.0462  0.4559 -0.0818
  122OSM   H18F12988   5.562   3.669   8.039 -0.2476 -1.0376 -1.3100
  122OSM   H18G12989   5.733   3.726   8.036  1.1497 -0.9312 -1.5086
  122OSM   H18H12990   5.658   3.650   7.886 -1.4983  2.5885 -2.0327
  123OSM      N12991   3.310   5.950   6.237 -0.3815 -0.2661  0.3906
  123OSM    C1512992   3.271   5.942   6.093  0.4148 -0.3584  0.1628
  123OSM   H15A12993   3.183   5.998   6.066 -0.4798  0.0008  3.4317
  123OSM   H15B12994   3.246   5.843   6.058 -2.9680  0.8776 -1.3887
  123OSM   H15C12995   3.356   5.979   6.037  0.4805 -0.3009  0.3015
  123OSM    C1412996   3.404   5.834   6.260  0.6784  0.0826 -0.3011
  123OSM   H14A12997   3.353   5.741   6.241 -1.7387  0.4666  3.2411
  123OSM   H14B12998   3.434   5.820   6.363 -0.4839 -0.5047 -0.0224
  123OSM   H14C12999   3.489   5.844   6.195 -0.1531  3.0538 -1.1249
  123OSM    C1313000   3.384   6.077   6.270 -0.7530 -0.6981 -0.2289
  123OSM   H13A13001   3.450   6.101   6.188 -0.7929  1.8208  0.3999
  123OSM   H13B13002   3.447   6.073   6.358  3.4618  1.2483 -2.8362
  123OSM   H13C13003   3.317   6.161   6.273 -0.0823 -0.0170 -2.4418
  123OSM    C1213004   3.196   5.937   6.319 -0.4289 -0.2544 -0.5159
  123OSM   H12A13005   3.141   5.850   6.286  0.4179 -1.1137  0.2341
  123OSM   H12B13006   3.133   6.024   6.311  0.6514  0.7513  1.1804
  123OSM    C1113007   3.206   5.910   6.471 -0.5256 -0.1858  0.4348
  123OSM   H11A13008   3.106   5.930   6.515 -0.8781  1.4184 -1.0057
  123OSM   H11B13009   3.281   5.988   6.499 -0.3231  0.3162 -1.3746
  123OSM      P13010   3.148   5.656   6.487 -0.3976  0.4143 -0.6880
  123OSM    O1313011   3.032   5.703   6.404 -0.1116  0.2412 -0.7107
  123OSM    O1413012   3.211   5.525   6.445  0.0010  0.0351 -0.2455
  123OSM    O1113013   3.102   5.641   6.634 -0.6346  0.3668 -0.3166
  123OSM    O1213014   3.242   5.782   6.495  0.3085 -0.1939  0.1514
  123OSM    C1S13015   3.190   5.651   6.746 -0.1144  0.3254 -0.4363
  123OSM    H1S13016   3.295   5.658   6.711  0.4133 -3.1189  0.0759
  123OSM    H1T13017   3.181   5.560   6.809 -1.2118 -0.3436 -1.5118
  123OSM     NF13018   3.235   5.773   6.965  0.5065 -1.3893  0.2501
  123OSM    HNF13019   3.180   5.747   7.044 -2.5471 -1.4862 -1.7445
  123OSM    C2S13020   3.163   5.780   6.839 -0.1549  0.3771  0.3808
  123OSM    H2S13021   3.197   5.870   6.783 -0.3532 -1.4055 -2.8968
  123OSM    C3S13022   3.008   5.795   6.862 -0.2876  0.0952  0.1724
  123OSM    H3S13023   2.962   5.715   6.923  0.1830  0.4650  1.0331
  123OSM     O313024   2.938   5.802   6.741  0.4761 -0.4903 -0.4381
  123OSM    HO313025   2.984   5.743   6.681 -3.5704 -2.7886 -1.7173
  123OSM    C4S13026   2.973   5.928   6.940  0.3185 -0.6275 -0.1744
  123OSM    H4S13027   2.964   5.919   7.049 -0.7495  0.7128 -0.1319
  123OSM    C5S13028   2.945   6.045   6.882  0.3741 -0.5003 -0.0078
  123OSM    H5S13029   2.954   6.057   6.773  1.0362 -0.6503  0.0245
  123OSM    C6S13030   2.898   6.166   6.950 -0.3854  0.0321  0.0360
  123OSM    H6S13031   2.797   6.192   6.911 -0.2906 -0.9267 -0.8874
  123OSM    H6T13032   2.964   6.250   6.922 -0.0067 -0.0934  0.5535
  123OSM    C7S13033   2.904   6.169   7.103 -0.7392  0.1221 -0.0716
  123OSM    H7S13034   3.001   6.122   7.128 -1.5398 -2.2864 -1.2425
  123OSM    H7T13035   2.825   6.105   7.148  0.2996 -0.8024  0.4690
  123OSM    C8S13036   2.910   6.314   7.163  0.7661 -0.5864  0.2775
  123OSM    H8S13037   2.831   6.364   7.102 -0.0376 -1.2784  0.7239
  123OSM    H8T13038   3.004   6.361   7.127  0.1071  0.2398 -0.4119
  123OSM    C9S13039   2.869   6.316   7.304  0.3714 -0.1766 -0.2087
  123OSM    H9S13040   2.925   6.242   7.366 -0.4177  1.2048  2.2991
  123OSM    H9T13041   2.760   6.296   7.319  1.0148 -1.8542  3.3788
  123OSM   C10S13042   2.887   6.455   7.376 -0.2000 -0.1433  0.3931
  123OSM   H10S13043   2.819   6.529   7.329  0.1693 -0.7822 -1.2107
  123OSM   H10T13044   2.995   6.477   7.361  0.5836 -3.1388  1.0939
  123OSM   C11S13045   2.861   6.432   7.524  0.1210 -0.3969  0.6338
  123OSM   H11S13046   2.769   6.380   7.558 -0.3522  0.5652  0.8687
  123OSM   H11T13047   2.842   6.533   7.567 -0.1723  0.6658 -1.8013
  123OSM   C12S13048   2.976   6.376   7.603 -0.5316  0.1730  0.1664
  123OSM   H12S13049   3.075   6.391   7.556  0.4491 -1.5105  1.5783
  123OSM   H12T13050   2.972   6.267   7.624 -1.3084  0.0824 -0.4146
  123OSM   C13S13051   3.001   6.442   7.738  0.4315  0.5297 -0.6995
  123OSM   H13S13052   3.004   6.553   7.733 -0.2006  0.5437 -0.7646
  123OSM   H13T13053   3.104   6.417   7.772  0.1551 -0.3173 -0.4439
  123OSM   C14S13054   2.900   6.402   7.854 -0.5622 -0.6546  0.5521
  123OSM   H14S13055   2.942   6.306   7.889  2.8214 -0.6630 -2.9330
  123OSM   H14T13056   2.799   6.382   7.813 -0.7545  0.7025  0.2929
  123OSM   C15S13057   2.904   6.506   7.969 -1.0731 -0.0051  0.7826
  123OSM   H15S13058   2.853   6.458   8.056  2.1143 -1.4688  2.0187
  123OSM   H15T13059   2.851   6.596   7.933  1.2385  0.6194 -1.3403
  123OSM   C16S13060   3.047   6.558   8.015 -0.7929 -0.4744  0.4264
  123OSM   H16S13061   3.114   6.576   7.928  0.6822  1.2012  1.8454
  123OSM   H16T13062   3.097   6.482   8.078  1.3771  0.2471 -0.3282
  123OSM   C17S13063   3.037   6.691   8.091  0.1135 -0.5964  0.8457
  123OSM   H17S13064   3.007   6.775   8.025  1.8955 -1.0019 -0.5452
  123OSM   H17T13065   3.131   6.730   8.136  1.2573  1.6329 -3.0319
  123OSM   C18S13066   2.935   6.686   8.204  0.3199 -0.1183 -0.0864
  123OSM   H18S13067   2.833   6.671   8.162  0.1385  0.1909  0.2459
  123OSM   H18T13068   2.942   6.778   8.266  2.5796  0.8461 -1.6670
  123OSM   H18U13069   2.950   6.596   8.267 -0.4596  0.5567  1.1158
  123OSM    C1F13070   3.367   5.784   6.985 -0.2519  0.0445 -0.2340
  123OSM     OF13071   3.444   5.805   6.888  0.0697 -0.5123  0.5354
  123OSM    C2F13072   3.421   5.761   7.130  0.1360  0.0458 -0.4407
  123OSM    H2F13073   3.356   5.675   7.159  0.4561 -1.0614 -2.7781
  123OSM    H2G13074   3.416   5.856   7.187  0.1221 -1.7990  2.8956
  123OSM    C3F13075   3.567   5.709   7.126  0.1799  0.0277 -0.6920
  123OSM    H3F13076   3.634   5.774   7.066  1.7388 -0.9867 -0.1096
  123OSM    H3G13077   3.544   5.617   7.068  0.0147 -0.9423  0.8570
  123OSM    C4F13078   3.628   5.702   7.263 -0.5699 -0.1493 -0.2773
  123OSM    H4F13079   3.714   5.631   7.261 -0.1881  0.3143 -0.6500
  123OSM    H4G13080   3.558   5.656   7.335  0.1927 -0.3842  0.3284
  123OSM    C5F13081   3.679   5.834   7.324 -0.2945 -0.4406 -0.6656
  123OSM    H5F13082   3.599   5.910   7.335  0.7880  0.6294  0.1301
  123OSM    H5G13083   3.757   5.863   7.250 -0.7165 -1.2168 -1.4247
  123OSM    C6F13084   3.750   5.811   7.461  0.4707  0.1313  0.0355
  123OSM    H6F13085   3.826   5.731   7.450  1.2410  0.4504  2.5079
  123OSM    H6G13086   3.677   5.763   7.529  1.2811  0.8647  1.4585
  123OSM    C7F13087   3.813   5.935   7.527 -0.3519 -0.6567 -0.2546
  123OSM    H7F13088   3.730   6.007   7.541  0.7715  0.5375  0.4425
  123OSM    H7G13089   3.861   5.981   7.438 -0.1026 -2.2538 -0.9866
  123OSM    C8F13090   3.908   5.930   7.641 -0.0996 -0.0543  0.4949
  123OSM    H8F13091   3.853   5.900   7.733  0.3467  2.8670  1.8270
  123OSM    H8G13092   3.941   6.035   7.655  0.4951 -0.0554 -0.7877
  123OSM    C9F13093   4.033   5.850   7.625 -0.0816  0.2015 -0.5398
  123OSM    H9F13094   4.116   5.901   7.575 -0.2789 -0.8167 -1.9645
  123OSM   C10F13095   4.057   5.728   7.671 -0.0036  0.0120 -0.2941
  123OSM   H10F13096   4.157   5.682   7.660  0.7471  1.6899 -0.7580
  123OSM   C11F13097   3.956   5.641   7.744 -0.2032  0.5246 -0.2741
  123OSM   H11F13098   3.981   5.544   7.698 -0.3541  1.4603 -2.4526
  123OSM   H11G13099   3.850   5.674   7.732 -1.0057 -0.7642  2.4289
  123OSM   C12F13100   3.987   5.637   7.897 -0.8296  0.1747 -0.0181
  123OSM   H12F13101   3.978   5.740   7.937  0.6434 -0.4127  1.9623
  123OSM   H12G13102   4.095   5.613   7.907 -0.3591  0.5608 -3.1574
  123OSM   C13F13103   3.902   5.532   7.970 -0.0267 -0.0067 -0.3831
  123OSM   H13F13104   3.914   5.435   7.917 -1.7356 -0.0226 -0.7829
  123OSM   H13G13105   3.792   5.543   7.963 -0.4960 -4.0081 -2.5957
  123OSM   C14F13106   3.918   5.512   8.121  0.1820  0.2505 -0.4568
  123OSM   H14F13107   4.014   5.461   8.140 -0.6460 -0.6266  1.7779
  123OSM   H14G13108   3.840   5.443   8.161 -2.3845  3.5924  0.8819
  123OSM   C15F13109   3.921   5.649   8.193  0.0847  0.0352  0.7643
  123OSM   H15F13110   3.831   5.701   8.154 -1.0269 -2.4525 -0.2134
  123OSM   H15G13111   4.014   5.697   8.157  0.6038 -0.4101  1.4938
  123OSM   C16F13112   3.924   5.635   8.344 -0.3702 -0.0475  0.2310
  123OSM   H16F13113   4.022   5.597   8.381 -0.5126  1.6491  2.5861
  123OSM   H16G13114   3.854   5.554   8.372 -0.5912  0.3194  0.7688
  123OSM   C17F13115   3.891   5.768   8.421 -0.5286  0.7053  0.0212
  123OSM   H17F13116   3.803   5.817   8.373 -0.6453  1.8085  1.3220
  123OSM   H17G13117   3.974   5.839   8.402 -1.0400  1.3510  0.1380
  123OSM   C18F13118   3.873   5.749   8.573  0.2433 -0.0413  0.6142
  123OSM   H18F13119   3.951   5.684   8.617 -0.9921  0.1172  3.2074
  123OSM   H18G13120   3.776   5.701   8.601 -0.8970  1.5570 -0.4176
  123OSM   H18H13121   3.876   5.848   8.622 -0.4702  0.4212 -0.2324
  124OSM      N13122   2.530   2.966   5.982 -0.2990  0.8853 -0.4229
  124OSM    C1513123   2.593   3.102   5.987 -0.5705  0.4015  0.6612
  124OSM   H15A13124   2.629   3.119   6.087 -2.7638  4.0635  0.9905
  124OSM   H15B13125   2.518   3.173   5.957 -2.2441 -2.3959 -2.4499
  124OSM   H15C13126   2.673   3.101   5.915  1.9042 -0.0139  3.2189
  124OSM    C1413127   2.428   2.966   6.090  0.7029 -0.4601 -0.3221
  124OSM   H14A13128   2.470   2.999   6.184  0.1831  0.0710 -0.2697
  124OSM   H14B13129   2.386   2.871   6.118  0.9985 -0.7066 -0.7180
  124OSM   H14C13130   2.346   3.025   6.053  1.3893  0.8961  0.2219
  124OSM    C1313131   2.465   2.940   5.857  0.4131 -0.3645 -0.2825
  124OSM   H13A13132   2.543   2.955   5.783 -0.5354  2.1315 -0.8566
  124OSM   H13B13133   2.373   2.992   5.841 -0.1225 -1.2522 -0.1642
  124OSM   H13C13134   2.439   2.835   5.860  3.7644 -1.3616 -1.1398
  124OSM    C1213135   2.626   2.852   6.012 -0.1744  0.6656  0.1697
  124OSM   H12A13136   2.711   2.851   5.946  0.2573  0.7455  0.7176
  124OSM   H12B13137   2.572   2.759   6.002 -1.9472  1.5829  0.7578
  124OSM    C1113138   2.687   2.844   6.155  0.4097  0.6939 -0.3059
  124OSM   H11A13139   2.739   2.746   6.167  1.1103  0.5117 -3.6544
  124OSM   H11B13140   2.608   2.829   6.232 -2.7490  0.8849 -3.2750
  124OSM      P13141   2.907   2.964   6.132  0.4346  0.1538 -0.0747
  124OSM    O1313142   2.912   2.879   6.012 -0.6725 -0.0639  0.5221
  124OSM    O1413143   2.924   3.111   6.109 -0.1248 -0.0285 -0.0348
  124OSM    O1113144   3.006   2.913   6.240  0.2725  0.8047 -0.1531
  124OSM    O1213145   2.761   2.957   6.182 -0.3475 -0.4379  0.0326
  124OSM    C1S13146   3.016   2.975   6.373 -0.2059 -0.1811  0.6345
  124OSM    H1S13147   2.972   3.077   6.375 -0.4195 -0.2618  0.2204
  124OSM    H1T13148   3.125   2.989   6.389  0.3455  0.5469 -2.8146
  124OSM     NF13149   2.970   2.968   6.618  0.4647  0.2013  0.3003
  124OSM    HNF13150   3.052   2.935   6.663  1.0941 -0.1656 -1.0763
  124OSM    C2S13151   2.942   2.894   6.492 -0.7411  0.9458 -0.4068
  124OSM    H2S13152   2.833   2.877   6.478 -0.9915 -1.4434  3.1457
  124OSM    C3S13153   3.001   2.746   6.498 -0.2408  0.4000 -0.1306
  124OSM    H3S13154   3.106   2.758   6.530 -0.0388 -1.3894  0.0015
  124OSM     O313155   2.996   2.680   6.373 -0.5021 -0.7185  0.2370
  124OSM    HO313156   2.971   2.754   6.318 -2.3004 -0.8907  0.7365
  124OSM    C4S13157   2.921   2.669   6.601 -0.1362 -0.2750 -0.3592
  124OSM    H4S13158   2.938   2.697   6.706 -1.4047  0.6209 -0.3593
  124OSM    C5S13159   2.837   2.562   6.583  0.4704 -0.0240 -0.5611
  124OSM    H5S13160   2.835   2.522   6.481  1.0579 -1.6299  0.0203
  124OSM    C6S13161   2.761   2.493   6.694 -0.4333 -0.5376 -0.4879
  124OSM    H6S13162   2.810   2.394   6.689  2.4388  0.7254  0.6899
  124OSM    H6T13163   2.651   2.489   6.675 -0.8010  0.6893  1.1303
  124OSM    C7S13164   2.768   2.548   6.838 -0.4029 -0.1934  0.4400
  124OSM    H7S13165   2.698   2.630   6.860  0.4156  0.9786 -1.0945
  124OSM    H7T13166   2.869   2.591   6.854 -1.6313  3.4469 -0.6956
  124OSM    C8S13167   2.754   2.448   6.946  0.4336 -0.0821 -0.7060
  124OSM    H8S13168   2.782   2.497   7.042  0.0428  2.0836 -1.6518
  124OSM    H8T13169   2.823   2.361   6.941  2.8167  1.5601  1.0857
  124OSM    C9S13170   2.612   2.386   6.961 -0.5367 -0.8025 -0.2302
  124OSM    H9S13171   2.585   2.371   6.855  0.4941 -1.5790 -0.3948
  124OSM    H9T13172   2.538   2.455   7.008  1.1798  1.0132 -0.0492
  124OSM   C10S13173   2.613   2.242   7.023  0.4802  0.4380  0.3594
  124OSM   H10S13174   2.664   2.170   6.955 -0.2656 -0.5354  0.8064
  124OSM   H10T13175   2.508   2.208   7.016  1.4204 -2.6315 -0.1914
  124OSM   C11S13176   2.660   2.228   7.165  0.0937  0.3980  0.6094
  124OSM   H11S13177   2.753   2.288   7.175  1.9279 -2.2571  0.5677
  124OSM   H11T13178   2.676   2.122   7.195  0.5980  0.6329  1.1991
  124OSM   C12S13179   2.561   2.275   7.271 -1.2055  0.2476 -0.0677
  124OSM   H12S13180   2.455   2.260   7.242 -1.8258  2.8137  0.6032
  124OSM   H12T13181   2.554   2.385   7.276  0.1636  0.2926  2.1869
  124OSM   C13S13182   2.593   2.224   7.413  0.2753 -0.3168  0.3242
  124OSM   H13S13183   2.699   2.192   7.406  0.4629  0.4189 -0.3506
  124OSM   H13T13184   2.519   2.143   7.430 -2.1142  1.7526  0.3791
  124OSM   C14S13185   2.579   2.338   7.518 -0.7189 -1.0515  0.0741
  124OSM   H14S13186   2.470   2.349   7.532 -0.5067  0.2519  0.8648
  124OSM   H14T13187   2.622   2.432   7.477 -0.4978 -1.0413  0.3254
  124OSM   C15S13188   2.639   2.297   7.656  0.5032 -0.2665  0.2706
  124OSM   H15S13189   2.626   2.387   7.720 -4.9034 -0.8771  0.5403
  124OSM   H15T13190   2.748   2.277   7.647  1.0985  1.6424  2.4440
  124OSM   C16S13191   2.563   2.180   7.719  0.2586 -0.0734 -0.5817
  124OSM   H16S13192   2.617   2.126   7.799 -0.7246  1.6355  1.3273
  124OSM   H16T13193   2.530   2.114   7.636  0.1152 -0.9320  0.1493
  124OSM   C17S13194   2.421   2.207   7.774  0.1689  0.3645  0.2208
  124OSM   H17S13195   2.363   2.275   7.708  2.1458  1.6476 -0.2891
  124OSM   H17T13196   2.430   2.272   7.864  2.5247 -0.9261  0.9894
  124OSM   C18S13197   2.346   2.080   7.805 -0.8223 -0.1665  0.5491
  124OSM   H18S13198   2.246   2.106   7.844 -0.5798  0.7724  0.5724
  124OSM   H18T13199   2.400   2.015   7.877  0.5289  0.8549  0.5052
  124OSM   H18U13200   2.322   2.029   7.709  2.0052 -0.2582 -0.2018
  124OSM    C1F13201   2.913   3.086   6.644  0.0319  0.6117 -0.3421
  124OSM     OF13202   2.819   3.125   6.577  0.2425  0.6420  0.0466
  124OSM    C2F13203   2.972   3.171   6.745 -0.4461 -0.9173 -0.2399
  124OSM    H2F13204   2.939   3.274   6.720 -1.3972 -0.3298  2.9781
  124OSM    H2G13205   3.082   3.166   6.758 -0.3615  2.7052  1.9185
  124OSM    C3F13206   2.916   3.139   6.884 -0.3054  0.0641 -0.0618
  124OSM    H3F13207   2.934   3.032   6.909 -3.3023 -0.2566  1.1619
  124OSM    H3G13208   2.805   3.146   6.892 -0.3008  0.5957 -0.4188
  124OSM    C4F13209   2.979   3.219   7.001  0.3834 -0.2997  0.2806
  124OSM    H4F13210   2.979   3.330   7.007  1.3499 -0.3659  2.7071
  124OSM    H4G13211   3.088   3.196   7.006  0.1767 -1.1192  1.7126
  124OSM    C5F13212   2.928   3.152   7.126  0.4621 -0.3085 -0.1733
  124OSM    H5F13213   2.959   3.046   7.127 -3.0248 -1.4755 -0.2421
  124OSM    H5G13214   2.818   3.141   7.141  0.4017 -0.3338 -0.6222
  124OSM    C6F13215   2.988   3.216   7.253 -0.0915  0.3850 -0.0600
  124OSM    H6F13216   2.949   3.316   7.282  0.2888 -0.3017  3.2320
  124OSM    H6G13217   3.097   3.233   7.235  0.3452 -2.2676 -0.3116
  124OSM    C7F13218   2.983   3.121   7.377  0.1426 -0.7078  0.2640
  124OSM    H7F13219   3.027   3.022   7.352 -1.0545 -0.9011 -1.2101
  124OSM    H7G13220   2.874   3.100   7.381 -0.6727  2.3319 -2.1803
  124OSM    C8F13221   3.027   3.184   7.512 -0.7406  0.5346  0.5246
  124OSM    H8F13222   2.998   3.291   7.522  0.9745  1.1788 -0.7595
  124OSM    H8G13223   3.138   3.192   7.519 -0.7057  0.0917  0.4942
  124OSM    C9F13224   2.976   3.089   7.623 -0.7669  0.9309  0.3870
  124OSM    H9F13225   3.007   2.985   7.605 -1.6357  0.8217 -0.6079
  124OSM   C10F13226   2.881   3.119   7.720 -0.2356 -0.3157 -0.3885
  124OSM   H10F13227   2.866   3.042   7.797  0.6243  0.1767  0.2958
  124OSM   C11F13228   2.807   3.248   7.744  0.5181  0.7159  0.1979
  124OSM   H11F13229   2.699   3.239   7.719  0.2521  1.7738  0.8756
  124OSM   H11G13230   2.842   3.330   7.678  0.9797  0.4228  0.0771
  124OSM   C12F13231   2.816   3.286   7.896  0.7478 -0.2499  0.4832
  124OSM   H12F13232   2.800   3.396   7.892  0.5703 -0.2967 -0.0993
  124OSM   H12G13233   2.923   3.277   7.926  0.8797 -0.8305 -0.1413
  124OSM   C13F13234   2.721   3.207   7.986  0.4452 -1.4040 -0.6000
  124OSM   H13F13235   2.762   3.106   8.009  1.1733 -0.6987  1.4425
  124OSM   H13G13236   2.623   3.203   7.933  0.4752  1.2861 -0.9830
  124OSM   C14F13237   2.703   3.285   8.124  0.1847 -0.8663  0.5461
  124OSM   H14F13238   2.652   3.381   8.102 -0.3224 -1.5987 -1.6897
  124OSM   H14G13239   2.803   3.309   8.167 -0.0581 -0.2327  0.7607
  124OSM   C15F13240   2.612   3.218   8.228 -0.1738  0.7745 -0.0803
  124OSM   H15F13241   2.672   3.137   8.273 -0.4278  0.6193 -0.0152
  124OSM   H15G13242   2.531   3.165   8.173 -0.6075  1.2931  0.0530
  124OSM   C16F13243   2.564   3.304   8.350 -0.0185 -0.3455 -1.0425
  124OSM   H16F13244   2.482   3.365   8.306  0.6157  0.0653 -1.6738
  124OSM   H16G13245   2.651   3.368   8.374  0.2328  0.0560 -2.8676
  124OSM   C17F13246   2.536   3.224   8.481  0.2159  0.1299 -0.1418
  124OSM   H17F13247   2.619   3.154   8.503  1.0156  1.0521 -0.1804
  124OSM   H17G13248   2.442   3.167   8.464  0.6739 -0.9739  0.8585
  124OSM   C18F13249   2.522   3.312   8.605 -0.0223 -0.7874 -0.3667
  124OSM   H18F13250   2.458   3.401   8.584  1.0055  0.1389  0.3197
  124OSM   H18G13251   2.618   3.366   8.616 -1.0085  1.3397 -1.4873
  124OSM   H18H13252   2.504   3.254   8.698 -1.7371  1.0208  0.5006
  125OSM      N13253   1.025   1.843   5.820  0.3729  0.1691 -0.2236
  125OSM    C1513254   1.153   1.775   5.859 -0.5829 -0.4962 -0.0598
  125OSM   H15A13255   1.216   1.725   5.787 -0.6900 -1.0157  0.2083
  125OSM   H15B13256   1.140   1.728   5.955  2.1230 -0.4604  0.3962
  125OSM   H15C13257   1.218   1.854   5.895  1.4132 -2.2430  0.3215
  125OSM    C1413258   0.981   1.943   5.915  0.6043 -0.9701  0.5295
  125OSM   H14A13259   0.908   2.007   5.869 -1.8480 -2.8190  1.6083
  125OSM   H14B13260   1.063   2.011   5.936 -1.1351  1.8360 -1.2195
  125OSM   H14C13261   0.934   1.906   6.006  1.3150  1.2999  1.9078
  125OSM    C1313262   1.050   1.922   5.694 -0.6698 -0.1370 -0.3255
  125OSM   H13A13263   1.097   1.856   5.622  2.4459  1.1189  0.3618
  125OSM   H13B13264   1.113   2.006   5.722 -0.9754 -0.8981  2.9907
  125OSM   H13C13265   0.965   1.974   5.654  0.1511  1.9193  0.4812
  125OSM    C1213266   0.926   1.731   5.781  0.1492  0.3597  0.0657
  125OSM   H12A13267   0.953   1.668   5.699  0.2162  0.6789 -0.1601
  125OSM   H12B13268   0.837   1.782   5.746  0.0841  1.1329  1.2578
  125OSM    C1113269   0.884   1.629   5.888 -0.1720  0.1312 -0.8613
  125OSM   H11A13270   0.974   1.574   5.924 -1.3720 -2.2714 -1.3513
  125OSM   H11B13271   0.819   1.549   5.847  0.1764  0.3017 -1.7657
  125OSM      P13272   0.668   1.711   5.997  0.1368  0.6681 -0.2663
  125OSM    O1313273   0.628   1.797   5.885 -0.4520 -0.5538 -0.1943
  125OSM    O1413274   0.600   1.578   6.003  0.0796 -0.6585  0.0640
  125OSM    O1113275   0.642   1.788   6.136 -0.0462 -0.0542  0.3179
  125OSM    O1213276   0.825   1.694   5.999  0.0228  0.2005  0.3198
  125OSM    C1S13277   0.723   1.763   6.253  0.6539 -0.5569  0.4807
  125OSM    H1S13278   0.828   1.795   6.233  0.3566 -0.4680 -0.9860
  125OSM    H1T13279   0.715   1.653   6.270 -1.6171 -0.8626 -1.9931
  125OSM     NF13280   0.763   1.812   6.503 -0.1600  0.3454 -0.3924
  125OSM    HNF13281   0.736   1.751   6.576 -1.0860 -0.9020 -1.7137
  125OSM    C2S13282   0.671   1.830   6.388  0.3399 -0.0940  0.0661
  125OSM    H2S13283   0.659   1.940   6.377 -0.1351 -0.2115 -0.7105
  125OSM    C3S13284   0.526   1.772   6.414  0.3317  0.0674 -0.5681
  125OSM    H3S13285   0.538   1.665   6.442  0.4640  0.5810  1.5008
  125OSM     O313286   0.437   1.777   6.306  0.3249  0.2213 -0.1137
  125OSM    HO313287   0.502   1.775   6.235 -0.3949 -1.6496 -0.7868
  125OSM    C4S13288   0.465   1.843   6.537 -0.3759 -0.4268  0.5951
  125OSM    H4S13289   0.535   1.845   6.623 -1.4557  2.5781  1.5314
  125OSM    C5S13290   0.360   1.932   6.542 -0.0214 -0.0279  0.4880
  125OSM    H5S13291   0.306   1.962   6.451 -0.1027 -0.0177  0.5389
  125OSM    C6S13292   0.303   1.988   6.668 -0.1041  0.3889  0.3974
  125OSM    H6S13293   0.198   1.955   6.682 -0.4760  0.7310 -1.2868
  125OSM    H6T13294   0.305   2.099   6.661  1.2426  0.4110  0.8723
  125OSM    C7S13295   0.368   1.950   6.794 -0.6194 -0.3441  0.0636
  125OSM    H7S13296   0.477   1.971   6.789 -0.5589 -0.3873  0.9727
  125OSM    H7T13297   0.351   1.842   6.813 -0.4212 -0.2675  0.6934
  125OSM    C8S13298   0.314   2.023   6.922 -0.1477 -0.9472  0.0951
  125OSM    H8S13299   0.207   1.995   6.918  0.0927 -2.6077  2.9978
  125OSM    H8T13300   0.321   2.133   6.913 -1.0498 -0.8751  0.2459
  125OSM    C9S13301   0.381   1.963   7.044  0.1536  0.8373 -0.5507
  125OSM    H9S13302   0.491   1.979   7.046  0.1738  1.0726 -2.1669
  125OSM    H9T13303   0.371   1.853   7.041  0.8675  0.3873  4.5223
  125OSM   C10S13304   0.324   2.016   7.171 -0.3083 -0.2036 -0.2292
  125OSM   H10S13305   0.214   2.004   7.161 -0.6242 -1.7906  3.3758
  125OSM   H10T13306   0.337   2.125   7.186 -0.1163 -0.2209 -0.2559
  125OSM   C11S13307   0.387   1.936   7.278 -0.2331  0.2224 -0.7338
  125OSM   H11S13308   0.496   1.957   7.287  0.5925 -3.6017  0.1645
  125OSM   H11T13309   0.363   1.829   7.261 -2.1983  0.5505 -0.2156
  125OSM   C12S13310   0.349   1.976   7.424 -0.1231 -0.3217  0.0583
  125OSM   H12S13311   0.239   1.983   7.440 -0.3751  0.7406 -1.8151
  125OSM   H12T13312   0.389   2.079   7.428  0.0683 -0.2837 -1.8905
  125OSM   C13S13313   0.419   1.878   7.512 -0.8574 -0.3889 -0.4808
  125OSM   H13S13314   0.527   1.879   7.487 -0.1952 -2.1952  2.0224
  125OSM   H13T13315   0.384   1.775   7.490 -0.7345 -0.1676 -1.7907
  125OSM   C14S13316   0.414   1.920   7.657  0.9646  0.8509 -0.2826
  125OSM   H14S13317   0.425   2.027   7.684 -0.5554  0.6516  1.3469
  125OSM   H14T13318   0.496   1.864   7.708  0.0157  0.1901  0.5504
  125OSM   C15S13319   0.283   1.878   7.725 -0.8183  0.2890 -0.5355
  125OSM   H15S13320   0.255   1.777   7.687  1.6332 -0.7907  0.3544
  125OSM   H15T13321   0.203   1.951   7.697 -2.3135 -0.3103  1.9219
  125OSM   C16S13322   0.310   1.869   7.875  0.3754 -0.4691 -0.2540
  125OSM   H16S13323   0.384   1.792   7.905 -0.9821 -0.6211  3.1397
  125OSM   H16T13324   0.212   1.843   7.921 -0.3729  1.8785 -0.3953
  125OSM   C17S13325   0.360   2.004   7.930 -0.3112  0.5055  0.0442
  125OSM   H17S13326   0.458   2.035   7.888  1.0091  1.0712  3.2767
  125OSM   H17T13327   0.377   1.985   8.038 -2.4170  1.1047  0.5259
  125OSM   C18S13328   0.267   2.128   7.927  0.4745  0.2433  0.1520
  125OSM   H18S13329   0.177   2.124   7.992 -0.5159  1.0633 -1.1134
  125OSM   H18T13330   0.225   2.129   7.824 -1.0287 -4.3494  0.4931
  125OSM   H18U13331   0.316   2.222   7.959 -2.8635  1.8560  0.9795
  125OSM    C1F13332   0.881   1.871   6.508 -0.2910  0.3035 -0.4848
  125OSM     OF13333   0.916   1.942   6.413 -0.6498  0.1678  0.1847
  125OSM    C2F13334   0.963   1.860   6.636  0.5576  0.7145  0.7446
  125OSM    H2F13335   1.069   1.842   6.607 -0.5368 -3.5548 -1.3735
  125OSM    H2G13336   0.930   1.772   6.695 -1.3695  1.1808  0.4070
  125OSM    C3F13337   0.947   1.994   6.715  0.3497  0.8379 -0.1674
  125OSM    H3F13338   0.998   2.078   6.663  0.2377  0.9852 -0.0407
  125OSM    H3G13339   1.000   1.984   6.812 -0.0683 -1.1287 -0.1193
  125OSM    C4F13340   0.804   2.042   6.753  0.3544  0.0956 -0.2384
  125OSM    H4F13341   0.739   1.955   6.777  1.6488 -0.6174  0.8608
  125OSM    H4G13342   0.754   2.091   6.667 -0.7009 -1.2475 -0.4389
  125OSM    C5F13343   0.797   2.143   6.873  0.3296  0.9499 -0.6419
  125OSM    H5F13344   0.696   2.190   6.879 -0.9792 -1.7729  0.5484
  125OSM    H5G13345   0.860   2.229   6.844  1.2862  0.9667  1.3057
  125OSM    C6F13346   0.854   2.087   7.011  0.4383 -0.6668 -0.3948
  125OSM    H6F13347   0.956   2.050   6.990  0.7657 -0.0789  0.1485
  125OSM    H6G13348   0.801   2.001   7.058 -2.5518  2.4962  2.5810
  125OSM    C7F13349   0.870   2.186   7.123  0.3441  0.2413 -0.6232
  125OSM    H7F13350   0.876   2.281   7.067  1.8671  0.2433 -0.4871
  125OSM    H7G13351   0.962   2.175   7.184 -1.4279  0.3519  2.2933
  125OSM    C8F13352   0.750   2.208   7.214  0.6692  0.2651 -0.0015
  125OSM    H8F13353   0.664   2.197   7.144  0.7636  0.2110 -0.1082
  125OSM    H8G13354   0.740   2.310   7.258 -0.1257 -0.2792  1.1407
  125OSM    C9F13355   0.732   2.092   7.319 -0.1240 -0.6871  0.1282
  125OSM    H9F13356   0.712   1.993   7.276 -1.4283 -0.4645  0.1986
  125OSM   C10F13357   0.740   2.114   7.449  0.9001 -0.3022  0.5666
  125OSM   H10F13358   0.732   2.022   7.509 -0.0155  0.1880  1.2192
  125OSM   C11F13359   0.762   2.246   7.519  0.0009 -0.2714  0.5168
  125OSM   H11F13360   0.671   2.309   7.523  0.4256  0.3040  1.5446
  125OSM   H11G13361   0.840   2.306   7.467  1.0362 -0.3927  1.8867
  125OSM   C12F13362   0.820   2.211   7.663  0.5345 -0.4942 -0.3364
  125OSM   H12F13363   0.848   2.310   7.706  1.1819 -0.3636 -1.0240
  125OSM   H12G13364   0.919   2.162   7.646 -0.5423 -2.7955 -0.3269
  125OSM   C13F13365   0.722   2.146   7.759  0.2604  0.0233  0.2257
  125OSM   H13F13366   0.697   2.048   7.714 -0.3071  1.4568 -2.7737
  125OSM   H13G13367   0.627   2.202   7.776 -0.8930 -0.8092 -2.7825
  125OSM   C14F13368   0.787   2.124   7.897  0.2839  0.7028  0.7770
  125OSM   H14F13369   0.812   2.223   7.942 -0.4602  1.0134  0.5155
  125OSM   H14G13370   0.886   2.073   7.890 -1.0057 -2.2097  1.9652
  125OSM   C15F13371   0.704   2.042   7.986  0.6253  0.3953 -0.0271
  125OSM   H15F13372   0.654   1.959   7.932  0.9767 -1.4184  2.2935
  125OSM   H15G13373   0.621   2.100   8.032 -0.9740 -0.8399 -1.2148
  125OSM   C16F13374   0.789   1.980   8.099 -0.0219  0.0461  0.4341
  125OSM   H16F13375   0.846   2.054   8.159  0.6217 -1.0218  1.1867
  125OSM   H16G13376   0.862   1.908   8.056 -0.8061  0.1841 -1.1983
  125OSM   C17F13377   0.693   1.907   8.201  0.0021 -0.6381  0.6303
  125OSM   H17F13378   0.611   1.855   8.147 -0.5845  1.8754 -1.0691
  125OSM   H17G13379   0.641   1.984   8.262 -1.4852 -0.9577 -0.2061
  125OSM   C18F13380   0.757   1.802   8.294 -0.5149 -0.1355 -0.2007
  125OSM   H18F13381   0.685   1.728   8.335 -1.9931  1.2018 -0.3216
  125OSM   H18G13382   0.830   1.839   8.369  0.6422 -1.7444 -0.4790
  125OSM   H18H13383   0.821   1.738   8.229  0.3133  1.9370 -1.5384
  126OSM      N13384   3.671   4.937   6.392  0.1701 -0.2585  0.7315
  126OSM    C1513385   3.697   4.865   6.268  0.3700 -0.0888  0.5795
  126OSM   H15A13386   3.804   4.868   6.252  0.5318  0.3339  1.7024
  126OSM   H15B13387   3.669   4.919   6.179 -1.7534  1.3918  2.0853
  126OSM   H15C13388   3.645   4.770   6.271 -1.0289  0.4070 -2.9343
  126OSM    C1413389   3.744   5.071   6.394  0.2601 -0.4871 -0.0520
  126OSM   H14A13390   3.843   5.072   6.438 -0.3005  2.4253  1.2985
  126OSM   H14B13391   3.691   5.133   6.464  1.9890  0.6538  0.3240
  126OSM   H14C13392   3.754   5.120   6.298  0.7051  2.6757  1.5034
  126OSM    C1313393   3.530   4.964   6.402  0.8642  0.0043  0.0427
  126OSM   H13A13394   3.498   5.006   6.307  1.4800 -0.4978 -0.3924
  126OSM   H13B13395   3.509   5.043   6.473  0.6492 -0.1029  0.0992
  126OSM   H13C13396   3.468   4.878   6.422 -0.5975  1.4612  2.2589
  126OSM    C1213397   3.712   4.842   6.504  0.6857 -0.3715  0.2920
  126OSM   H12A13398   3.667   4.744   6.495  2.2733 -1.1276  0.3053
  126OSM   H12B13399   3.671   4.879   6.597 -2.1394 -0.0487 -0.9768
  126OSM    C1113400   3.862   4.833   6.538  0.1487 -0.3330 -0.5889
  126OSM   H11A13401   3.872   4.778   6.635 -3.9787  0.6479  0.5948
  126OSM   H11B13402   3.908   4.934   6.548  0.0956 -0.4040  0.6410
  126OSM      P13403   4.060   4.808   6.370  0.2331 -0.1630 -0.0238
  126OSM    O1313404   4.132   4.698   6.304 -0.5599 -0.2063 -0.0155
  126OSM    O1413405   4.033   4.924   6.282  0.1694 -0.5958 -0.5694
  126OSM    O1113406   4.155   4.861   6.488  0.2252  0.3992 -0.5347
  126OSM    O1213407   3.926   4.758   6.438  0.2624 -0.2091 -0.1599
  126OSM    C1S13408   4.208   4.764   6.575  0.4765  0.0428 -0.5866
  126OSM    H1S13409   4.289   4.711   6.519 -0.7214  0.6577 -3.0221
  126OSM    H1T13410   4.131   4.691   6.609  1.3990 -0.0444  1.5066
  126OSM     NF13411   4.325   4.712   6.791 -0.0398  0.4443  1.0035
  126OSM    HNF13412   4.278   4.697   6.877 -1.6645  3.3639  0.7430
  126OSM    C2S13413   4.274   4.818   6.710  0.9015 -0.1533 -0.5196
  126OSM    H2S13414   4.354   4.889   6.681  1.4306 -0.8073 -0.6684
  126OSM    C3S13415   4.179   4.920   6.783 -0.5633 -0.8280  0.4283
  126OSM    H3S13416   4.084   4.872   6.816 -0.8467 -0.3632  0.2899
  126OSM     O313417   4.133   5.031   6.706  0.4357 -0.1512  0.3619
  126OSM    HO313418   4.142   5.015   6.612  0.0910  1.8984 -0.0764
  126OSM    C4S13419   4.243   4.962   6.918  0.1669 -0.0963  0.6238
  126OSM    H4S13420   4.245   4.888   7.000 -2.3911  1.2256  2.0372
  126OSM    C5S13421   4.302   5.076   6.954  0.1294  0.4198 -0.3063
  126OSM    H5S13422   4.301   5.155   6.877  0.7332  2.4079  1.6180
  126OSM    C6S13423   4.368   5.116   7.086 -1.0844  0.7350  0.1873
  126OSM    H6S13424   4.300   5.191   7.130 -0.8118  0.3606  1.2715
  126OSM    H6T13425   4.470   5.156   7.066  0.1995 -1.9830  0.8204
  126OSM    C7S13426   4.393   5.000   7.192  0.5132  0.1487  0.2904
  126OSM    H7S13427   4.479   4.933   7.172 -0.8238 -2.5693  2.8145
  126OSM    H7T13428   4.310   4.925   7.191 -0.7615  1.4829  1.5077
  126OSM    C8S13429   4.397   5.063   7.329  0.0144  0.6466  0.1465
  126OSM    H8S13430   4.295   5.107   7.331 -0.9560 -1.4680 -0.5453
  126OSM    H8T13431   4.472   5.146   7.324  0.7425  0.0080  0.2990
  126OSM    C9S13432   4.423   4.963   7.445 -0.3875 -0.0594 -0.1758
  126OSM    H9S13433   4.524   4.920   7.430  1.2494  2.2625  3.0513
  126OSM    H9T13434   4.344   4.884   7.448 -0.9882  0.5456  0.2174
  126OSM   C10S13435   4.444   5.030   7.584 -0.1089  0.1357 -0.1121
  126OSM   H10S13436   4.348   5.068   7.625 -1.2792  0.1639 -2.7017
  126OSM   H10T13437   4.513   5.116   7.572 -0.2499  0.2369 -0.2099
  126OSM   C11S13438   4.495   4.929   7.687  1.0452  0.3759  0.4573
  126OSM   H11S13439   4.602   4.904   7.674  2.5576  5.5618  0.8099
  126OSM   H11T13440   4.417   4.850   7.686  2.8102 -1.4414 -0.0176
  126OSM   C12S13441   4.489   4.992   7.819  0.2638  0.6827 -0.0384
  126OSM   H12S13442   4.385   4.980   7.855 -0.0342 -1.1663 -1.3681
  126OSM   H12T13443   4.499   5.102   7.824  0.9263  0.6048  0.6611
  126OSM   C13S13444   4.578   4.944   7.931 -0.0653 -0.6869  0.4989
  126OSM   H13S13445   4.684   4.960   7.902  0.0038 -0.3144  0.9505
  126OSM   H13T13446   4.552   4.837   7.940 -1.5229 -0.2633  1.8058
  126OSM   C14S13447   4.561   5.016   8.067  0.3343  0.6202  0.0231
  126OSM   H14S13448   4.453   4.999   8.088  0.0985 -1.8933 -2.5392
  126OSM   H14T13449   4.578   5.124   8.052  2.5911  0.4857  1.2352
  126OSM   C15S13450   4.659   4.962   8.171 -0.4714  0.3193 -0.7605
  126OSM   H15S13451   4.760   4.981   8.130  0.0658  0.0747  0.4287
  126OSM   H15T13452   4.648   4.855   8.197 -0.1721 -0.5731 -3.8760
  126OSM   C16S13453   4.651   5.050   8.298  0.6390 -0.3613  0.3139
  126OSM   H16S13454   4.541   5.051   8.310  0.4644  1.5969 -0.9825
  126OSM   H16T13455   4.672   5.158   8.278 -3.1856  0.6243  0.7474
  126OSM   C17S13456   4.734   5.003   8.412  0.4405  0.4397  0.0487
  126OSM   H17S13457   4.719   4.894   8.421 -0.8236  0.2810 -2.8910
  126OSM   H17T13458   4.701   5.058   8.503  1.2378  0.7737  0.1417
  126OSM   C18S13459   4.880   5.033   8.390 -0.7244  0.3116 -0.7706
  126OSM   H18S13460   4.922   4.999   8.293  1.7052  1.0746 -0.0404
  126OSM   H18T13461   4.949   4.986   8.463 -1.3536 -0.4422 -0.6374
  126OSM   H18U13462   4.895   5.142   8.383  3.1368 -0.0757 -0.3779
  126OSM    C1F13463   4.433   4.646   6.751  0.7642  0.6629  0.4472
  126OSM     OF13464   4.483   4.667   6.640  0.1359 -0.4304 -0.1248
  126OSM    C2F13465   4.477   4.540   6.846 -1.0208 -0.2298 -0.7073
  126OSM    H2F13466   4.389   4.472   6.855  0.6648 -2.3056  1.0717
  126OSM    H2G13467   4.497   4.594   6.941 -0.6252 -1.4510 -0.0893
  126OSM    C3F13468   4.600   4.468   6.794 -0.1496 -0.0675  0.3796
  126OSM    H3F13469   4.682   4.540   6.774 -0.3792 -0.6685 -3.3644
  126OSM    H3G13470   4.566   4.416   6.702 -1.7943  0.2311  0.7836
  126OSM    C4F13471   4.645   4.353   6.890  0.2412 -0.3716 -0.1250
  126OSM    H4F13472   4.688   4.269   6.833  2.0088 -0.8404  1.7616
  126OSM    H4G13473   4.555   4.306   6.935 -0.0964  0.6680  0.3179
  126OSM    C5F13474   4.733   4.400   7.006  0.6044 -0.3326 -0.6184
  126OSM    H5F13475   4.673   4.474   7.064  1.0481 -0.5748  0.1615
  126OSM    H5G13476   4.822   4.452   6.966  1.0648 -1.2953 -0.8701
  126OSM    C6F13477   4.764   4.278   7.103  0.0175  0.5315 -0.0071
  126OSM    H6F13478   4.817   4.206   7.037 -0.2048  1.2224 -0.9621
  126OSM    H6G13479   4.669   4.244   7.150  0.2714 -0.1287  0.0390
  126OSM    C7F13480   4.876   4.316   7.206  0.4233  0.5540  0.1980
  126OSM    H7F13481   4.844   4.398   7.273  0.6236  1.5547 -0.8944
  126OSM    H7G13482   4.957   4.363   7.145  0.8834 -1.6283 -0.9842
  126OSM    C8F13483   4.932   4.200   7.299  0.3755 -1.1721  0.7235
  126OSM    H8F13484   4.978   4.122   7.235  0.2286 -0.6486 -0.0317
  126OSM    H8G13485   4.839   4.158   7.344 -0.4027  0.2649  0.5147
  126OSM    C9F13486   5.045   4.233   7.385  1.0661 -0.6416  0.2478
  126OSM    H9F13487   5.123   4.297   7.341 -1.0120  1.2824 -0.8381
  126OSM   C10F13488   5.055   4.175   7.503 -0.1187  0.4247  0.3905
  126OSM   H10F13489   5.150   4.205   7.550  1.3893 -1.3921 -1.2919
  126OSM   C11F13490   4.970   4.074   7.570  0.0255 -0.8006 -0.2658
  126OSM   H11F13491   5.034   3.986   7.595  1.3078 -0.1463 -1.1458
  126OSM   H11G13492   4.896   4.039   7.494 -1.7702  3.5565 -0.8013
  126OSM   C12F13493   4.893   4.122   7.694 -0.9790  0.2065 -0.6496
  126OSM   H12F13494   4.844   4.029   7.728  3.1401 -1.2088  2.2584
  126OSM   H12G13495   4.810   4.193   7.677 -2.8854 -1.8206 -0.2368
  126OSM   C13F13496   4.973   4.155   7.827  0.2758  0.0547  0.5435
  126OSM   H13F13497   4.905   4.207   7.897  0.0458  2.0595 -1.0915
  126OSM   H13G13498   5.068   4.211   7.815  1.1832 -1.2122  1.5365
  126OSM   C14F13499   5.029   4.029   7.895 -0.2338 -0.0938  0.0040
  126OSM   H14F13500   5.108   3.996   7.824  0.6722 -0.0775  0.9948
  126OSM   H14G13501   4.950   3.951   7.904 -1.1700  0.4166 -2.7969
  126OSM   C15F13502   5.087   4.058   8.035  0.3066 -0.4368 -0.2720
  126OSM   H15F13503   5.011   4.106   8.100  0.8828 -1.5846  1.3041
  126OSM   H15G13504   5.176   4.124   8.027 -0.0521 -0.1079 -1.9190
  126OSM   C16F13505   5.138   3.924   8.099  0.0173  0.3687  0.0036
  126OSM   H16F13506   5.188   3.859   8.025 -0.5225  0.4336 -0.4259
  126OSM   H16G13507   5.049   3.872   8.143 -0.6569  1.8975  0.5186
  126OSM   C17F13508   5.241   3.946   8.206  0.2465 -0.3328  0.0260
  126OSM   H17F13509   5.191   3.999   8.290  1.2821 -2.6103  2.1758
  126OSM   H17G13510   5.321   4.007   8.159 -0.5271 -1.0522 -2.4048
  126OSM   C18F13511   5.305   3.819   8.254  0.1262 -0.1378 -0.0113
  126OSM   H18F13512   5.398   3.842   8.310  0.1742  0.3137 -0.2727
  126OSM   H18G13513   5.326   3.751   8.169 -1.2246 -0.2539 -0.2705
  126OSM   H18H13514   5.245   3.772   8.335 -0.8500  0.5532 -0.3249
  127OSM      N13515   3.296   6.814   6.035 -0.0139 -0.0504 -0.5319
  127OSM    C1513516   3.169   6.743   6.015 -0.0856  0.1131 -0.6956
  127OSM   H15A13517   3.137   6.695   6.107  0.8436 -2.4226 -1.6134
  127OSM   H15B13518   3.176   6.666   5.940  1.6854 -0.0677 -0.3892
  127OSM   H15C13519   3.098   6.817   5.983 -1.2590 -1.1259 -1.0357
  127OSM    C1413520   3.360   6.824   5.904  0.4132 -0.4073 -0.1700
  127OSM   H14A13521   3.374   6.724   5.865 -0.0295  0.1575 -1.8528
  127OSM   H14B13522   3.458   6.868   5.905 -0.3209  1.3707 -1.3933
  127OSM   H14C13523   3.299   6.882   5.836 -0.2590  0.2073  0.9208
  127OSM    C1313524   3.264   6.950   6.093 -0.8023  0.1886 -0.1081
  127OSM   H13A13525   3.216   7.010   6.017 -1.9092 -0.4414  0.0677
  127OSM   H13B13526   3.353   7.003   6.123  0.4000 -0.7490 -1.7975
  127OSM   H13C13527   3.193   6.943   6.173  0.4111  2.4273  1.2707
  127OSM    C1213528   3.383   6.738   6.133 -0.3383  0.5719 -0.7937
  127OSM   H12A13529   3.471   6.793   6.164  0.7152 -1.8219  0.6980
  127OSM   H12B13530   3.418   6.642   6.098  0.0382 -0.2319  1.5751
  127OSM    C1113531   3.319   6.702   6.273 -0.0800 -0.1813  0.0792
  127OSM   H11A13532   3.279   6.796   6.315 -0.1853 -0.1601 -0.0672
  127OSM   H11B13533   3.397   6.666   6.344 -0.8619  1.2490  1.7259
  127OSM      P13534   3.243   6.450   6.253  0.0091 -0.0188  0.0770
  127OSM    O1313535   3.131   6.402   6.174 -0.2699  0.1560  0.5475
  127OSM    O1413536   3.380   6.419   6.208  0.0312 -1.3194  0.0802
  127OSM    O1113537   3.237   6.408   6.405  0.4272 -0.9401  0.0928
  127OSM    O1213538   3.217   6.609   6.258  0.3695 -0.2924 -0.2757
  127OSM    C1S13539   3.153   6.487   6.496  0.2705  0.2718 -0.1278
  127OSM    H1S13540   3.049   6.487   6.457 -0.4809  2.6861  1.7055
  127OSM    H1T13541   3.181   6.594   6.497  2.3412 -0.2032  2.0038
  127OSM     NF13542   3.064   6.517   6.727  0.0126 -0.6959  0.6264
  127OSM    HNF13543   3.109   6.600   6.759 -0.1294  0.2018 -1.3793
  127OSM    C2S13544   3.144   6.432   6.642 -1.1931  0.3128 -0.3007
  127OSM    H2S13545   3.102   6.329   6.641  1.1492 -0.8485  3.4689
  127OSM    C3S13546   3.292   6.426   6.691 -0.1281 -0.4615 -0.5201
  127OSM    H3S13547   3.338   6.527   6.696 -2.5024  0.6900 -0.5537
  127OSM     O313548   3.381   6.351   6.605  0.2514 -0.2700 -0.0167
  127OSM    HO313549   3.339   6.356   6.519 -0.0067  0.6543  0.1520
  127OSM    C4S13550   3.291   6.366   6.831 -0.6437  0.2103  0.2908
  127OSM    H4S13551   3.307   6.439   6.912 -0.6043  0.6714 -0.1275
  127OSM    C5S13552   3.285   6.232   6.855  0.0786  0.2842 -0.0319
  127OSM    H5S13553   3.295   6.172   6.764 -1.7692 -1.0451  0.5689
  127OSM    C6S13554   3.294   6.155   6.986 -0.3084  0.2788 -0.9942
  127OSM    H6S13555   3.384   6.090   6.977 -0.1002  0.2858  0.6982
  127OSM    H6T13556   3.208   6.091   7.015  0.4428 -0.0707  0.5701
  127OSM    C7S13557   3.296   6.245   7.112  0.1118  0.1391 -0.1868
  127OSM    H7S13558   3.219   6.325   7.102 -0.6949 -0.3686  1.6640
  127OSM    H7T13559   3.401   6.279   7.106  0.3651 -0.2237  1.6915
  127OSM    C8S13560   3.274   6.182   7.253  0.3956  0.3598 -0.7123
  127OSM    H8S13561   3.340   6.096   7.277 -3.0263 -2.1586  0.4059
  127OSM    H8T13562   3.171   6.140   7.254  0.6443 -0.2722 -0.9852
  127OSM    C9S13563   3.292   6.285   7.363 -0.5179 -0.6117  0.6429
  127OSM    H9S13564   3.206   6.355   7.375  1.7767  2.6232 -0.4581
  127OSM    H9T13565   3.367   6.358   7.325 -1.7071  0.3022 -0.0161
  127OSM   C10S13566   3.333   6.230   7.499  1.1746  0.1998 -0.0009
  127OSM   H10S13567   3.422   6.166   7.483 -0.4421 -2.1749 -0.0346
  127OSM   H10T13568   3.249   6.168   7.536  1.1628  0.4414  0.3763
  127OSM   C11S13569   3.360   6.337   7.610 -0.5373  0.0767  0.8790
  127OSM   H11S13570   3.297   6.427   7.597 -0.9537 -0.3685 -0.3953
  127OSM   H11T13571   3.467   6.366   7.608  0.0150 -1.7536  1.1543
  127OSM   C12S13572   3.336   6.266   7.748  0.1328 -0.0308  0.2738
  127OSM   H12S13573   3.376   6.163   7.756 -0.4189 -0.1450  1.7778
  127OSM   H12T13574   3.227   6.261   7.769  0.0823  2.4475  0.9453
  127OSM   C13S13575   3.376   6.344   7.874  0.1138 -0.3303  0.0030
  127OSM   H13S13576   3.321   6.441   7.879  1.4590  0.5160 -1.0015
  127OSM   H13T13577   3.484   6.369   7.865  0.3018 -0.7925  0.8911
  127OSM   C14S13578   3.355   6.275   8.011  0.0196 -0.8748 -0.6790
  127OSM   H14S13579   3.428   6.193   8.028 -0.3622 -0.8516  1.4513
  127OSM   H14T13580   3.256   6.225   8.016 -0.4148 -0.2253 -2.3170
  127OSM   C15S13581   3.367   6.376   8.128 -0.4732  0.2383 -0.2786
  127OSM   H15S13582   3.298   6.463   8.116 -1.9151 -0.8840 -0.4796
  127OSM   H15T13583   3.473   6.409   8.126  0.1097 -1.5416 -0.8542
  127OSM   C16S13584   3.337   6.317   8.269 -0.1989 -0.3925 -0.2666
  127OSM   H16S13585   3.372   6.213   8.286 -2.6161 -1.7796 -2.8690
  127OSM   H16T13586   3.227   6.301   8.260 -0.4773  0.8722  0.5977
  127OSM   C17S13587   3.371   6.410   8.380 -0.1501  0.5695  0.3308
  127OSM   H17S13588   3.318   6.507   8.374 -2.0322 -0.1058  3.6613
  127OSM   H17T13589   3.479   6.435   8.371  0.1582  0.0491  2.2319
  127OSM   C18S13590   3.326   6.346   8.507 -0.3519  0.3077 -0.3173
  127OSM   H18S13591   3.331   6.411   8.597  2.4602  1.5690 -1.2650
  127OSM   H18T13592   3.392   6.258   8.521 -1.1484  0.0084  2.2899
  127OSM   H18U13593   3.222   6.306   8.503 -1.0244  1.9420 -0.0069
  127OSM    C1F13594   2.923   6.518   6.707  0.2150  0.1456 -0.2014
  127OSM     OF13595   2.876   6.432   6.634 -0.2554 -0.4054 -0.8642
  127OSM    C2F13596   2.845   6.628   6.758 -0.5166 -0.0461  0.1626
  127OSM    H2F13597   2.765   6.660   6.689 -1.3718  2.6829  2.2341
  127OSM    H2G13598   2.918   6.712   6.757 -0.2418 -0.2727 -1.8795
  127OSM    C3F13599   2.796   6.606   6.905  0.4600 -0.1922  0.4983
  127OSM    H3F13600   2.770   6.708   6.941 -0.1840  0.6850 -2.1770
  127OSM    H3G13601   2.880   6.594   6.976 -0.5364  1.1572  1.9732
  127OSM    C4F13602   2.670   6.516   6.914 -0.2785 -0.6358  0.7611
  127OSM    H4F13603   2.697   6.413   6.882  3.2253  0.2802  0.2818
  127OSM    H4G13604   2.605   6.542   6.828  0.6175  1.3002  0.6131
  127OSM    C5F13605   2.604   6.509   7.049  0.0538 -0.9563  0.2962
  127OSM    H5F13606   2.543   6.602   7.045  2.1629  0.5439  1.0873
  127OSM    H5G13607   2.685   6.534   7.120  0.5621  1.2450 -0.9690
  127OSM    C6F13608   2.519   6.387   7.089 -0.0498  0.1282  0.3686
  127OSM    H6F13609   2.472   6.406   7.188  0.2949  1.4965  0.2873
  127OSM    H6G13610   2.579   6.295   7.102  0.2475  0.4965  1.8253
  127OSM    C7F13611   2.396   6.360   6.995 -0.4515  0.0250  0.3263
  127OSM    H7F13612   2.423   6.321   6.894  0.4441 -0.5701  0.7825
  127OSM    H7G13613   2.344   6.454   6.966 -0.5789 -0.0514  0.3056
  127OSM    C8F13614   2.290   6.270   7.063 -0.5483 -0.4100  0.9185
  127OSM    H8F13615   2.204   6.266   6.993  0.0419 -1.9694  0.2375
  127OSM    H8G13616   2.270   6.316   7.163  0.4867  0.1263  0.8882
  127OSM    C9F13617   2.344   6.128   7.063 -0.1721  0.0763  0.3622
  127OSM    H9F13618   2.368   6.071   6.972 -1.5503  0.9462 -0.5951
  127OSM   C10F13619   2.350   6.056   7.179  0.3394  0.8022  0.2554
  127OSM   H10F13620   2.398   5.957   7.173  0.5019  0.8889  0.1230
  127OSM   C11F13621   2.318   6.101   7.319 -0.1072 -0.1898 -0.0814
  127OSM   H11F13622   2.242   6.026   7.353 -0.9306  0.6864  0.0579
  127OSM   H11G13623   2.261   6.197   7.319  0.0313 -0.0904  1.1244
  127OSM   C12F13624   2.435   6.121   7.409  0.0684  0.6391  0.8532
  127OSM   H12F13625   2.485   6.216   7.378 -1.0612  0.9798  0.0335
  127OSM   H12G13626   2.508   6.040   7.385  1.7215  2.6852 -1.5871
  127OSM   C13F13627   2.404   6.132   7.554 -0.6635 -0.0049 -0.1014
  127OSM   H13F13628   2.335   6.048   7.579 -0.8439 -0.4514 -1.9330
  127OSM   H13G13629   2.354   6.231   7.554  2.9580  1.9831 -1.8980
  127OSM   C14F13630   2.530   6.136   7.642  0.7377  0.8798 -0.4627
  127OSM   H14F13631   2.596   6.223   7.624 -1.5646  2.3459 -2.5520
  127OSM   H14G13632   2.589   6.042   7.644 -0.1452  0.2685 -1.4521
  127OSM   C15F13633   2.495   6.160   7.788  0.7225 -0.1365  0.1149
  127OSM   H15F13634   2.419   6.238   7.805  0.5484 -0.4182  0.6451
  127OSM   H15G13635   2.582   6.203   7.842  0.3777 -0.1291  0.6678
  127OSM   C16F13636   2.459   6.031   7.859 -0.2772  0.4640 -0.4369
  127OSM   H16F13637   2.555   5.995   7.902 -0.5130  1.3100  0.8771
  127OSM   H16G13638   2.422   5.951   7.792  0.8076 -0.2875 -0.1575
  127OSM   C17F13639   2.363   6.057   7.980 -0.5888 -0.1780  0.1267
  127OSM   H17F13640   2.312   5.965   8.015 -0.7289 -0.1163  0.0856
  127OSM   H17G13641   2.281   6.119   7.940 -1.2197 -1.0112  0.1133
  127OSM   C18F13642   2.441   6.121   8.092  0.5535 -0.0502 -0.2496
  127OSM   H18F13643   2.366   6.160   8.164 -0.5612 -0.1786 -1.3109
  127OSM   H18G13644   2.502   6.207   8.057  1.2945 -0.2186  0.5973
  127OSM   H18H13645   2.512   6.053   8.144  0.4809 -0.8071 -1.1148
  128OSM      N13646   1.875   4.283   5.821 -1.0438 -0.6721  0.4062
  128OSM    C1513647   1.837   4.255   5.676 -0.9088 -0.1897 -0.0866
  128OSM   H15A13648   1.896   4.173   5.638 -2.6990 -1.4254 -0.3304
  128OSM   H15B13649   1.851   4.338   5.609 -0.4713 -0.9679 -0.9821
  128OSM   H15C13650   1.735   4.224   5.664 -0.8299  0.1769 -2.0363
  128OSM    C1413651   2.021   4.285   5.845 -0.4264 -0.9635  0.0615
  128OSM   H14A13652   2.077   4.212   5.788  1.8930  1.5199 -1.0761
  128OSM   H14B13653   2.044   4.272   5.950  1.7824 -0.6479 -0.3259
  128OSM   H14C13654   2.071   4.376   5.816 -0.5615 -0.2555  1.8686
  128OSM    C1313655   1.816   4.415   5.870 -1.1574 -0.3034 -0.3183
  128OSM   H13A13656   1.868   4.499   5.826 -1.5003  0.0845  0.0032
  128OSM   H13B13657   1.824   4.429   5.977 -0.6824 -1.1601 -0.2352
  128OSM   H13C13658   1.709   4.421   5.854 -0.8418  1.6137 -2.2234
  128OSM    C1213659   1.822   4.166   5.900  0.2989 -0.3253 -0.0942
  128OSM   H12A13660   1.874   4.078   5.865  0.9983  0.1495 -0.2422
  128OSM   H12B13661   1.719   4.142   5.877  0.9042 -0.6855 -2.6848
  128OSM    C1113662   1.826   4.172   6.051  0.4325  0.2851  0.3393
  128OSM   H11A13663   1.798   4.272   6.091  1.3478  1.8050 -2.5774
  128OSM   H11B13664   1.929   4.154   6.089  0.6918 -1.4356 -1.0758
  128OSM      P13665   1.726   3.918   6.063  0.0940 -0.2534 -0.2589
  128OSM    O1313666   1.588   3.874   6.059 -0.1474  0.0389 -0.4025
  128OSM    O1413667   1.807   3.886   5.944 -0.3211  0.2622  0.1908
  128OSM    O1113668   1.804   3.875   6.186  0.2055  0.5790 -0.3320
  128OSM    O1213669   1.727   4.074   6.086 -0.2087 -0.4090  0.1381
  128OSM    C1S13670   1.757   3.911   6.318  0.4633 -0.3685 -0.0155
  128OSM    H1S13671   1.659   3.864   6.339  0.5432  0.1274  1.5507
  128OSM    H1T13672   1.738   4.020   6.325  2.3743 -0.1113  2.6542
  128OSM     NF13673   1.792   3.869   6.567  0.5837  0.2234 -0.7949
  128OSM    HNF13674   1.809   3.948   6.626 -0.4978 -1.2533  1.6737
  128OSM    C2S13675   1.848   3.858   6.436 -0.5899 -0.4427 -0.4254
  128OSM    H2S13676   1.880   3.755   6.412  1.9213 -0.4877  2.4405
  128OSM    C3S13677   1.966   3.961   6.431 -0.2223 -0.2734 -0.5013
  128OSM    H3S13678   1.946   4.062   6.473  1.1275 -0.8472  1.6583
  128OSM     O313679   2.015   3.993   6.299 -0.1178  0.2812 -0.5851
  128OSM    HO313680   1.940   3.974   6.242 -0.1357  1.8222 -1.1307
  128OSM    C4S13681   2.081   3.899   6.517 -0.1390 -0.2667  0.1604
  128OSM    H4S13682   2.093   3.949   6.614  3.8805 -1.7167  0.5853
  128OSM    C5S13683   2.174   3.814   6.480 -0.3430 -0.2255  0.4658
  128OSM    H5S13684   2.158   3.761   6.385 -2.3222  0.3739  0.4223
  128OSM    C6S13685   2.283   3.779   6.575 -0.2077 -1.0078 -0.0030
  128OSM    H6S13686   2.384   3.797   6.532 -0.6542 -1.9503 -1.5359
  128OSM    H6T13687   2.272   3.673   6.608 -1.3998 -0.8398  0.1996
  128OSM    C7S13688   2.289   3.852   6.716 -0.6969  0.3358 -0.0071
  128OSM    H7S13689   2.189   3.835   6.761  0.4649  0.2156  2.6711
  128OSM    H7T13690   2.317   3.958   6.697  1.0276  0.6146  3.4185
  128OSM    C8S13691   2.400   3.815   6.812  0.9109 -0.5642  0.2591
  128OSM    H8S13692   2.493   3.849   6.762 -0.6280 -0.6677 -2.9642
  128OSM    H8T13693   2.404   3.705   6.826  0.4259 -0.6776 -0.4483
  128OSM    C9S13694   2.395   3.896   6.945  0.4952 -0.5522 -0.0901
  128OSM    H9S13695   2.297   3.877   6.994  0.7550 -0.5534  0.4446
  128OSM    H9T13696   2.406   4.004   6.923  3.1573 -0.5945  0.6921
  128OSM   C10S13697   2.500   3.857   7.053  0.5203 -0.6689  0.4495
  128OSM   H10S13698   2.601   3.877   7.011 -0.2143  0.1640 -1.0044
  128OSM   H10T13699   2.498   3.746   7.053  1.5386 -0.7045  1.6868
  128OSM   C11S13700   2.481   3.924   7.182 -0.0466  0.1988 -0.2727
  128OSM   H11S13701   2.375   3.908   7.213  0.1396 -1.2068 -0.2769
  128OSM   H11T13702   2.512   4.030   7.178 -0.0132  0.1623 -1.9169
  128OSM   C12S13703   2.567   3.863   7.294 -0.2219  0.2122  0.3158
  128OSM   H12S13704   2.640   3.939   7.331 -0.1427  0.4169 -0.2512
  128OSM   H12T13705   2.640   3.789   7.256  1.3231  0.8994  1.8059
  128OSM   C13S13706   2.498   3.809   7.414 -0.8117  0.5551 -0.3962
  128OSM   H13S13707   2.431   3.730   7.374 -0.1758 -0.7954  1.0942
  128OSM   H13T13708   2.436   3.892   7.454  0.6699  0.6409  1.8503
  128OSM   C14S13709   2.584   3.745   7.526  0.6773 -0.8547 -0.3142
  128OSM   H14S13710   2.651   3.831   7.548 -2.8481  1.7896  1.0288
  128OSM   H14T13711   2.634   3.654   7.487  0.5700 -1.0280 -0.0468
  128OSM   C15S13712   2.504   3.704   7.651  0.1535  0.3247 -0.0713
  128OSM   H15S13713   2.441   3.620   7.616  0.8282 -0.2746  0.1081
  128OSM   H15T13714   2.447   3.787   7.699  0.9731 -0.6519  2.8043
  128OSM   C16S13715   2.593   3.649   7.761  0.8642  0.1643  0.1398
  128OSM   H16S13716   2.660   3.727   7.803 -1.0698  0.4376  2.9697
  128OSM   H16T13717   2.654   3.571   7.710 -1.9456 -1.8027 -0.4225
  128OSM   C17S13718   2.517   3.590   7.879  0.5006  0.0903 -0.7101
  128OSM   H17S13719   2.583   3.538   7.952  0.0314  0.9033  0.3254
  128OSM   H17T13720   2.446   3.519   7.833 -5.2296  2.2572  3.6261
  128OSM   C18S13721   2.439   3.700   7.960  0.2419  0.7813  0.1484
  128OSM   H18S13722   2.373   3.765   7.899 -2.2779 -0.1259  1.7520
  128OSM   H18T13723   2.509   3.764   8.018  0.7492 -0.7045  1.2678
  128OSM   H18U13724   2.379   3.642   8.034  0.5881  1.5209  1.0315
  128OSM    C1F13725   1.683   3.795   6.599 -0.8203 -0.4832  0.1246
  128OSM     OF13726   1.642   3.709   6.524  0.4970 -0.2153  0.1240
  128OSM    C2F13727   1.618   3.831   6.731 -0.1407 -0.2117  0.1902
  128OSM    H2F13728   1.601   3.940   6.723  1.7884 -0.0297 -3.4899
  128OSM    H2G13729   1.689   3.800   6.811 -1.4282  1.6082  2.1207
  128OSM    C3F13730   1.485   3.748   6.751 -0.4521  0.5931 -0.1207
  128OSM    H3F13731   1.498   3.639   6.742  2.8297  0.6762  2.2160
  128OSM    H3G13732   1.409   3.782   6.676  0.4037  2.0532 -0.3758
  128OSM    C4F13733   1.435   3.783   6.891 -0.2953 -0.4756 -0.6149
  128OSM    H4F13734   1.336   3.736   6.907 -0.6394  0.4211  0.0203
  128OSM    H4G13735   1.425   3.892   6.910  1.2052 -0.5466  0.8921
  128OSM    C5F13736   1.524   3.725   7.007  0.1431 -0.4266 -0.0700
  128OSM    H5F13737   1.627   3.768   7.007  0.3943 -0.9137 -2.3569
  128OSM    H5G13738   1.530   3.615   6.994 -2.0120 -0.6390  0.3640
  128OSM    C6F13739   1.451   3.748   7.132 -0.0646  1.0083 -0.4975
  128OSM    H6F13740   1.347   3.710   7.119  0.5589 -0.5469 -1.2799
  128OSM    H6G13741   1.445   3.855   7.162 -2.9161  0.5616  0.8845
  128OSM    C7F13742   1.527   3.680   7.249  0.4820  0.0983 -0.5009
  128OSM    H7F13743   1.626   3.728   7.260  0.2565  0.9432 -1.9670
  128OSM    H7G13744   1.550   3.579   7.209  0.7543  0.8409 -2.2923
  128OSM    C8F13745   1.442   3.685   7.379  0.3963  0.5764  0.7298
  128OSM    H8F13746   1.485   3.627   7.463 -2.3948 -0.7386  1.3594
  128OSM    H8G13747   1.343   3.639   7.359 -0.4964  3.3943 -2.1380
  128OSM    C9F13748   1.410   3.814   7.451 -0.0136 -0.9060 -0.4425
  128OSM    H9F13749   1.419   3.910   7.397 -1.4350 -0.5704 -0.1187
  128OSM   C10F13750   1.387   3.826   7.584 -0.3613  0.0245 -0.1085
  128OSM   H10F13751   1.356   3.926   7.619 -0.1976  0.1186 -0.2310
  128OSM   C11F13752   1.379   3.723   7.691  0.2626 -0.7282 -0.1784
  128OSM   H11F13753   1.453   3.641   7.677  0.4027 -0.6614  0.1491
  128OSM   H11G13754   1.281   3.672   7.686 -0.3482  0.4967 -1.4149
  128OSM   C12F13755   1.407   3.791   7.826 -0.6013 -0.4191 -0.2133
  128OSM   H12F13756   1.312   3.839   7.859  0.2191  1.3882 -0.3823
  128OSM   H12G13757   1.491   3.863   7.819  0.7926 -2.1042 -1.6705
  128OSM   C13F13758   1.450   3.693   7.935  0.1204  0.1115  0.7427
  128OSM   H13F13759   1.530   3.630   7.891  1.2895  1.2527  1.1725
  128OSM   H13G13760   1.361   3.630   7.957  0.2209  0.4306  2.1590
  128OSM   C14F13761   1.504   3.768   8.063  0.2550 -0.0386  0.1899
  128OSM   H14F13762   1.573   3.853   8.041  1.2099 -0.8978 -0.1827
  128OSM   H14G13763   1.565   3.703   8.129  1.4969  2.4349  1.6587
  128OSM   C15F13764   1.388   3.825   8.147  0.1040 -0.3422  0.7979
  128OSM   H15F13765   1.308   3.748   8.148 -0.4613  0.1661 -1.1663
  128OSM   H15G13766   1.357   3.908   8.080  2.1101 -0.9768 -1.0321
  128OSM   C16F13767   1.427   3.882   8.278  0.7148  0.5910 -0.6134
  128OSM   H16F13768   1.458   3.793   8.336  0.1683  0.2992 -0.7681
  128OSM   H16G13769   1.345   3.928   8.339  1.5907  1.4675 -0.0650
  128OSM   C17F13770   1.540   3.982   8.280 -0.2807  0.3333 -0.2169
  128OSM   H17F13771   1.549   4.033   8.182  1.8899 -1.5105 -1.0693
  128OSM   H17G13772   1.636   3.927   8.289  0.2230  1.2622  0.1691
  128OSM   C18F13773   1.549   4.083   8.392  0.6560  0.5774  0.3484
  128OSM   H18F13774   1.447   4.126   8.409  0.1499 -1.2354  2.2786
  128OSM   H18G13775   1.626   4.161   8.373  1.1498  0.2061  0.8194
  128OSM   H18H13776   1.582   4.038   8.487  0.0904  0.2402  0.3883
  129OSM      N13777   0.056   4.618   6.171  0.2413  0.1341  0.3697
  129OSM    C1513778   0.167   4.559   6.093  0.7636  0.4021  0.2195
  129OSM   H15A13779   0.127   4.510   6.005  1.1514 -0.5080  0.5350
  129OSM   H15B13780   0.233   4.493   6.148  1.3080  0.3555 -0.4736
  129OSM   H15C13781   0.237   4.638   6.070  1.7378 -0.3759  0.4149
  129OSM    C1413782  -0.039   4.503   6.216 -1.2859  0.1515 -0.0278
  129OSM   H14A13783  -0.136   4.542   6.243 -1.0695  0.8751 -0.2662
  129OSM   H14B13784  -0.007   4.456   6.308 -1.2104  0.8886  0.3300
  129OSM   H14C13785  -0.075   4.428   6.148  0.1895  0.5934 -1.3626
  129OSM    C1313786   0.115   4.685   6.288 -0.4951 -0.3477 -0.2901
  129OSM   H13A13787   0.183   4.766   6.267  0.1539 -0.9151 -0.4083
  129OSM   H13B13788   0.165   4.611   6.350 -1.8329 -0.5435  0.5899
  129OSM   H13C13789   0.033   4.730   6.341 -0.1815 -0.4735  0.3134
  129OSM    C1213790  -0.030   4.713   6.086 -0.1628 -0.5012 -0.0998
  129OSM   H12A13791  -0.122   4.735   6.136  0.4958  0.7990  0.5832
  129OSM   H12B13792  -0.075   4.652   6.009  0.0517 -0.5553 -0.1851
  129OSM    C1113793   0.038   4.834   6.023 -0.2172 -0.5918  0.4112
  129OSM   H11A13794  -0.033   4.874   5.947  2.4050  1.1500 -1.3141
  129OSM   H11B13795   0.138   4.810   5.982  0.9222  1.4109  1.8516
  129OSM      P13796   0.138   5.062   6.081 -0.5382  0.3186 -0.2232
  129OSM    O1313797   0.265   5.038   6.009  0.2460  0.4435 -0.7936
  129OSM    O1413798   0.032   5.150   6.021 -0.2156 -0.9068 -0.3113
  129OSM    O1113799   0.166   5.106   6.226 -0.0189 -0.4933  0.2306
  129OSM    O1213800   0.069   4.924   6.122  0.7007 -0.0913  0.3388
  129OSM    C1S13801   0.291   5.051   6.276 -0.1013  0.5999  0.8391
  129OSM    H1S13802   0.377   5.092   6.218  0.0028 -1.4496 -0.5647
  129OSM    H1T13803   0.290   4.942   6.256  0.9117  0.7955 -0.4420
  129OSM     NF13804   0.460   5.056   6.460  0.3192  0.0658  0.2779
  129OSM    HNF13805   0.470   4.958   6.478 -1.6670 -0.8649 -2.9589
  129OSM    C2S13806   0.322   5.082   6.428  0.0548  0.2860  1.1722
  129OSM    H2S13807   0.312   5.193   6.435  0.6416  0.4107  0.1818
  129OSM    C3S13808   0.216   5.014   6.513 -0.5495  0.8044 -0.2087
  129OSM    H3S13809   0.217   4.905   6.491  2.1445  0.8332 -0.5783
  129OSM     O313810   0.082   5.058   6.498  0.1536  0.1721  0.3047
  129OSM    HO313811   0.088   5.119   6.425 -1.2884  0.9848  0.8315
  129OSM    C4S13812   0.248   5.031   6.659  0.6768 -0.2607  0.3179
  129OSM    H4S13813   0.272   4.929   6.692  1.4477 -0.3744 -0.5504
  129OSM    C5S13814   0.243   5.141   6.740  0.3019 -0.2686  0.1954
  129OSM    H5S13815   0.229   5.241   6.694 -0.2412 -0.2863  0.3103
  129OSM    C6S13816   0.296   5.149   6.883 -0.6087 -0.0885 -0.1311
  129OSM    H6S13817   0.365   5.236   6.888  0.6662 -1.0555 -0.2591
  129OSM    H6T13818   0.361   5.059   6.896 -0.6163  0.0364  0.8417
  129OSM    C7S13819   0.194   5.176   7.003  0.4209  0.3649  0.7363
  129OSM    H7S13820   0.105   5.113   6.982  1.1869 -0.6979  0.5509
  129OSM    H7T13821   0.177   5.286   7.003 -2.0033  0.0338  0.0604
  129OSM    C8S13822   0.260   5.123   7.135  0.0057  0.1467  0.1117
  129OSM    H8S13823   0.359   5.173   7.148 -0.2343  1.1821 -1.7715
  129OSM    H8T13824   0.294   5.019   7.116  1.5644  0.9214 -1.5917
  129OSM    C9S13825   0.175   5.121   7.263  0.2524 -0.4632  0.0947
  129OSM    H9S13826   0.082   5.063   7.249 -0.6445  1.1749 -1.1010
  129OSM    H9T13827   0.138   5.225   7.271  0.6452  0.0540 -3.1757
  129OSM   C10S13828   0.260   5.093   7.389 -0.0757  0.0347  0.1724
  129OSM   H10S13829   0.355   5.149   7.381 -0.4004  0.7838  1.3037
  129OSM   H10T13830   0.273   4.983   7.396  2.0806  0.2618  0.1811
  129OSM   C11S13831   0.172   5.129   7.512 -0.2308 -0.7258 -0.0644
  129OSM   H11S13832   0.071   5.085   7.504 -1.3293  1.2025  2.0697
  129OSM   H11T13833   0.158   5.239   7.517  1.2879 -0.4945 -0.2131
  129OSM   C12S13834   0.254   5.085   7.635 -0.3863  0.4468  0.0251
  129OSM   H12S13835   0.359   5.122   7.629 -0.7945  1.6745  0.1894
  129OSM   H12T13836   0.274   4.976   7.629 -0.4647  0.5186 -3.3376
  129OSM   C13S13837   0.194   5.125   7.769  0.5432  0.3318 -0.3109
  129OSM   H13S13838   0.104   5.061   7.780  0.5124  0.1336 -1.5137
  129OSM   H13T13839   0.163   5.232   7.757  1.2804  0.5037 -0.7462
  129OSM   C14S13840   0.290   5.092   7.880 -0.2511 -0.6815  0.0544
  129OSM   H14S13841   0.377   5.159   7.894 -0.5115  0.1015 -1.8703
  129OSM   H14T13842   0.328   4.991   7.852  3.8126  0.8170 -0.4215
  129OSM   C15S13843   0.220   5.083   8.019 -0.2552  0.5649  0.4251
  129OSM   H15S13844   0.154   4.995   8.030 -1.2381  1.4711  2.0916
  129OSM   H15T13845   0.142   5.160   8.038 -0.1669  0.7492  0.0539
  129OSM   C16S13846   0.321   5.098   8.137 -0.9886  0.4830  0.3025
  129OSM   H16S13847   0.318   5.203   8.174  1.4698  0.0317  2.1102
  129OSM   H16T13848   0.420   5.082   8.089 -1.1618  1.6056 -0.4722
  129OSM   C17S13849   0.305   4.998   8.248  0.3467  0.5189 -0.2151
  129OSM   H17S13850   0.311   4.890   8.221 -2.3353 -0.2725  1.9156
  129OSM   H17T13851   0.201   5.006   8.285 -0.5230  0.5570 -2.4650
  129OSM   C18S13852   0.403   5.022   8.361  0.6664 -0.0935  0.6963
  129OSM   H18S13853   0.398   4.947   8.442 -0.5944 -0.2635  0.4789
  129OSM   H18T13854   0.370   5.120   8.400 -1.8262  0.3737 -2.1768
  129OSM   H18U13855   0.509   5.019   8.328  0.0359  0.4878 -1.5680
  129OSM    C1F13856   0.564   5.130   6.441 -0.2317  0.6557 -0.5096
  129OSM     OF13857   0.556   5.240   6.390  0.0162 -0.7131 -0.6188
  129OSM    C2F13858   0.694   5.062   6.468 -0.9008 -0.4636  0.0426
  129OSM    H2F13859   0.751   5.037   6.377  0.0791  0.6556  0.3244
  129OSM    H2G13860   0.683   4.966   6.523  0.4585 -0.6587 -0.0037
  129OSM    C3F13861   0.793   5.157   6.542  0.5720 -0.2567 -0.0447
  129OSM    H3F13862   0.818   5.236   6.469  0.5326  0.5814  0.8252
  129OSM    H3G13863   0.880   5.090   6.561 -0.7536 -1.6390  1.5040
  129OSM    C4F13864   0.741   5.228   6.664 -0.6093  0.3135  0.1259
  129OSM    H4F13865   0.653   5.291   6.642 -0.2347  0.5187 -0.8416
  129OSM    H4G13866   0.828   5.293   6.691  2.4505 -2.7713 -1.4910
  129OSM    C5F13867   0.695   5.127   6.769  0.5849  0.3005 -0.2935
  129OSM    H5F13868   0.618   5.067   6.716 -0.7892  1.4708  0.3006
  129OSM    H5G13869   0.642   5.188   6.845  0.1553 -0.8646  0.3621
  129OSM    C6F13870   0.800   5.033   6.826 -0.0409  0.7075  0.0819
  129OSM    H6F13871   0.890   5.090   6.858  0.5143  0.7705 -1.4951
  129OSM    H6G13872   0.839   4.960   6.752  1.7965  0.5929  1.1034
  129OSM    C7F13873   0.750   4.954   6.950  0.2916 -0.1788  0.6840
  129OSM    H7F13874   0.651   4.909   6.927  1.1123 -1.0064 -1.4900
  129OSM    H7G13875   0.763   5.024   7.035 -0.0017  0.6349  0.0729
  129OSM    C8F13876   0.838   4.831   6.982 -0.6420 -0.1252  0.1773
  129OSM    H8F13877   0.843   4.783   6.883 -0.6667  0.6272 -0.1999
  129OSM    H8G13878   0.778   4.759   7.041 -1.3064  0.6708  0.4960
  129OSM    C9F13879   0.976   4.856   7.029  0.5919 -0.1884  0.0976
  129OSM    H9F13880   1.047   4.859   6.945  0.1999 -1.3650 -0.2886
  129OSM   C10F13881   1.022   4.866   7.152 -0.5476  0.0851  0.5784
  129OSM   H10F13882   1.129   4.890   7.164  0.4958 -4.0171  0.8517
  129OSM   C11F13883   0.936   4.867   7.277  0.2170 -0.9182  0.2900
  129OSM   H11F13884   0.918   4.766   7.322  1.0164 -0.9450  0.5587
  129OSM   H11G13885   0.831   4.896   7.254  0.2656 -1.6824 -1.0436
  129OSM   C12F13886   0.983   4.967   7.386  0.2687  0.6844  0.0944
  129OSM   H12F13887   0.908   4.977   7.468 -0.4578  1.0621 -0.6051
  129OSM   H12G13888   0.992   5.072   7.351  0.5344 -0.0402 -2.1701
  129OSM   C13F13889   1.101   4.908   7.460 -0.0130 -0.2506 -0.8978
  129OSM   H13F13890   1.106   4.798   7.451  1.2068 -0.1466 -1.7074
  129OSM   H13G13891   1.080   4.929   7.567  1.6505 -0.1463 -0.5686
  129OSM   C14F13892   1.236   4.980   7.430  0.0685  0.0773  0.3448
  129OSM   H14F13893   1.213   5.082   7.393  1.6537  1.9137  3.9825
  129OSM   H14G13894   1.286   4.920   7.350  1.9564  2.4599 -0.3804
  129OSM   C15F13895   1.338   4.989   7.552 -0.4713  0.3474  0.4307
  129OSM   H15F13896   1.281   5.053   7.622 -2.5150  0.9975 -1.6946
  129OSM   H15G13897   1.426   5.039   7.506 -0.3529  0.0549  0.3360
  129OSM   C16F13898   1.357   4.846   7.604 -0.3873 -1.0901 -0.2790
  129OSM   H16F13899   1.356   4.772   7.521  1.3806 -0.0618 -1.2742
  129OSM   H16G13900   1.270   4.821   7.669  0.4495 -1.5100  0.7141
  129OSM   C17F13901   1.485   4.828   7.684 -0.1014 -0.0494  0.2002
  129OSM   H17F13902   1.575   4.842   7.620  0.5337  0.1729  1.1199
  129OSM   H17G13903   1.498   4.727   7.727  3.3705  0.6111  1.0487
  129OSM   C18F13904   1.512   4.923   7.796  0.4750 -0.1699  0.0643
  129OSM   H18F13905   1.588   4.994   7.758 -0.5616  0.4579 -0.9178
  129OSM   H18G13906   1.544   4.881   7.894  0.7386 -1.0947 -0.4006
  129OSM   H18H13907   1.420   4.973   7.833  0.7603 -0.7101  1.5577
  130OSM      N13908   0.695   3.884   5.832  0.4099  0.1420 -0.1106
  130OSM    C1513909   0.596   3.938   5.734  0.9551 -0.4104 -0.6783
  130OSM   H15A13910   0.500   3.891   5.747 -0.2702  2.5292  2.6265
  130OSM   H15B13911   0.626   3.938   5.631 -0.0797 -0.7759 -0.9886
  130OSM   H15C13912   0.571   4.041   5.755  1.1238 -0.5536  0.3190
  130OSM    C1413913   0.838   3.926   5.803  0.0528 -0.2252 -0.3257
  130OSM   H14A13914   0.857   4.032   5.790  1.6828 -0.4363  0.0350
  130OSM   H14B13915   0.861   3.881   5.708 -0.0700  0.6217 -0.7673
  130OSM   H14C13916   0.906   3.882   5.875  0.4367  0.3143 -0.3473
  130OSM    C1313917   0.651   3.924   5.973  0.0196  0.1329 -0.2261
  130OSM   H13A13918   0.546   3.902   5.987  0.0928  0.3788  0.8442
  130OSM   H13B13919   0.652   4.031   5.982 -0.2424  0.1056  0.1766
  130OSM   H13C13920   0.717   3.872   6.042 -0.3275 -1.9062 -1.3546
  130OSM    C1213921   0.696   3.733   5.813  0.2945 -0.3116  0.0272
  130OSM   H12A13922   0.705   3.709   5.708  0.5043 -0.3400  0.0513
  130OSM   H12B13923   0.598   3.690   5.831  0.4533 -0.5571  0.3015
  130OSM    C1113924   0.795   3.642   5.890  0.4156 -0.3028 -0.2027
  130OSM   H11A13925   0.893   3.676   5.851 -0.2856  1.4513 -0.5515
  130OSM   H11B13926   0.773   3.541   5.850  2.8060  0.4155 -3.7106
  130OSM      P13927   0.897   3.611   6.134 -0.0239 -0.2523 -0.2606
  130OSM    O1313928   0.934   3.478   6.102 -0.2042  0.2820  0.3270
  130OSM    O1413929   1.009   3.712   6.125 -0.3823 -0.1046 -0.7040
  130OSM    O1113930   0.826   3.622   6.278  0.0426 -0.5195 -0.4075
  130OSM    O1213931   0.780   3.661   6.034  0.2820  0.3099  0.0010
  130OSM    C1S13932   0.748   3.497   6.314 -0.7328  0.3167  0.9225
  130OSM    H1S13933   0.802   3.405   6.282  1.5474  1.0739  2.3174
  130OSM    H1T13934   0.648   3.495   6.265  0.5989 -3.0869 -2.1544
  130OSM     NF13935   0.677   3.359   6.510 -0.2383 -0.4353  0.2185
  130OSM    HNF13936   0.592   3.360   6.562  0.3883 -0.0202  1.2660
  130OSM    C2S13937   0.738   3.485   6.468  0.1633  0.1813  0.1822
  130OSM    H2S13938   0.843   3.482   6.505 -0.0684  0.3761  0.8701
  130OSM    C3S13939   0.664   3.609   6.526 -1.3647 -0.3511 -0.0255
  130OSM    H3S13940   0.562   3.595   6.486 -1.2299  2.0422 -1.4042
  130OSM     O313941   0.694   3.734   6.462 -0.1278  0.3588 -0.2359
  130OSM    HO313942   0.749   3.703   6.390 -1.9827 -2.4949 -0.5856
  130OSM    C4S13943   0.664   3.614   6.679  1.1295 -0.2802  0.4858
  130OSM    H4S13944   0.579   3.564   6.727  0.4804  0.2730 -0.0711
  130OSM    C5S13945   0.760   3.666   6.757 -0.2883  0.4201 -0.5032
  130OSM    H5S13946   0.843   3.717   6.707 -0.4027 -0.5898 -1.7722
  130OSM    C6S13947   0.758   3.670   6.908  0.3150 -0.8512 -0.2625
  130OSM    H6S13948   0.745   3.773   6.947 -2.1188 -0.4934 -1.8075
  130OSM    H6T13949   0.855   3.626   6.939  0.6127  0.6800  1.0907
  130OSM    C7S13950   0.652   3.589   6.978  0.6887 -0.3834 -0.9029
  130OSM    H7S13951   0.660   3.480   6.958 -2.7711 -0.7396 -0.8656
  130OSM    H7T13952   0.548   3.616   6.952  0.3020  0.1236  0.9817
  130OSM    C8S13953   0.662   3.605   7.132  0.4331 -0.5444 -0.0384
  130OSM    H8S13954   0.768   3.583   7.158  0.7120 -0.4306 -1.0107
  130OSM    H8T13955   0.600   3.526   7.180 -0.2150  0.7358  1.3106
  130OSM    C9S13956   0.626   3.742   7.199 -0.6027 -0.0919  0.7405
  130OSM    H9S13957   0.530   3.774   7.154  0.2238 -0.1507 -1.1969
  130OSM    H9T13958   0.708   3.809   7.165 -1.5094  0.4004 -0.5657
  130OSM   C10S13959   0.619   3.738   7.348  0.3479  0.3555  0.1710
  130OSM   H10S13960   0.537   3.667   7.373  0.5986 -0.2393 -0.6473
  130OSM   H10T13961   0.589   3.837   7.388  1.6879  0.6752  0.4497
  130OSM   C11S13962   0.743   3.688   7.422 -0.2456 -0.4676 -0.2872
  130OSM   H11S13963   0.836   3.734   7.384  0.0334 -0.1067  0.7894
  130OSM   H11T13964   0.756   3.579   7.401  0.1405 -0.6940  1.0040
  130OSM   C12S13965   0.738   3.706   7.574 -0.3858  0.4138 -0.4790
  130OSM   H12S13966   0.722   3.812   7.601 -1.2917  0.7665 -2.2875
  130OSM   H12T13967   0.840   3.675   7.604 -1.1716 -2.0715 -0.1245
  130OSM   C13S13968   0.634   3.622   7.654  0.4339 -0.7065  0.1572
  130OSM   H13S13969   0.658   3.514   7.659 -3.4999 -1.6821  1.8571
  130OSM   H13T13970   0.542   3.639   7.594  1.2611  1.9602 -0.5051
  130OSM   C14S13971   0.606   3.652   7.799 -0.0238 -0.2041 -0.4523
  130OSM   H14S13972   0.695   3.614   7.853  0.4820 -1.4599 -2.1064
  130OSM   H14T13973   0.520   3.594   7.838 -0.4237  0.8485  0.3034
  130OSM   C15S13974   0.581   3.805   7.836 -0.8642 -0.3414 -0.0047
  130OSM   H15S13975   0.527   3.864   7.759  0.8523  0.0265 -0.9750
  130OSM   H15T13976   0.678   3.856   7.854 -0.2032 -1.3823 -0.4788
  130OSM   C16S13977   0.489   3.824   7.961  0.2715  0.0001 -0.0721
  130OSM   H16S13978   0.509   3.929   7.991  2.3101  0.5946 -3.0744
  130OSM   H16T13979   0.531   3.771   8.049  3.3506  2.7945  0.3129
  130OSM   C17S13980   0.344   3.799   7.935  0.2212  0.1843  0.4798
  130OSM   H17S13981   0.335   3.693   7.903  2.0416  0.4475 -1.1236
  130OSM   H17T13982   0.312   3.859   7.847  0.7436 -1.9080 -1.2098
  130OSM   C18S13983   0.255   3.807   8.053  0.3196  1.0283 -0.6364
  130OSM   H18S13984   0.286   3.732   8.130  1.1491  1.9100 -0.0848
  130OSM   H18T13985   0.148   3.795   8.027  0.7010 -0.5999 -1.6186
  130OSM   H18U13986   0.270   3.903   8.107 -0.9713 -0.0978  1.9517
  130OSM    C1F13987   0.745   3.246   6.485 -0.1532 -0.3760  0.3261
  130OSM     OF13988   0.856   3.250   6.438 -0.1805  0.3062  0.4036
  130OSM    C2F13989   0.687   3.119   6.530 -0.2574  0.6273 -0.6441
  130OSM    H2F13990   0.751   3.033   6.501  0.9628  0.5466  1.9846
  130OSM    H2G13991   0.588   3.098   6.483 -1.3475 -0.4481  1.8769
  130OSM    C3F13992   0.676   3.132   6.685 -0.4223 -0.9212  1.0026
  130OSM    H3F13993   0.632   3.040   6.729  2.3976 -2.4133  0.9114
  130OSM    H3G13994   0.605   3.213   6.709 -0.4268 -0.4456 -0.5028
  130OSM    C4F13995   0.806   3.141   6.763  0.9611 -0.2547  0.2152
  130OSM    H4F13996   0.852   3.242   6.756 -0.0523  0.1417 -1.2468
  130OSM    H4G13997   0.868   3.072   6.702 -0.6668 -0.4000 -1.3759
  130OSM    C5F13998   0.798   3.094   6.907 -0.7098 -0.3792  0.5596
  130OSM    H5F13999   0.899   3.065   6.943 -0.8305 -4.2428 -1.7304
  130OSM    H5G14000   0.754   2.993   6.924 -0.8554 -0.1195  1.8418
  130OSM    C6F14001   0.739   3.206   6.997  0.1612  0.1233  0.2509
  130OSM    H6F14002   0.633   3.228   6.974  0.2172 -0.8856 -1.1218
  130OSM    H6G14003   0.797   3.299   6.981 -1.7308  1.6342  1.7623
  130OSM    C7F14004   0.749   3.162   7.146 -0.8699 -0.0018  0.3707
  130OSM    H7F14005   0.858   3.169   7.166 -0.8532  0.6365  0.0963
  130OSM    H7G14006   0.712   3.059   7.165 -1.5570  0.2931  0.6606
  130OSM    C8F14007   0.689   3.261   7.252 -0.5792  0.0568 -0.4703
  130OSM    H8F14008   0.579   3.273   7.239 -0.6346 -2.0017 -2.8028
  130OSM    H8G14009   0.730   3.363   7.241 -3.9195  1.4447 -1.1047
  130OSM    C9F14010   0.713   3.206   7.395 -0.4914 -0.1304  0.4104
  130OSM    H9F14011   0.818   3.182   7.415 -0.3593  0.2614  0.1815
  130OSM   C10F14012   0.616   3.186   7.484 -0.1420 -0.5115 -0.0918
  130OSM   H10F14013   0.647   3.146   7.582  0.5845  0.5901  0.1381
  130OSM   C11F14014   0.470   3.215   7.469 -0.5303 -0.3687 -0.3548
  130OSM   H11F14015   0.433   3.140   7.395  0.3547 -0.9787 -0.1925
  130OSM   H11G14016   0.446   3.319   7.438  3.1366  1.3726  1.9973
  130OSM   C12F14017   0.390   3.192   7.603  0.2593  0.1886  0.6485
  130OSM   H12F14018   0.293   3.243   7.590  0.3062 -0.1757 -1.3255
  130OSM   H12G14019   0.444   3.260   7.672  1.5123  1.9988 -1.9677
  130OSM   C13F14020   0.391   3.053   7.664  0.9659 -0.1090 -0.5201
  130OSM   H13F14021   0.492   3.026   7.700  0.5106 -1.5011 -0.2078
  130OSM   H13G14022   0.351   2.980   7.591 -1.0164  2.7422 -2.5307
  130OSM   C14F14023   0.284   3.054   7.779 -0.2458 -0.5939 -0.2995
  130OSM   H14F14024   0.188   3.051   7.723 -1.4210  1.5386  1.4242
  130OSM   H14G14025   0.297   3.144   7.843  1.0244 -1.0300  0.1001
  130OSM   C15F14026   0.304   2.930   7.869 -0.2659 -0.1831  0.5165
  130OSM   H15F14027   0.408   2.907   7.902 -0.7648 -0.2740  2.0655
  130OSM   H15G14028   0.269   2.847   7.804 -0.0136 -0.6372  0.9571
  130OSM   C16F14029   0.224   2.951   7.997  0.3878 -0.3076  0.7231
  130OSM   H16F14030   0.121   2.982   7.968  1.2711  0.4941 -1.8622
  130OSM   H16G14031   0.255   3.045   8.048  2.3427  0.7584 -2.1669
  130OSM   C17F14032   0.224   2.831   8.089  0.4839 -0.3890 -0.1396
  130OSM   H17F14033   0.326   2.793   8.109 -0.7974 -3.1406  1.9442
  130OSM   H17G14034   0.160   2.762   8.029 -2.6610  0.3806  2.0567
  130OSM   C18F14035   0.135   2.845   8.220  0.6347  0.3263  0.3788
  130OSM   H18F14036   0.125   2.952   8.249  1.4639  0.9325 -1.4524
  130OSM   H18G14037   0.169   2.793   8.313 -2.3720 -0.9618  0.8720
  130OSM   H18H14038   0.031   2.815   8.194  0.3628 -0.4418  2.1571
  131OSM      N14039   2.546   6.769   6.265  0.1517  0.8452  0.2563
  131OSM    C1514040   2.423   6.692   6.320 -0.3383  0.3478 -0.0172
  131OSM   H15A14041   2.467   6.597   6.347 -2.9174 -1.2347 -1.0373
  131OSM   H15B14042   2.347   6.689   6.244 -0.8476  2.1779  0.3565
  131OSM   H15C14043   2.381   6.729   6.413 -1.4346 -0.5259 -0.1398
  131OSM    C1414044   2.646   6.799   6.380 -0.4151  0.1215 -0.5812
  131OSM   H14A14045   2.608   6.891   6.423  0.4471 -0.8799  2.5840
  131OSM   H14B14046   2.742   6.819   6.334 -0.6909 -1.4471 -1.9287
  131OSM   H14C14047   2.654   6.715   6.447  0.2479  0.7644  0.1590
  131OSM    C1314048   2.625   6.683   6.172  0.4346 -0.4328 -0.0347
  131OSM   H13A14049   2.650   6.589   6.220 -3.7444 -1.9584 -0.4140
  131OSM   H13B14050   2.711   6.738   6.137 -0.1102  0.3626 -0.1257
  131OSM   H13C14051   2.563   6.648   6.090 -1.5937 -0.4193  1.4098
  131OSM    C1214052   2.515   6.905   6.193  0.0777  0.0108 -0.5947
  131OSM   H12A14053   2.451   6.879   6.110  4.0808 -2.4880 -3.2626
  131OSM   H12B14054   2.602   6.945   6.142  0.1308 -0.4130 -0.8409
  131OSM    C1114055   2.465   7.020   6.264  0.3000 -0.5295  0.8389
  131OSM   H11A14056   2.380   7.001   6.333 -2.4228 -0.6056 -2.3207
  131OSM   H11B14057   2.418   7.086   6.189 -2.2261 -0.8215  2.0743
  131OSM      P14058   2.681   7.167   6.246  0.0967  0.0109 -0.1412
  131OSM    O1314059   2.766   7.065   6.178 -0.4777 -0.0456  0.3460
  131OSM    O1414060   2.616   7.271   6.168  0.0900 -0.1959 -0.3088
  131OSM    O1114061   2.764   7.234   6.358  0.2975  0.9727 -0.9627
  131OSM    O1214062   2.577   7.083   6.333  0.3731  0.3259 -0.2480
  131OSM    C1S14063   2.712   7.334   6.437  0.6349  0.8657  0.2786
  131OSM    H1S14064   2.603   7.318   6.451  0.9464 -0.6808  1.1394
  131OSM    H1T14065   2.726   7.439   6.402  0.1374  0.4122 -1.3198
  131OSM     NF14066   2.698   7.410   6.677  0.2974 -0.2860 -0.4550
  131OSM    HNF14067   2.728   7.503   6.700 -1.1184 -0.5686  3.2034
  131OSM    C2S14068   2.763   7.325   6.579  0.1770 -0.1540 -0.2562
  131OSM    H2S14069   2.747   7.222   6.617  3.4056 -0.0156  1.9677
  131OSM    C3S14070   2.923   7.342   6.588  0.2336  0.1517 -0.6734
  131OSM    H3S14071   2.944   7.445   6.554  0.4295  0.0832 -0.7627
  131OSM     O314072   2.990   7.262   6.488  0.4670  0.1562 -0.0192
  131OSM    HO314073   2.921   7.228   6.431  0.2849  1.6364 -0.7357
  131OSM    C4S14074   2.972   7.315   6.727  1.2147 -0.5268 -0.0236
  131OSM    H4S14075   2.981   7.404   6.791 -0.6304  0.6458 -1.2648
  131OSM    C5S14076   3.004   7.196   6.784  0.2420  0.0484  0.8502
  131OSM    H5S14077   2.995   7.102   6.728 -2.0860  0.2310  0.8134
  131OSM    C6S14078   3.037   7.197   6.930 -0.2703  0.0842  0.3492
  131OSM    H6S14079   3.108   7.282   6.941  0.9540 -0.7155 -0.9043
  131OSM    H6T14080   3.094   7.103   6.947  0.9734  0.4410 -1.4741
  131OSM    C7S14081   2.911   7.227   7.019 -0.3777  0.1354  0.3191
  131OSM    H7S14082   2.854   7.131   7.020 -1.5915  0.8225 -0.3384
  131OSM    H7T14083   2.845   7.305   6.976 -1.8864 -1.0378  0.4032
  131OSM    C8S14084   2.951   7.270   7.162 -0.1788  0.0668 -0.4894
  131OSM    H8S14085   2.868   7.330   7.206  1.3895  1.4288  0.7961
  131OSM    H8T14086   3.036   7.342   7.170  0.5837 -0.9130  0.4390
  131OSM    C9S14087   2.971   7.147   7.255  0.7617  0.0732 -0.2258
  131OSM    H9S14088   3.054   7.082   7.220  0.1910  0.6201 -2.8157
  131OSM    H9T14089   2.879   7.085   7.256  0.5411  0.4092  0.2381
  131OSM   C10S14090   3.003   7.168   7.412 -0.2670 -0.0046  0.0108
  131OSM   H10S14091   3.077   7.248   7.435 -1.5771  0.5712  2.6444
  131OSM   H10T14092   3.046   7.073   7.449 -0.6576 -0.3574 -0.4332
  131OSM   C11S14093   2.867   7.203   7.494 -0.3901  1.0696  0.2913
  131OSM   H11S14094   2.801   7.122   7.458 -0.1366  0.6678  0.7238
  131OSM   H11T14095   2.820   7.294   7.451 -0.5846  0.7498 -0.1775
  131OSM   C12S14096   2.887   7.196   7.649 -0.0902  0.2741  0.1066
  131OSM   H12S14097   2.912   7.300   7.679 -0.8409  0.2789  0.7643
  131OSM   H12T14098   2.964   7.123   7.678 -1.5377 -0.9601  0.9905
  131OSM   C13S14099   2.754   7.163   7.725  0.3616 -0.4658 -0.4940
  131OSM   H13S14100   2.694   7.087   7.669 -0.9766  1.1145 -1.3146
  131OSM   H13T14101   2.683   7.248   7.716 -0.8327 -1.3483  0.1918
  131OSM   C14S14102   2.795   7.138   7.870  0.4532 -0.7864 -0.1186
  131OSM   H14S14103   2.866   7.216   7.907  0.3309 -1.1804  1.0127
  131OSM   H14T14104   2.855   7.047   7.846 -0.6297 -1.0212 -2.1512
  131OSM   C15S14105   2.693   7.090   7.973  0.2262 -0.2153  0.0549
  131OSM   H15S14106   2.633   7.176   8.009 -0.2753 -0.8870  0.8774
  131OSM   H15T14107   2.746   7.063   8.067 -1.5458 -1.7314  0.6708
  131OSM   C16S14108   2.605   6.979   7.916  0.3107 -0.5409  0.6422
  131OSM   H16S14109   2.664   6.931   7.835  1.1658  1.0347  0.2950
  131OSM   H16T14110   2.516   7.037   7.883 -0.1172 -0.8593  1.2247
  131OSM   C17S14111   2.575   6.864   8.022 -0.2553  0.3453  0.4245
  131OSM   H17S14112   2.668   6.858   8.084  1.6840 -4.2690 -2.3757
  131OSM   H17T14113   2.571   6.769   7.965  0.8620 -0.9360  2.3517
  131OSM   C18S14114   2.454   6.871   8.110 -0.2585  0.6253 -0.2602
  131OSM   H18S14115   2.456   6.779   8.172 -0.7273 -0.1233 -1.3220
  131OSM   H18T14116   2.373   6.870   8.034  1.1740  0.3254 -1.8585
  131OSM   H18U14117   2.444   6.959   8.176  2.1150  1.6019 -1.0797
  131OSM    C1F14118   2.570   7.382   6.716  0.2047 -0.5214  0.4291
  131OSM     OF14119   2.519   7.278   6.684 -0.3663  0.6743  0.0760
  131OSM    C2F14120   2.491   7.500   6.780  0.2635 -0.7195  0.0148
  131OSM    H2F14121   2.385   7.498   6.746  0.1692 -0.6246  0.3091
  131OSM    H2G14122   2.531   7.597   6.744  0.9125 -0.6026  1.0344
  131OSM    C3F14123   2.476   7.499   6.930  0.8028  0.3556  0.0454
  131OSM    H3F14124   2.390   7.433   6.955  0.7360  0.4458  0.0527
  131OSM    H3G14125   2.448   7.604   6.953  3.9239  1.7621 -1.8727
  131OSM    C4F14126   2.597   7.449   6.995 -0.2579  0.3324 -0.0381
  131OSM    H4F14127   2.682   7.504   6.950 -0.0543  0.1913  0.1695
  131OSM    H4G14128   2.603   7.338   6.986 -2.6825  0.1503  0.1047
  131OSM    C5F14129   2.598   7.476   7.151  0.6054 -0.5301 -0.4599
  131OSM    H5F14130   2.581   7.585   7.167  2.3566  0.1280 -2.5660
  131OSM    H5G14131   2.702   7.465   7.188  0.4011  1.8484  1.0407
  131OSM    C6F14132   2.504   7.398   7.244 -0.4906 -0.2414  0.2544
  131OSM    H6F14133   2.534   7.292   7.224 -0.6253  0.2633 -3.2186
  131OSM    H6G14134   2.402   7.425   7.209 -0.0991  1.0397  0.0642
  131OSM    C7F14135   2.504   7.431   7.398  0.1521 -0.6988  0.1235
  131OSM    H7F14136   2.476   7.536   7.420 -0.2510 -0.9179  0.6834
  131OSM    H7G14137   2.608   7.402   7.426  0.0616 -1.2186 -0.0646
  131OSM    C8F14138   2.399   7.340   7.468 -0.0893 -0.6152 -0.1104
  131OSM    H8F14139   2.318   7.332   7.392 -1.0732 -3.8378  1.0910
  131OSM    H8G14140   2.363   7.391   7.559 -1.2354 -1.3276 -0.1418
  131OSM    C9F14141   2.455   7.203   7.489  0.2427  0.0904 -0.1753
  131OSM    H9F14142   2.550   7.191   7.435  0.0639  2.1722 -1.0411
  131OSM   C10F14143   2.391   7.111   7.561  0.2124 -0.1377  0.2658
  131OSM   H10F14144   2.423   7.006   7.574 -0.5993 -0.7590 -2.2250
  131OSM   C11F14145   2.260   7.133   7.634 -0.0802  0.0054  0.5378
  131OSM   H11F14146   2.189   7.047   7.630 -1.0332  0.7880  0.3224
  131OSM   H11G14147   2.205   7.212   7.579  1.6027 -0.7751 -2.4967
  131OSM   C12F14148   2.268   7.157   7.786 -0.3233  0.1929 -0.6720
  131OSM   H12F14149   2.326   7.079   7.840  1.5776  1.3263 -0.9551
  131OSM   H12G14150   2.162   7.165   7.818 -0.7585 -1.6353 -1.5105
  131OSM   C13F14151   2.329   7.294   7.817 -0.0440 -0.1803 -0.2894
  131OSM   H13F14152   2.275   7.367   7.753 -0.5407 -2.3096 -2.4206
  131OSM   H13G14153   2.438   7.301   7.796 -0.1319 -0.1797 -0.7436
  131OSM   C14F14154   2.308   7.344   7.963  0.0686  0.8433  0.4427
  131OSM   H14F14155   2.202   7.375   7.975 -0.4524 -0.7837  0.3631
  131OSM   H14G14156   2.372   7.433   7.977 -0.0614  1.4225 -2.1614
  131OSM   C15F14157   2.339   7.237   8.069  0.1936  0.0756  0.7094
  131OSM   H15F14158   2.432   7.185   8.038 -0.0006 -0.8505  1.6342
  131OSM   H15G14159   2.247   7.176   8.081 -1.1380  1.9255  0.2229
  131OSM   C16F14160   2.361   7.305   8.198 -0.0039  0.5524  0.5874
  131OSM   H16F14161   2.261   7.341   8.231  0.0023  2.9896 -1.7207
  131OSM   H16G14162   2.435   7.388   8.189 -0.7061  1.0835 -0.5355
  131OSM   C17F14163   2.420   7.208   8.297 -0.2719  0.4705 -0.4767
  131OSM   H17F14164   2.514   7.171   8.253 -0.2848 -0.4670  0.2436
  131OSM   H17G14165   2.365   7.112   8.312  2.2689 -0.8371  1.0879
  131OSM   C18F14166   2.436   7.269   8.434 -0.2649  0.4931  0.0913
  131OSM   H18F14167   2.357   7.345   8.453 -0.7024  0.2554 -0.7394
  131OSM   H18G14168   2.532   7.323   8.448 -0.3495  1.0779 -1.4565
  131OSM   H18H14169   2.436   7.185   8.507 -3.4165  0.9810  0.8037
  132OSM      N14170   3.589   3.331   6.424  0.2067 -0.5612  0.1770
  132OSM    C1514171   3.553   3.476   6.444  0.1126 -0.6014  0.1104
  132OSM   H15A14172   3.540   3.526   6.349  1.8364 -0.4311 -0.0744
  132OSM   H15B14173   3.621   3.535   6.503  0.6284 -0.1736 -0.8873
  132OSM   H15C14174   3.464   3.488   6.503  0.9108  2.3922  0.8457
  132OSM    C1414175   3.579   3.255   6.557  0.2311 -0.2798 -0.2531
  132OSM   H14A14176   3.653   3.285   6.629  1.9685  0.4249 -2.2528
  132OSM   H14B14177   3.598   3.149   6.548 -1.1109 -0.5780  0.1764
  132OSM   H14C14178   3.484   3.267   6.608 -0.1388 -0.9843 -0.7477
  132OSM    C1314179   3.492   3.281   6.325 -0.2053  0.4813 -0.0568
  132OSM   H13A14180   3.389   3.308   6.347  0.0593 -0.4613  2.7968
  132OSM   H13B14181   3.500   3.174   6.314  0.7671  0.6799 -1.4282
  132OSM   H13C14182   3.501   3.319   6.225 -0.4315  1.9008  0.4438
  132OSM    C1214183   3.733   3.318   6.372 -0.5723 -0.4998 -0.2236
  132OSM   H12A14184   3.755   3.213   6.378  3.8683  0.3112  1.8750
  132OSM   H12B14185   3.810   3.366   6.432 -1.2993 -1.2806  1.3980
  132OSM    C1114186   3.753   3.365   6.230 -0.4361 -0.3118 -0.7573
  132OSM   H11A14187   3.705   3.462   6.202 -0.0077 -0.1512 -0.9447
  132OSM   H11B14188   3.709   3.283   6.169 -1.0225 -0.4112 -0.2101
  132OSM      P14189   3.974   3.504   6.236 -0.2147 -0.2954 -0.1259
  132OSM    O1314190   4.118   3.479   6.222 -0.1605 -0.7966 -0.6679
  132OSM    O1414191   3.913   3.613   6.151 -0.2075  0.5788 -0.3941
  132OSM    O1114192   3.948   3.531   6.387  0.0604 -0.2759 -0.2835
  132OSM    O1214193   3.895   3.368   6.215 -0.3773  0.0676 -0.7355
  132OSM    C1S14194   3.886   3.654   6.427  0.3605 -0.4958 -0.6224
  132OSM    H1S14195   3.775   3.646   6.425  0.2746  0.5380 -0.6810
  132OSM    H1T14196   3.926   3.733   6.359  3.2343 -1.4019 -0.1030
  132OSM     NF14197   3.830   3.788   6.627  0.5508  0.0327  0.1169
  132OSM    HNF14198   3.843   3.886   6.630 -0.9323  0.2328  2.6446
  132OSM    C2S14199   3.931   3.707   6.567  0.8689  0.2510 -0.8389
  132OSM    H2S14200   3.935   3.626   6.643  0.2577  2.5383  1.8012
  132OSM    C3S14201   4.071   3.774   6.556 -0.5160  0.2294  0.5865
  132OSM    H3S14202   4.064   3.860   6.487  2.0062  0.3399  0.3465
  132OSM     O314203   4.171   3.694   6.495 -0.5771  0.3816  0.1268
  132OSM    HO314204   4.120   3.616   6.470 -2.1470  1.1349  0.8691
  132OSM    C4S14205   4.113   3.817   6.696  0.0740 -0.5718  0.2258
  132OSM    H4S14206   4.094   3.924   6.714  0.9893 -0.0142 -1.8060
  132OSM    C5S14207   4.184   3.746   6.787  0.0581  0.2854  0.7750
  132OSM    H5S14208   4.213   3.644   6.759 -0.5915  0.5424 -1.0027
  132OSM    C6S14209   4.224   3.798   6.922  0.0511 -0.1892  0.3226
  132OSM    H6S14210   4.174   3.891   6.958  1.0038 -0.0597  1.3843
  132OSM    H6T14211   4.334   3.806   6.936  0.1715 -0.8541 -0.2092
  132OSM    C7S14212   4.172   3.685   7.016  0.2455 -0.0072 -0.4926
  132OSM    H7S14213   4.230   3.592   6.999  0.9310 -0.2351  2.5629
  132OSM    H7T14214   4.063   3.677   6.995  0.7044 -2.2930 -2.3943
  132OSM    C8S14215   4.191   3.704   7.168 -0.1927  0.2935  0.1090
  132OSM    H8S14216   4.138   3.801   7.179  0.0272  0.4172  0.0676
  132OSM    H8T14217   4.301   3.704   7.181 -0.3941 -0.4871  2.1728
  132OSM    C9S14218   4.135   3.595   7.258  0.0164  0.1748 -0.4610
  132OSM    H9S14219   4.207   3.600   7.343 -0.5112  0.8473 -0.0430
  132OSM    H9T14220   4.143   3.497   7.208 -0.4787 -0.0595 -0.0902
  132OSM   C10S14221   3.992   3.614   7.305  0.5357  0.2543 -0.0422
  132OSM   H10S14222   3.935   3.519   7.290 -0.2814  0.4192  1.8415
  132OSM   H10T14223   3.936   3.691   7.249 -2.5846 -0.9426  1.1887
  132OSM   C11S14224   3.985   3.665   7.444 -0.1424  0.2559  1.1424
  132OSM   H11S14225   4.021   3.770   7.453 -0.5909  0.2445  3.6332
  132OSM   H11T14226   4.054   3.610   7.512 -1.3398 -2.3955  0.3173
  132OSM   C12S14227   3.843   3.661   7.493  1.2881 -0.4410 -0.3101
  132OSM   H12S14228   3.803   3.557   7.488 -2.3085  0.7212  0.7098
  132OSM   H12T14229   3.773   3.727   7.437  2.9415  1.0675 -0.6802
  132OSM   C13S14230   3.821   3.696   7.642  0.3705  0.0646 -0.2789
  132OSM   H13S14231   3.712   3.689   7.661  0.3659 -3.2031 -0.9604
  132OSM   H13T14232   3.852   3.802   7.656  0.1591 -0.0553  1.2295
  132OSM   C14S14233   3.880   3.597   7.744 -0.1769  0.3657  0.2356
  132OSM   H14S14234   3.990   3.611   7.737  0.0271 -1.1414 -0.0252
  132OSM   H14T14235   3.866   3.489   7.720  3.8696 -0.7304  1.8778
  132OSM   C15S14236   3.825   3.625   7.887  0.6570  0.0749  0.4535
  132OSM   H15S14237   3.716   3.606   7.888  0.3563  1.7160  1.8920
  132OSM   H15T14238   3.823   3.735   7.901  0.8118  0.2678 -0.8445
  132OSM   C16S14239   3.909   3.558   7.999 -0.2444  0.2341  0.2849
  132OSM   H16S14240   3.888   3.599   8.100  0.9627  0.2161  0.5561
  132OSM   H16T14241   4.014   3.581   7.971  0.2498 -1.3800  0.7487
  132OSM   C17S14242   3.898   3.403   8.001 -0.1657 -0.3249 -0.5074
  132OSM   H17S14243   3.919   3.370   7.897  0.4845  0.3416 -0.6005
  132OSM   H17T14244   3.789   3.380   8.001 -0.8912  2.6272 -1.5895
  132OSM   C18S14245   3.979   3.334   8.110  0.8943  0.7556  0.5524
  132OSM   H18S14246   3.952   3.227   8.116 -2.0286  1.4698  1.4626
  132OSM   H18T14247   3.941   3.369   8.209 -0.4973  0.9960 -0.0445
  132OSM   H18U14248   4.089   3.349   8.100  0.7654  0.8228 -0.9508
  132OSM    C1F14249   3.720   3.731   6.684 -0.1708  0.9161 -0.5463
  132OSM     OF14250   3.695   3.613   6.675  0.1992  0.1725 -0.4570
  132OSM    C2F14251   3.637   3.829   6.761 -0.4517 -0.3350 -0.3408
  132OSM    H2F14252   3.539   3.786   6.788 -0.7834 -0.2073 -1.3088
  132OSM    H2G14253   3.616   3.918   6.698 -1.1910  0.3215  0.7951
  132OSM    C3F14254   3.705   3.886   6.885 -0.1958  0.0378  0.4972
  132OSM    H3F14255   3.628   3.951   6.931 -1.4929  0.6051 -2.2815
  132OSM    H3G14256   3.795   3.947   6.861 -0.0229  0.2749  1.6458
  132OSM    C4F14257   3.745   3.777   6.978  0.0576 -0.3767 -0.2094
  132OSM    H4F14258   3.802   3.802   7.070  0.4318 -2.2430  0.1141
  132OSM    H4G14259   3.817   3.711   6.924  0.3964 -0.2863  0.1265
  132OSM    C5F14260   3.623   3.694   7.030 -0.0326 -0.8188 -0.8070
  132OSM    H5F14261   3.664   3.612   7.093  0.0977 -0.7558 -0.8093
  132OSM    H5G14262   3.565   3.637   6.954 -1.2561 -0.3100 -0.2875
  132OSM    C6F14263   3.522   3.782   7.104  0.3049  1.1194 -0.5042
  132OSM    H6F14264   3.444   3.717   7.149 -0.2542  1.3769 -1.1039
  132OSM    H6G14265   3.463   3.847   7.037 -1.4702 -1.6010 -1.7388
  132OSM    C7F14266   3.588   3.868   7.214 -0.0599 -0.6638  0.5329
  132OSM    H7F14267   3.665   3.929   7.162  0.9623 -1.0182  1.5782
  132OSM    H7G14268   3.656   3.810   7.280  0.9801  0.7833  0.7849
  132OSM    C8F14269   3.502   3.968   7.287 -0.1585 -0.0306 -0.5235
  132OSM    H8F14270   3.446   4.030   7.214  1.6452  3.3379  0.7279
  132OSM    H8G14271   3.565   4.039   7.344 -0.4188 -1.3424  1.5030
  132OSM    C9F14272   3.408   3.898   7.383  0.0160 -0.2269  0.1036
  132OSM    H9F14273   3.334   3.839   7.326  0.5698  0.8206 -1.7831
  132OSM   C10F14274   3.408   3.893   7.521  0.2989  0.4999 -0.1259
  132OSM   H10F14275   3.337   3.836   7.583  1.1706 -0.3357  0.1372
  132OSM   C11F14276   3.508   3.965   7.610 -0.3335 -0.3738  0.1171
  132OSM   H11F14277   3.526   4.067   7.569  0.3811 -0.1333  0.9789
  132OSM   H11G14278   3.608   3.917   7.601 -1.2683 -2.0780 -2.1013
  132OSM   C12F14279   3.474   3.975   7.762 -0.3202 -1.1268  0.2786
  132OSM   H12F14280   3.379   4.030   7.780  1.1310  0.8463  2.5632
  132OSM   H12G14281   3.548   4.042   7.811  1.1314 -1.8112 -0.9055
  132OSM   C13F14282   3.462   3.838   7.839  0.4269 -0.6940  0.3587
  132OSM   H13F14283   3.539   3.775   7.790  0.4786  0.3165 -0.9094
  132OSM   H13G14284   3.363   3.789   7.832 -0.2304  0.6145  0.1025
  132OSM   C14F14285   3.503   3.853   7.985 -0.5372 -0.3676 -0.5394
  132OSM   H14F14286   3.463   3.946   8.031  2.4780  1.3593 -1.1388
  132OSM   H14G14287   3.612   3.870   7.989 -0.6322  0.5843 -1.5003
  132OSM   C15F14288   3.467   3.733   8.065  0.1221 -0.1818 -0.3883
  132OSM   H15F14289   3.536   3.658   8.020  0.4454  0.4542 -0.9672
  132OSM   H15G14290   3.362   3.703   8.046  0.3710 -0.0380 -2.1897
  132OSM   C16F14291   3.497   3.753   8.212 -0.6887 -0.2807 -0.0251
  132OSM   H16F14292   3.457   3.850   8.247 -0.9301 -0.5131  0.3583
  132OSM   H16G14293   3.606   3.773   8.221 -0.2370 -1.5003 -2.1530
  132OSM   C17F14294   3.466   3.632   8.299 -0.1153  0.2118 -0.1137
  132OSM   H17F14295   3.538   3.547   8.293 -1.8942 -1.4414  0.9498
  132OSM   H17G14296   3.369   3.588   8.266  0.6618 -0.1548 -2.0768
  132OSM   C18F14297   3.463   3.658   8.445 -0.3952  0.1929  0.7453
  132OSM   H18F14298   3.382   3.732   8.462 -1.3364 -0.1507 -1.9097
  132OSM   H18G14299   3.563   3.691   8.482 -0.2692  1.9884 -1.0207
  132OSM   H18H14300   3.431   3.571   8.507  0.9638 -2.1558 -1.6585
  133SAPE     N14301   5.940   0.070  10.684 -0.1957 -0.1115 -0.2935
  133SAPE   HN114302   5.856   0.131  10.679  0.1503  0.2902 -1.5210
  133SAPE   HN214303   5.902  -0.026  10.671  0.7133 -1.0446  3.0379
  133SAPE   HN314304   5.981   0.083  10.779  0.0434 -1.7153 -0.1421
  133SAPE   C1214305   6.036   0.108  10.577 -0.3205 -0.0871  0.4807
  133SAPE  H12A14306   6.064   0.214  10.593 -0.9932  0.5103 -1.8774
  133SAPE  H12B14307   5.974   0.107  10.485 -0.6824  1.1784  0.6986
  133SAPE   C1114308   6.153   0.009  10.569  0.2375  0.4108  0.2591
  133SAPE  H11A14309   6.210   0.015  10.473 -0.2922  1.6063 -0.0033
  133SAPE  H11B14310   6.115  -0.095  10.579  1.2190  0.0356  0.1579
  133SAPE     P14311   6.355   0.141  10.683 -0.0300  0.3826 -0.2887
  133SAPE   O1314312   6.290   0.271  10.692  0.1489 -0.5356 -0.5158
  133SAPE   O1414313   6.457   0.100  10.780  0.2259  0.6759 -0.4186
  133SAPE   O1214314   6.239   0.031  10.682 -0.0190 -0.1809 -0.0653
  133SAPE   O1114315   6.418   0.115  10.543  0.3089 -0.1640 -0.2401
  133SAPE    C114316   6.468   0.237  10.479  0.8313  0.8034 -0.6362
  133SAPE    HA14317   6.444   0.335  10.526  1.5026 -0.1179  1.7891
  133SAPE    HB14318   6.579   0.237  10.479  0.8738  1.2037  1.2453
  133SAPE    C214319   6.426   0.227  10.333 -0.0482  0.2522 -0.5367
  133SAPE    HS14320   6.480   0.300  10.269  2.4377 -0.9994  0.0334
  133SAPE   O2114321   6.281   0.233  10.318  0.2474  0.8677  0.2829
  133SAPE   C2114322   6.234   0.358  10.347 -0.1358  0.9983 -0.8105
  133SAPE   O2214323   6.295   0.452  10.389 -0.4191  0.1767 -0.8145
  133SAPE   C2214324   6.092   0.371  10.301 -0.4163  0.8566  0.7123
  133SAPE   H2R14325   6.034   0.294  10.358  1.3533 -0.6126  0.6206
  133SAPE   H2S14326   6.052   0.469  10.336  0.8297  1.3918  0.6653
  133SAPE    C314327   6.477   0.101  10.267  0.3051  0.1802  0.0147
  133SAPE    HX14328   6.406   0.019  10.293 -1.3320  0.2733 -3.5689
  133SAPE    HY14329   6.573   0.071  10.314 -0.4710  0.2830  1.7241
  133SAPE   O3114330   6.491   0.116  10.123 -0.0045  0.2866  0.4292
  133SAPE   C3114331   6.553   0.022  10.058  0.3908 -0.2198  0.1092
  133SAPE   O3214332   6.601  -0.080  10.105  0.2792  0.2240  0.1091
  133SAPE   C3214333   6.556   0.064   9.913 -0.1197 -0.5884 -0.1925
  133SAPE   H2X14334   6.646   0.126   9.893 -1.4811  0.9791 -1.8567
  133SAPE   H2Y14335   6.461   0.122   9.901  0.4541  1.6229  4.1098
  133SAPE   C2314336   6.079   0.366  10.144 -0.1485  0.4664  0.4415
  133SAPE   H3R14337   6.102   0.265  10.104 -4.2063 -0.4874  0.1742
  133SAPE   H3S14338   6.151   0.442  10.107  0.7352 -0.6480 -0.2173
  133SAPE   C2414339   5.934   0.403  10.083 -0.0364 -0.4122  0.1832
  133SAPE   H4R14340   5.941   0.386   9.973  1.1885 -0.1950  0.2111
  133SAPE   H4S14341   5.928   0.513  10.094 -0.9514 -0.3892 -0.4190
  133SAPE   C2514342   5.815   0.333  10.147 -0.4556  0.7690 -0.3472
  133SAPE   H5R14343   5.799   0.371  10.249 -1.9612 -0.3414 -0.1368
  133SAPE   C2614344   5.743   0.232  10.099  0.2056 -0.1440 -0.1256
  133SAPE   H6R14345   5.658   0.193  10.157 -1.1741  2.7178 -0.0289
  133SAPE   C2714346   5.755   0.166   9.965  0.4349 -0.3536  0.4864
  133SAPE   H7R14347   5.796   0.063   9.974 -0.4455 -0.6849  0.7600
  133SAPE   H7S14348   5.835   0.209   9.900 -0.1912  0.7116  0.3894
  133SAPE   C2814349   5.615   0.166   9.894 -0.2394 -0.9660 -0.0773
  133SAPE   H8R14350   5.523   0.180   9.953  0.6968 -1.5226  1.5697
  133SAPE   C2914351   5.600   0.160   9.760 -0.6070 -0.2415 -0.5594
  133SAPE   H9R14352   5.496   0.151   9.726 -0.4509 -0.1411 -1.0624
  133SAPE  C21014353   5.711   0.159   9.657  0.0345  0.5950 -1.1090
  133SAPE  H10R14354   5.708   0.064   9.599  0.1894 -0.1758  0.1012
  133SAPE  H10S14355   5.815   0.162   9.697  0.3079 -1.0184 -1.6009
  133SAPE  C21114356   5.695   0.276   9.574  0.0371 -0.3189  0.3145
  133SAPE  H11R14357   5.622   0.351   9.609 -1.5403 -1.8785  0.4757
  133SAPE  C21214358   5.722   0.275   9.442 -0.0212 -0.9578  0.6948
  133SAPE  H12R14359   5.698   0.368   9.388  0.2420  1.0548  3.7376
  133SAPE  C21314360   5.783   0.164   9.360  0.5415 -0.3688 -0.4309
  133SAPE  H13R14361   5.823   0.089   9.432  3.0463 -0.7680 -2.1316
  133SAPE  H13S14362   5.868   0.196   9.296 -1.6280  1.6270 -2.5151
  133SAPE  C21414363   5.690   0.092   9.265  0.6642  0.1416 -0.0996
  133SAPE  H14R14364   5.593   0.058   9.304  0.8712  0.2590  0.5250
  133SAPE  C21514365   5.703   0.083   9.131  0.1224  0.8603  0.4078
  133SAPE  H15R14366   5.619   0.042   9.074  0.1965  1.3518 -0.0694
  133SAPE  C21614367   5.813   0.140   9.044  0.3686 -0.1750 -0.0952
  133SAPE  H16R14368   5.833   0.065   8.965  0.6233  0.1068 -0.3026
  133SAPE  H16S14369   5.909   0.156   9.099  0.5570  1.1398 -0.7619
  133SAPE  C21714370   5.774   0.268   8.968 -0.3185  0.2499  0.2636
  133SAPE  H17R14371   5.865   0.324   8.938 -1.4486  1.7058 -0.6049
  133SAPE  H17S14372   5.717   0.344   9.027  0.3343  0.5382  0.5291
  133SAPE  C21814373   5.687   0.238   8.846  0.4350  0.4909 -0.5204
  133SAPE  H18R14374   5.588   0.195   8.871  0.8988 -1.8504 -2.3859
  133SAPE  H18S14375   5.744   0.156   8.797 -2.0848 -1.7385  0.0439
  133SAPE  C21914376   5.674   0.359   8.750 -0.1766 -0.3105 -0.0332
  133SAPE  H19R14377   5.607   0.338   8.664  0.1748  3.6935 -1.4845
  133SAPE  H19S14378   5.772   0.388   8.707 -0.3905  0.8503  0.2208
  133SAPE  C22014379   5.638   0.496   8.814  0.7905 -0.3923 -0.4964
  133SAPE  H20R14380   5.544   0.479   8.871  0.7195 -1.6445 -0.9584
  133SAPE  H20S14381   5.627   0.576   8.739  1.5388 -0.6723 -0.9167
  133SAPE  H20T14382   5.713   0.528   8.889  1.9208  1.1833 -2.2211
  133SAPE   C3314383   6.554  -0.056   9.816 -0.0584  0.7300  0.1122
  133SAPE   H3X14384   6.454  -0.103   9.804  0.4518 -0.5106  0.5892
  133SAPE   H3Y14385   6.621  -0.135   9.855  0.5971 -0.8572 -3.8055
  133SAPE   C3414386   6.597  -0.021   9.669 -0.1468 -0.1603 -0.0886
  133SAPE   H4X14387   6.643  -0.109   9.620  1.1542 -0.2050  1.1582
  133SAPE   H4Y14388   6.685   0.046   9.681 -0.0301 -0.1667 -0.8532
  133SAPE   C3514389   6.491   0.042   9.576 -0.6537 -0.2888  0.0060
  133SAPE   H5X14390   6.416   0.107   9.626  1.1242  0.5257  1.7734
  133SAPE   H5Y14391   6.424  -0.043   9.550  1.1350 -2.1251  1.0661
  133SAPE   C3614392   6.549   0.114   9.450 -0.0800 -0.0952  0.4229
  133SAPE   H6X14393   6.612   0.198   9.485 -0.3377  1.0761 -1.7735
  133SAPE   H6Y14394   6.465   0.157   9.392 -0.1358  1.3467  1.5333
  133SAPE   C3714395   6.638   0.023   9.356 -0.2124 -0.0158 -0.5948
  133SAPE   H7X14396   6.667  -0.071   9.409  0.2553 -0.1699 -1.1180
  133SAPE   H7Y14397   6.730   0.075   9.322 -0.5000  0.8282 -0.0932
  133SAPE   C3814398   6.564  -0.030   9.231  0.5971 -0.3209 -0.3382
  133SAPE   H8X14399   6.516   0.060   9.188  0.0371 -0.7333 -0.5923
  133SAPE   H8Y14400   6.481  -0.098   9.262 -0.1360  1.3846  1.6783
  133SAPE   C3914401   6.655  -0.085   9.127  0.0353  0.5314  0.3359
  133SAPE   H9X14402   6.717  -0.166   9.170 -2.0672 -2.0370 -1.1808
  133SAPE   H9Y14403   6.730  -0.009   9.095  2.1187 -1.2281  0.7754
  133SAPE  C31014404   6.581  -0.115   8.998 -0.1866 -0.5573 -0.4762
  133SAPE  H10X14405   6.551  -0.017   8.957  1.4673 -0.4159 -1.4493
  133SAPE  H10Y14406   6.494  -0.179   9.023 -0.1364 -0.7601 -0.8053
  133SAPE  C31114407   6.678  -0.188   8.903  0.3003 -0.6121  0.4038
  133SAPE  H11X14408   6.682  -0.298   8.924 -1.0101 -0.9393 -0.9193
  133SAPE  H11Y14409   6.780  -0.145   8.905 -0.2869  0.8055  0.7431
  133SAPE  C31214410   6.622  -0.159   8.765  1.1809  0.4766  0.0442
  133SAPE  H12X14411   6.630  -0.050   8.745 -0.7326  0.8972  1.2831
  133SAPE  H12Y14412   6.514  -0.186   8.765  1.3109 -0.0794 -0.7064
  133SAPE  C31314413   6.689  -0.238   8.653  0.6527  0.1304 -0.5871
  133SAPE  H13X14414   6.709  -0.335   8.703  0.9605  0.6952  0.4209
  133SAPE  H13Y14415   6.788  -0.189   8.641  0.4521  0.7102  0.0563
  133SAPE  C31414416   6.608  -0.260   8.524 -0.3292 -0.3957 -0.3762
  133SAPE  H14X14417   6.571  -0.161   8.488  0.0981  0.4389  1.3875
  133SAPE  H14Y14418   6.523  -0.324   8.556  1.8403 -1.7415  3.3258
  133SAPE  C31514419   6.685  -0.339   8.414  0.0417 -0.4210 -0.0613
  133SAPE  H15X14420   6.630  -0.339   8.318  0.6684  1.3935 -0.4627
  133SAPE  H15Y14421   6.690  -0.449   8.433 -0.3018 -0.6174 -1.0496
  133SAPE  C31614422   6.826  -0.283   8.389 -1.0160  0.7479 -0.0161
  133SAPE  H16X14423   6.870  -0.328   8.297 -0.9543 -1.1950  0.9112
  133SAPE  H16Y14424   6.896  -0.319   8.467  2.4262  0.1801 -3.0581
  133SAPE  C31714425   6.832  -0.133   8.374  0.2150 -0.3157 -0.6055
  133SAPE  H17X14426   6.774  -0.080   8.452 -0.4999  1.5630 -2.3098
  133SAPE  H17Y14427   6.779  -0.109   8.279 -0.2742 -0.4097 -0.3567
  133SAPE  C31814428   6.977  -0.078   8.360  0.0950  0.1162 -0.2585
  133SAPE  H18X14429   7.014  -0.124   8.266  1.6503 -0.5335  0.6270
  133SAPE  H18Y14430   7.030  -0.123   8.447 -1.8392 -0.6884  0.5687
  133SAPE  H18Z14431   6.979   0.033   8.358 -2.7375  0.2168 -0.9869
  134SAPE     N14432   1.758   2.695  10.730 -0.2335 -0.1009  1.0424
  134SAPE   HN114433   1.820   2.702  10.646 -1.4607  0.0250  0.1136
  134SAPE   HN214434   1.758   2.793  10.765 -1.7127 -0.9062  3.4803
  134SAPE   HN314435   1.807   2.640  10.803  1.5524 -0.1956 -0.1335
  134SAPE   C1214436   1.626   2.642  10.686 -0.3001 -0.2511  0.6965
  134SAPE  H12A14437   1.572   2.731  10.648  0.3242  0.3388  1.1470
  134SAPE  H12B14438   1.590   2.598  10.782 -0.6231  1.0047  1.1731
  134SAPE   C1114439   1.634   2.533  10.570 -0.1358 -0.1621  0.1195
  134SAPE  H11A14440   1.689   2.575  10.483  1.3800  0.0960  1.1532
  134SAPE  H11B14441   1.531   2.504  10.540 -0.2276 -0.8512  1.0565
  134SAPE     P14442   1.675   2.269  10.569  0.2960 -0.4526 -0.4767
  134SAPE   O1314443   1.769   2.171  10.622 -0.2249  0.3749 -0.2927
  134SAPE   O1414444   1.534   2.240  10.603 -0.0414  0.2568 -0.1949
  134SAPE   O1214445   1.717   2.418  10.611  0.3553  0.1478  0.2322
  134SAPE   O1114446   1.694   2.266  10.414  0.7252  0.3378 -0.2977
  134SAPE    C114447   1.812   2.320  10.354 -1.0478 -0.4508 -0.3756
  134SAPE    HA14448   1.811   2.431  10.342  0.0865 -0.6486 -2.8877
  134SAPE    HB14449   1.901   2.298  10.417 -0.5407  1.6754 -0.2711
  134SAPE    C214450   1.838   2.261  10.221 -0.0585 -0.2778  0.4932
  134SAPE    HS14451   1.934   2.293  10.174 -0.2021 -1.3865 -0.5980
  134SAPE   O2114452   1.728   2.297  10.129 -0.5035  0.6661 -0.7769
  134SAPE   C2114453   1.740   2.418  10.071  0.8640  0.6851 -0.3496
  134SAPE   O2214454   1.828   2.497  10.084  0.0131  0.6115  0.2383
  134SAPE   C2214455   1.633   2.436   9.970  0.4660  0.6385  1.1572
  134SAPE   H2R14456   1.541   2.446  10.031 -1.4442 -1.3380 -1.2249
  134SAPE   H2S14457   1.644   2.536   9.921  2.2268  0.3415  0.8834
  134SAPE    C314458   1.850   2.104  10.230 -0.1608  0.1711 -0.6776
  134SAPE    HX14459   1.776   2.063  10.302 -0.0402 -0.0981 -0.7075
  134SAPE    HY14460   1.943   2.087  10.288 -0.2470  0.0971 -0.5611
  134SAPE   O3114461   1.860   2.042  10.097  0.0804 -0.5219 -0.0458
  134SAPE   C3114462   1.744   2.013  10.036 -0.6114  0.0757 -0.6681
  134SAPE   O3214463   1.635   2.027  10.087 -0.1195 -0.1674  0.0410
  134SAPE   C3214464   1.784   1.952   9.897 -0.1810  0.0177  0.4263
  134SAPE   H2X14465   1.685   1.952   9.846 -1.9405 -0.1323  3.5750
  134SAPE   H2Y14466   1.821   1.850   9.922 -2.0172 -0.4241  1.5297
  134SAPE   C2314467   1.624   2.326   9.865 -0.2291 -0.0165  1.1502
  134SAPE   H3R14468   1.522   2.285   9.853 -1.0900  2.3065 -0.0996
  134SAPE   H3S14469   1.689   2.240   9.893  1.6485  0.1322 -2.2070
  134SAPE   C2414470   1.675   2.373   9.725  0.1692  0.2917  0.5908
  134SAPE   H4R14471   1.675   2.279   9.666  0.6895  1.6960 -1.8114
  134SAPE   H4S14472   1.779   2.409   9.739  0.0115 -0.1318  3.2267
  134SAPE   C2514473   1.574   2.460   9.642  0.0592 -0.3427 -0.8586
  134SAPE   H5R14474   1.486   2.492   9.700  1.3389  1.5095  0.2193
  134SAPE   C2614475   1.603   2.521   9.528 -0.2195  0.0633  0.1031
  134SAPE   H6R14476   1.533   2.589   9.479  0.6253  0.6056 -0.3722
  134SAPE   C2714477   1.733   2.501   9.451 -0.4338 -0.3749 -0.0133
  134SAPE   H7R14478   1.817   2.465   9.515  1.3000  0.0974 -1.9213
  134SAPE   H7S14479   1.776   2.598   9.419 -1.1694 -0.1001 -0.1677
  134SAPE   C2814480   1.709   2.410   9.332  0.2381  0.3097  0.2736
  134SAPE   H8R14481   1.721   2.302   9.348 -0.6238  0.4614  2.1925
  134SAPE   C2914482   1.672   2.438   9.204 -0.3152 -0.6643  0.2458
  134SAPE   H9R14483   1.625   2.356   9.147  2.2745  0.0995 -3.3904
  134SAPE  C21014484   1.656   2.571   9.136  0.1359 -0.8493 -0.4403
  134SAPE  H10R14485   1.719   2.651   9.181 -1.9864  1.1471 -0.8506
  134SAPE  H10S14486   1.555   2.615   9.144 -0.0460 -1.3753  0.3042
  134SAPE  C21114487   1.695   2.559   8.985 -0.2438  0.2971  0.1631
  134SAPE  H11R14488   1.645   2.481   8.925 -0.9796  1.0180 -0.1839
  134SAPE  C21214489   1.781   2.635   8.921 -0.5840  0.1061 -0.0500
  134SAPE  H12R14490   1.785   2.613   8.813 -4.9337  1.5641 -0.7207
  134SAPE  C21314491   1.851   2.762   8.967 -0.3075 -1.1559  0.2250
  134SAPE  H13R14492   1.849   2.774   9.078 -0.7092  0.5874  0.0603
  134SAPE  H13S14493   1.804   2.849   8.917 -1.6856 -1.5662  0.7612
  134SAPE  C21414494   1.997   2.740   8.935 -0.1939 -0.2050 -0.0356
  134SAPE  H14R14495   2.041   2.641   8.958  0.2953  0.2684  1.1691
  134SAPE  C21514496   2.085   2.837   8.890  0.9632  0.1227  0.1013
  134SAPE  H15R14497   2.187   2.810   8.858  1.3331  1.4971  0.0413
  134SAPE  C21614498   2.047   2.979   8.872  0.7118  0.5146  0.6854
  134SAPE  H16R14499   2.064   3.024   8.972 -1.7990 -0.1361  1.4811
  134SAPE  H16S14500   1.941   2.985   8.842  1.2605  0.8896 -1.3134
  134SAPE  C21714501   2.132   3.053   8.755  0.6438  0.0887  0.2159
  134SAPE  H17R14502   2.118   2.998   8.659 -0.3224 -0.7090  0.8083
  134SAPE  H17S14503   2.239   3.053   8.787  0.5811 -1.0763  0.4557
  134SAPE  C21814504   2.079   3.191   8.762  0.4405 -0.9944 -0.0722
  134SAPE  H18R14505   2.081   3.231   8.865  0.3319 -1.4691  0.1183
  134SAPE  H18S14506   1.973   3.187   8.731  0.7558 -0.3980 -1.3079
  134SAPE  C21914507   2.148   3.297   8.677 -0.2422 -0.3186  0.0447
  134SAPE  H19R14508   2.157   3.260   8.573  2.8841 -0.8794  0.4071
  134SAPE  H19S14509   2.256   3.298   8.703  0.4667  1.5022 -2.5714
  134SAPE  C22014510   2.092   3.436   8.682  0.1882 -0.1623 -0.2482
  134SAPE  H20R14511   1.995   3.437   8.627 -0.1309 -0.0506  0.3082
  134SAPE  H20S14512   2.155   3.508   8.626  0.2205 -2.0206 -2.7911
  134SAPE  H20T14513   2.068   3.467   8.786 -2.4647 -0.9671 -0.5296
  134SAPE   C3314514   1.893   2.023   9.813 -0.0465 -0.6802  0.5731
  134SAPE   H3X14515   1.983   1.993   9.870  0.7300  0.1146 -0.2277
  134SAPE   H3Y14516   1.878   2.132   9.824 -0.4879 -0.6010 -0.6016
  134SAPE   C3414517   1.901   1.978   9.663  0.6630 -0.0027  0.1841
  134SAPE   H4X14518   1.807   1.922   9.642  0.2030  0.5481  0.7537
  134SAPE   H4Y14519   1.982   1.903   9.648 -0.1813 -0.9256  0.1566
  134SAPE   C3514520   1.914   2.091   9.559 -0.1283 -0.2176  0.2685
  134SAPE   H5X14521   1.998   2.162   9.576 -0.8885  0.5510  0.9377
  134SAPE   H5Y14522   1.826   2.158   9.572  2.1425  2.7271  1.7925
  134SAPE   C3614523   1.927   2.044   9.412  0.3022 -0.0786 -0.2133
  134SAPE   H6X14524   2.026   1.997   9.393 -0.4091 -1.3846 -0.8095
  134SAPE   H6Y14525   1.914   2.140   9.357 -3.3181 -0.1664  0.2480
  134SAPE   C3714526   1.814   1.950   9.374  0.3000 -0.1451 -0.2475
  134SAPE   H7X14527   1.712   1.973   9.414  0.2791 -2.2977  1.1098
  134SAPE   H7Y14528   1.833   1.849   9.416 -1.9770 -1.1540 -1.4614
  134SAPE   C3814529   1.820   1.928   9.226  0.1516 -0.0834  0.2693
  134SAPE   H8X14530   1.758   1.843   9.190 -0.0901  1.1458 -2.3974
  134SAPE   H8Y14531   1.927   1.900   9.215 -0.3241 -1.7780 -0.3068
  134SAPE   C3914532   1.782   2.050   9.140 -0.2478 -0.7765  0.3988
  134SAPE   H9X14533   1.839   2.139   9.172 -0.6756 -0.6626  0.8438
  134SAPE   H9Y14534   1.676   2.081   9.140 -0.1730 -0.3516 -1.7738
  134SAPE  C31014535   1.832   2.032   8.997  0.3430 -0.6526  0.9435
  134SAPE  H10X14536   1.767   1.963   8.939 -1.3287  1.2113  0.4904
  134SAPE  H10Y14537   1.937   1.995   9.000  1.3592  1.2095 -3.5747
  134SAPE  C31114538   1.845   2.166   8.920 -0.5008 -0.4099  0.2610
  134SAPE  H11X14539   1.885   2.250   8.981 -3.3386 -0.5279  2.5209
  134SAPE  H11Y14540   1.741   2.202   8.903 -0.1413  0.3330 -0.4628
  134SAPE  C31214541   1.928   2.147   8.796  0.2819 -0.6574 -0.2637
  134SAPE  H12X14542   1.878   2.083   8.720  0.5584 -0.5587 -0.5318
  134SAPE  H12Y14543   2.017   2.091   8.832  2.1123  2.2444  0.0734
  134SAPE  C31314544   1.977   2.270   8.722 -0.2807  0.3739 -0.0049
  134SAPE  H13X14545   2.001   2.346   8.799  1.1239  1.1829 -1.1874
  134SAPE  H13Y14546   1.897   2.305   8.654  1.0104  1.5621 -0.9754
  134SAPE  C31414547   2.109   2.257   8.645  0.2372  0.4151 -0.3998
  134SAPE  H14X14548   2.186   2.237   8.722 -2.8472 -1.0879  2.5203
  134SAPE  H14Y14549   2.118   2.354   8.591 -0.5750  1.1221  0.7185
  134SAPE  C31514550   2.089   2.148   8.534 -0.3197 -0.8303 -0.7533
  134SAPE  H15X14551   1.987   2.168   8.495  1.0758  2.5216 -3.2277
  134SAPE  H15Y14552   2.097   2.042   8.565  0.7217 -0.3534  0.7258
  134SAPE  C31614553   2.184   2.181   8.410 -0.5790  0.4115  0.2910
  134SAPE  H16X14554   2.288   2.157   8.440 -1.1110  1.2506  3.0856
  134SAPE  H16Y14555   2.185   2.292   8.409 -0.9979  0.4215 -1.5237
  134SAPE  C31714556   2.135   2.149   8.269  0.5146  0.4718 -0.2099
  134SAPE  H17X14557   2.028   2.179   8.266  0.8427  1.9862  1.2509
  134SAPE  H17Y14558   2.134   2.041   8.247 -3.8295  0.4200 -0.4775
  134SAPE  C31814559   2.210   2.214   8.155 -0.0004 -0.0050  0.6088
  134SAPE  H18X14560   2.234   2.320   8.182 -2.6351  1.0298 -0.8241
  134SAPE  H18Y14561   2.150   2.223   8.063  0.4008 -0.0360  0.3397
  134SAPE  H18Z14562   2.306   2.168   8.123 -0.2473  1.6059 -2.9205
  135SAPE     N14563   6.696   0.925  10.818  0.0678  0.4106  0.1129
  135SAPE   HN114564   6.704   0.910  10.715 -1.7486 -0.9708  0.1211
  135SAPE   HN214565   6.681   0.832  10.862 -0.0188 -0.3399 -1.4183
  135SAPE   HN314566   6.610   0.979  10.836  0.5942  1.1736  0.4030
  135SAPE   C1214567   6.810   0.992  10.881  0.0987 -0.1418 -0.5778
  135SAPE  H12A14568   6.786   1.000  10.989 -3.3613  1.6845 -1.3351
  135SAPE  H12B14569   6.820   1.095  10.841 -0.6542  0.5063  0.8124
  135SAPE   C1114570   6.941   0.914  10.862 -0.1275 -0.1582  0.8598
  135SAPE  H11A14571   6.924   0.809  10.892 -0.8725  0.1752  1.6366
  135SAPE  H11B14572   7.019   0.948  10.934  1.0681  0.1564 -0.5241
  135SAPE     P14573   7.103   1.033  10.696 -0.1645  0.1098 -0.1014
  135SAPE   O1314574   7.090   1.165  10.774 -0.3158  0.1726  0.2366
  135SAPE   O1414575   7.231   0.959  10.727 -0.2420  0.4057  0.1072
  135SAPE   O1214576   6.991   0.927  10.729 -0.3469  0.2655  0.2634
  135SAPE   O1114577   7.074   1.047  10.542  0.0052 -0.0740  0.0294
  135SAPE    C114578   7.005   0.946  10.467  0.6209 -0.0678  0.5100
  135SAPE    HA14579   7.074   0.860  10.460  1.5208  0.7580 -2.4842
  135SAPE    HB14580   6.915   0.914  10.522 -0.5083 -0.7421 -1.6359
  135SAPE    C214581   6.956   1.007  10.328 -0.9945 -0.1168 -0.1279
  135SAPE    HS14582   6.912   0.921  10.274 -0.9388  0.0651 -0.4610
  135SAPE   O2114583   7.076   1.063  10.256 -0.2812  0.3742  0.3830
  135SAPE   C2114584   7.164   0.971  10.215 -0.2214 -0.5811 -0.1174
  135SAPE   O2214585   7.145   0.853  10.223  0.4365  0.2377  0.4241
  135SAPE   C2214586   7.287   1.044  10.152 -0.6895 -0.0569 -0.1858
  135SAPE   H2R14587   7.333   1.114  10.225  0.5463 -0.3243 -0.6814
  135SAPE   H2S14588   7.363   0.964  10.153 -2.1076 -1.4538  1.3236
  135SAPE    C314589   6.847   1.121  10.335 -0.3033  0.1035 -0.8770
  135SAPE    HX14590   6.890   1.222  10.349 -2.4890  1.4414 -3.0886
  135SAPE    HY14591   6.780   1.094  10.420  1.3292 -1.2707  0.0437
  135SAPE   O3114592   6.767   1.131  10.219  0.3615 -0.2494 -0.3421
  135SAPE   C3114593   6.668   1.048  10.196  0.2735 -0.3936  0.0597
  135SAPE   O3214594   6.638   0.957  10.273 -0.4546 -0.0819 -0.2785
  135SAPE   C3214595   6.605   1.074  10.062 -0.0627 -0.1241 -0.1416
  135SAPE   H2X14596   6.596   1.180  10.032 -1.1156 -0.1787 -0.0532
  135SAPE   H2Y14597   6.500   1.037  10.065  0.3236 -1.2675 -0.0361
  135SAPE   C2314598   7.265   1.083  10.006 -0.0350 -0.2731  0.4097
  135SAPE   H3R14599   7.217   0.990   9.968  1.7101 -0.3092 -1.8844
  135SAPE   H3S14600   7.364   1.088   9.956 -0.0242  1.0770  0.5274
  135SAPE   C2414601   7.169   1.199   9.981 -0.4241 -0.3492 -0.0679
  135SAPE   H4R14602   7.239   1.278   9.947 -0.9933  0.5695  0.8359
  135SAPE   H4S14603   7.132   1.231  10.081 -2.1710 -3.8748  0.5721
  135SAPE   C2514604   7.055   1.175   9.886 -0.0515  0.9192  0.5611
  135SAPE   H5R14605   6.956   1.147   9.926 -0.3537 -3.2991 -2.4381
  135SAPE   C2614606   7.060   1.158   9.749  0.4426 -0.2974 -0.2015
  135SAPE   H6R14607   6.966   1.139   9.696  0.2761 -1.0841  0.3671
  135SAPE   C2714608   7.182   1.169   9.659  0.3962  0.3455  0.1863
  135SAPE   H7R14609   7.276   1.182   9.718 -1.0587  0.8833  2.5462
  135SAPE   H7S14610   7.172   1.258   9.594  1.0513  0.1023 -0.2568
  135SAPE   C2814611   7.186   1.051   9.568  0.2765 -0.2603  0.8038
  135SAPE   H8R14612   7.198   0.950   9.612 -0.8057 -1.5826 -1.7014
  135SAPE   C2914613   7.176   1.059   9.430  1.0000 -0.4010 -0.5092
  135SAPE   H9R14614   7.164   0.966   9.373  2.8732 -0.1884 -1.3234
  135SAPE  C21014615   7.164   1.183   9.348  0.3959 -0.1379 -0.7570
  135SAPE  H10R14616   7.237   1.261   9.377 -0.8376  1.5817 -2.0775
  135SAPE  H10S14617   7.069   1.235   9.373  1.2108 -0.0376  2.6192
  135SAPE  C21114618   7.170   1.166   9.198  0.4076  0.3020 -0.1551
  135SAPE  H11R14619   7.263   1.190   9.145  1.0604  0.2481  0.9310
  135SAPE  C21214620   7.078   1.113   9.114 -0.5376 -0.5813 -0.3263
  135SAPE  H12R14621   7.100   1.094   9.008 -2.7802 -0.0787 -0.9424
  135SAPE  C21314622   6.937   1.070   9.157 -0.5749  0.4783 -0.0138
  135SAPE  H13R14623   6.896   1.160   9.207 -0.4622  0.3480  0.3143
  135SAPE  H13S14624   6.933   0.987   9.230 -5.1205  0.9979  0.6230
  135SAPE  C21414625   6.847   1.018   9.054  0.4127 -0.7183  0.3566
  135SAPE  H14R14626   6.835   0.909   9.060  3.3094 -1.0570  2.7335
  135SAPE  C21514627   6.780   1.092   8.964  0.3648  0.1046 -0.8747
  135SAPE  H15R14628   6.707   1.045   8.897 -0.9038 -3.0969  2.4190
  135SAPE  C21614629   6.785   1.242   8.954 -0.2437 -0.3335  1.1005
  135SAPE  H16R14630   6.847   1.293   9.031  0.8327  1.3127 -0.7681
  135SAPE  H16S14631   6.685   1.274   8.989  0.2544 -0.9651  3.2418
  135SAPE  C21714632   6.829   1.289   8.813  0.4425  0.0028 -0.4211
  135SAPE  H17R14633   6.833   1.400   8.815  2.4587 -0.0291 -0.4129
  135SAPE  H17S14634   6.758   1.263   8.732 -0.5227  1.3022 -0.0299
  135SAPE  C21814635   6.963   1.222   8.762  0.0012 -0.1823  0.1074
  135SAPE  H18R14636   6.934   1.123   8.720  0.1054 -1.3182  2.5750
  135SAPE  H18S14637   7.039   1.215   8.842 -1.8970  1.8070  2.2264
  135SAPE  C21914638   7.011   1.298   8.639 -0.4855 -0.5194  0.4425
  135SAPE  H19R14639   7.063   1.387   8.679 -0.5249 -0.6992  0.9006
  135SAPE  H19S14640   6.930   1.325   8.568  0.4454 -1.9127 -1.2134
  135SAPE  C22014641   7.104   1.217   8.551  0.2262  0.1296  0.0053
  135SAPE  H20R14642   7.195   1.187   8.609 -0.3755 -3.5994 -0.7433
  135SAPE  H20S14643   7.138   1.283   8.468  0.4285  0.9155  0.6982
  135SAPE  H20T14644   7.050   1.126   8.516 -4.0689  3.1053 -1.8411
  135SAPE   C3314645   6.680   0.997   9.948 -0.2642  0.3014 -0.8922
  135SAPE   H3X14646   6.729   0.900   9.971 -1.1341  0.3958  1.6886
  135SAPE   H3Y14647   6.762   1.063   9.913 -0.5033  0.6747 -0.7662
  135SAPE   C3414648   6.603   0.969   9.818 -0.5398 -0.3464  1.1039
  135SAPE   H4X14649   6.502   0.926   9.833 -0.6538  0.2785  2.2314
  135SAPE   H4Y14650   6.659   0.896   9.757  0.0635  0.5492  0.5627
  135SAPE   C3514651   6.602   1.101   9.723 -0.3319  0.2137 -0.4719
  135SAPE   H5X14652   6.700   1.154   9.721 -0.7193  0.9397 -0.6224
  135SAPE   H5Y14653   6.541   1.174   9.781 -1.9565 -0.4706 -1.2556
  135SAPE   C3614654   6.559   1.079   9.588  1.1140  0.3124 -0.6360
  135SAPE   H6X14655   6.605   0.987   9.546 -2.0028 -2.3146  1.1655
  135SAPE   H6Y14656   6.590   1.165   9.525 -0.0683  0.3151 -1.2527
  135SAPE   C3714657   6.408   1.046   9.565  0.1243  0.0450  0.2019
  135SAPE   H7X14658   6.360   1.116   9.636 -0.1986 -0.8706  0.9007
  135SAPE   H7Y14659   6.392   0.944   9.607  0.7189  0.1366  0.6712
  135SAPE   C3814660   6.349   1.044   9.430 -0.0298 -0.5911  0.7015
  135SAPE   H8X14661   6.239   1.052   9.436 -0.0490 -0.7878  0.6211
  135SAPE   H8Y14662   6.377   0.945   9.387 -1.9564 -0.8134 -0.1514
  135SAPE   C3914663   6.402   1.158   9.338  0.5286 -0.3276  0.5903
  135SAPE   H9X14664   6.512   1.162   9.329  0.5149  2.1609  0.9193
  135SAPE   H9Y14665   6.372   1.251   9.390 -0.2123 -0.2540  0.0464
  135SAPE  C31014666   6.340   1.138   9.197  0.0817  0.1621 -0.2072
  135SAPE  H10X14667   6.230   1.138   9.206  0.1003 -3.6551  2.8275
  135SAPE  H10Y14668   6.373   1.037   9.164  1.1368  0.5447 -0.3600
  135SAPE  C31114669   6.374   1.244   9.092 -1.3486 -0.0219 -0.6201
  135SAPE  H11X14670   6.484   1.256   9.088 -0.7703 -3.5435  0.7972
  135SAPE  H11Y14671   6.335   1.343   9.122  0.4366  0.8310 -0.9993
  135SAPE  C31214672   6.330   1.206   8.945 -0.2295 -0.4573 -0.5391
  135SAPE  H12X14673   6.219   1.197   8.941 -0.3416 -0.9047  2.1418
  135SAPE  H12Y14674   6.382   1.112   8.918  0.5575 -0.0729 -0.3976
  135SAPE  C31314675   6.381   1.310   8.841  0.3496  0.5862  0.0091
  135SAPE  H13X14676   6.491   1.307   8.826 -0.0031  2.3756 -4.2243
  135SAPE  H13Y14677   6.359   1.413   8.875  1.3586  0.0664  2.4527
  135SAPE  C31414678   6.318   1.279   8.709 -0.2905 -0.4781  0.0492
  135SAPE  H14X14679   6.333   1.359   8.634 -1.6115 -0.5527 -0.3257
  135SAPE  H14Y14680   6.208   1.273   8.728 -0.5912  1.8738 -0.5452
  135SAPE  C31514681   6.361   1.155   8.642 -1.0961  0.4635  0.3076
  135SAPE  H15X14682   6.315   1.161   8.541  1.8032 -0.2928 -1.2005
  135SAPE  H15Y14683   6.308   1.072   8.693 -0.3715 -1.3474 -1.7073
  135SAPE  C31614684   6.510   1.134   8.640 -0.0023  0.3679 -0.0716
  135SAPE  H16X14685   6.554   1.129   8.742  0.4604  0.0072 -0.2831
  135SAPE  H16Y14686   6.551   1.215   8.576 -0.8563 -0.4231 -1.6821
  135SAPE  C31714687   6.536   1.009   8.571  0.5300 -0.3395  0.9901
  135SAPE  H17X14688   6.633   1.023   8.517  0.5911  1.6659  1.5208
  135SAPE  H17Y14689   6.460   0.996   8.492 -0.3101  0.3098  1.6772
  135SAPE  C31814690   6.542   0.890   8.670 -0.5739 -0.7812 -0.1993
  135SAPE  H18X14691   6.585   0.802   8.618  3.1467  0.7228 -0.0477
  135SAPE  H18Y14692   6.446   0.876   8.723 -0.0764 -1.7303  0.4738
  135SAPE  H18Z14693   6.614   0.933   8.744  1.3668  0.8256 -2.8495
  136SAPE     N14694   3.213   0.793  10.687 -0.1840  0.2590  0.1167
  136SAPE   HN114695   3.197   0.719  10.759 -2.8576 -0.7641 -1.3663
  136SAPE   HN214696   3.209   0.880  10.743 -0.8713  1.4952 -1.7420
  136SAPE   HN314697   3.125   0.795  10.630 -0.9397  2.4896  1.2590
  136SAPE   C1214698   3.350   0.786  10.626 -0.2868  0.2765  0.3704
  136SAPE  H12A14699   3.385   0.889  10.602  0.1922 -0.0039 -0.1537
  136SAPE  H12B14700   3.338   0.718  10.539 -0.9271  0.0138  0.6582
  136SAPE   C1114701   3.465   0.712  10.708  0.2298  0.6854  0.6265
  136SAPE  H11A14702   3.492   0.769  10.799  0.5341  1.6132 -0.0239
  136SAPE  H11B14703   3.556   0.708  10.643  1.1529  0.1444  1.9158
  136SAPE     P14704   3.484   0.497  10.851 -0.2871 -0.3357  0.0586
  136SAPE   O1314705   3.600   0.569  10.903 -0.8781  0.4793  0.6117
  136SAPE   O1414706   3.377   0.459  10.950 -0.1235 -0.7281  0.4363
  136SAPE   O1214707   3.428   0.582  10.738  0.3429 -0.0955 -0.1476
  136SAPE   O1114708   3.534   0.373  10.779  0.4572  0.4447  0.0451
  136SAPE    C114709   3.647   0.386  10.689  0.4028 -0.0753  0.0752
  136SAPE    HA14710   3.659   0.490  10.652  0.7150 -0.6163 -1.4211
  136SAPE    HB14711   3.743   0.370  10.742  0.0557 -1.9232  0.1997
  136SAPE    C214712   3.641   0.284  10.565 -0.0989  0.0023 -0.1319
  136SAPE    HS14713   3.722   0.298  10.490  1.4800  2.9941  1.9492
  136SAPE   O2114714   3.510   0.301  10.507  0.2840 -0.3686  0.4874
  136SAPE   C2114715   3.507   0.397  10.416 -0.1751  0.2638  0.5224
  136SAPE   O2214716   3.604   0.441  10.353  0.2860  0.4482 -0.2511
  136SAPE   C2214717   3.366   0.449  10.401  0.4378 -0.1835 -0.6409
  136SAPE   H2R14718   3.298   0.361  10.391  1.2375 -0.7444 -1.2506
  136SAPE   H2S14719   3.340   0.505  10.493 -1.5827 -0.3450 -1.0715
  136SAPE    C314720   3.659   0.139  10.608 -0.0348 -0.2891  0.6868
  136SAPE    HX14721   3.587   0.120  10.691 -0.0754 -3.0776  0.1337
  136SAPE    HY14722   3.763   0.129  10.644  1.3495  1.1668 -2.4987
  136SAPE   O3114723   3.625   0.050  10.496  0.2910 -0.1248 -0.3401
  136SAPE   C3114724   3.723   0.029  10.412  0.1480  0.7708 -0.2012
  136SAPE   O3214725   3.834   0.077  10.419 -0.0113  0.0183 -0.3109
  136SAPE   C3214726   3.664  -0.072  10.314  0.1575 -0.6491 -0.2586
  136SAPE   H2X14727   3.571  -0.026  10.273 -1.0877 -1.6531  1.2893
  136SAPE   H2Y14728   3.642  -0.172  10.358  0.8275 -0.6715  0.0427
  136SAPE   C2314729   3.336   0.562  10.295 -0.8711  0.6704 -0.5290
  136SAPE   H3R14730   3.385   0.527  10.201 -2.0052 -0.5567 -0.6955
  136SAPE   H3S14731   3.392   0.653  10.324 -0.6005  0.2288  0.3368
  136SAPE   C2414732   3.194   0.596  10.277 -0.4908  0.3001  0.8785
  136SAPE   H4R14733   3.175   0.698  10.237 -0.1382 -0.4403 -1.3550
  136SAPE   H4S14734   3.137   0.596  10.372 -0.9990  0.2342  0.5781
  136SAPE   C2514735   3.118   0.491  10.205  0.6475 -0.5717 -0.2442
  136SAPE   H5R14736   3.046   0.433  10.266  0.7697 -1.2017 -0.6863
  136SAPE   C2614737   3.114   0.485  10.071 -0.0245  0.3423 -0.1929
  136SAPE   H6R14738   3.043   0.420  10.017 -0.6021  1.0025 -0.2459
  136SAPE   C2714739   3.189   0.583   9.980  0.4464  0.5873  0.4053
  136SAPE   H7R14740   3.254   0.654  10.035 -0.7059  4.1978 -2.4757
  136SAPE   H7S14741   3.118   0.646   9.922  0.0403 -1.5058 -1.4850
  136SAPE   C2814742   3.284   0.504   9.888  0.4423  0.0088 -1.0183
  136SAPE   H8R14743   3.369   0.463   9.946  0.3269  1.1907  0.0259
  136SAPE   C2914744   3.273   0.481   9.757 -0.1111 -0.2511  0.3106
  136SAPE   H9R14745   3.363   0.434   9.717 -0.6005 -2.5219  1.7311
  136SAPE  C21014746   3.165   0.521   9.662  0.6069 -0.2890 -0.2141
  136SAPE  H10R14747   3.195   0.624   9.635 -1.4649  0.1418 -1.1096
  136SAPE  H10S14748   3.068   0.525   9.716  0.5743 -0.4594 -0.2561
  136SAPE  C21114749   3.159   0.426   9.547  1.0728  0.3591 -0.1903
  136SAPE  H11R14750   3.155   0.316   9.562  1.1085  0.1196 -1.8183
  136SAPE  C21214751   3.126   0.467   9.424 -0.2433 -0.4130  0.7193
  136SAPE  H12R14752   3.135   0.395   9.342 -0.2616 -0.9200  1.1573
  136SAPE  C21314753   3.104   0.613   9.381 -0.5269  0.3547 -0.0420
  136SAPE  H13R14754   3.184   0.676   9.425  1.7379 -1.6488 -1.0144
  136SAPE  H13S14755   3.003   0.652   9.405 -0.5688  0.7189 -0.7771
  136SAPE  C21414756   3.088   0.636   9.235 -0.1135  0.1085 -0.9011
  136SAPE  H14R14757   3.017   0.565   9.191 -0.5631 -0.9369  1.3760
  136SAPE  C21514758   3.135   0.736   9.166  0.1194 -0.2829 -0.4817
  136SAPE  H15R14759   3.116   0.742   9.058 -0.3193  0.4005 -0.3692
  136SAPE  C21614760   3.212   0.853   9.214 -0.6195 -0.3648  0.2004
  136SAPE  H16R14761   3.295   0.874   9.143 -0.3974 -1.7318  0.0351
  136SAPE  H16S14762   3.261   0.826   9.310  0.6421 -0.5159 -0.4693
  136SAPE  C21714763   3.153   0.988   9.234  0.3049 -0.0837 -0.6682
  136SAPE  H17R14764   3.099   1.023   9.143  1.3745 -0.5664 -1.5092
  136SAPE  H17S14765   3.228   1.062   9.268 -0.4818  0.1167  0.7111
  136SAPE  C21814766   3.046   0.996   9.344  0.1335  0.2286 -1.3087
  136SAPE  H18R14767   2.970   0.915   9.331 -1.4257  1.4921 -0.4085
  136SAPE  H18S14768   2.988   1.090   9.352  0.2000  0.1244  0.9586
  136SAPE  C21914769   3.107   0.978   9.490  0.1385  0.2542  0.0717
  136SAPE  H19R14770   3.148   1.078   9.514 -0.6228  0.5129  0.3343
  136SAPE  H19S14771   3.191   0.906   9.483 -1.6989 -2.0357  0.1258
  136SAPE  C22014772   2.998   0.941   9.594 -0.3928  0.5838  0.0571
  136SAPE  H20R14773   2.945   0.850   9.556  2.5004 -0.4123 -1.9849
  136SAPE  H20S14774   2.923   1.020   9.615 -1.0571 -0.3822  1.4988
  136SAPE  H20T14775   3.055   0.925   9.688 -0.5255 -1.0499 -0.1070
  136SAPE   C3314776   3.777  -0.098  10.210  0.5524 -0.0506 -0.0292
  136SAPE   H3X14777   3.850  -0.167  10.258  0.6497 -1.0905 -1.5827
  136SAPE   H3Y14778   3.834  -0.006  10.188  1.0659 -0.0031  1.3948
  136SAPE   C3414779   3.727  -0.161  10.083 -0.6701  0.4909  0.0878
  136SAPE   H4X14780   3.651  -0.102  10.028 -2.0051 -2.1605 -1.1290
  136SAPE   H4Y14781   3.685  -0.261  10.108 -1.1122  1.2414  2.6432
  136SAPE   C3514782   3.843  -0.173   9.977 -0.3790  0.1053 -0.3796
  136SAPE   H5X14783   3.915  -0.253  10.007  0.5320  1.3455  0.8784
  136SAPE   H5Y14784   3.897  -0.076   9.975 -1.0147  0.4945  0.5199
  136SAPE   C3614785   3.782  -0.182   9.842  0.1328  0.4531 -0.1748
  136SAPE   H6X14786   3.720  -0.094   9.813 -0.6415  0.6867  2.0409
  136SAPE   H6Y14787   3.709  -0.266   9.836  0.4118  0.2641 -1.1630
  136SAPE   C3714788   3.891  -0.207   9.731 -0.0895  0.1016  0.1404
  136SAPE   H7X14789   3.897  -0.318   9.729  1.1928  0.1699 -0.1409
  136SAPE   H7Y14790   3.989  -0.164   9.758  0.8875 -1.8683 -0.0900
  136SAPE   C3814791   3.849  -0.147   9.596  0.4536 -0.3418  0.6068
  136SAPE   H8X14792   3.828  -0.041   9.618  0.5512 -0.7844  3.0654
  136SAPE   H8Y14793   3.754  -0.195   9.565  1.0573  0.5283 -3.1165
  136SAPE   C3914794   3.953  -0.154   9.482  0.0091  0.0404  0.3242
  136SAPE   H9X14795   3.975  -0.263   9.482 -1.7273 -0.3771 -1.6915
  136SAPE   H9Y14796   4.044  -0.105   9.523 -1.0641  0.4912  2.2587
  136SAPE  C31014797   3.910  -0.108   9.351 -0.1861 -0.4193 -0.2180
  136SAPE  H10X14798   3.893   0.001   9.341  1.3391 -0.1318 -0.0262
  136SAPE  H10Y14799   3.817  -0.166   9.335  0.5644 -1.8884  0.4708
  136SAPE  C31114800   4.021  -0.149   9.235  0.8388 -1.1635  0.0571
  136SAPE  H11X14801   4.055  -0.252   9.257  1.0823 -1.1975 -0.4790
  136SAPE  H11Y14802   4.103  -0.075   9.248 -0.9791  1.1796 -0.9796
  136SAPE  C31214803   3.952  -0.127   9.108  0.0079 -0.3071 -0.3011
  136SAPE  H12X14804   3.965  -0.022   9.074  0.9964  0.6343  2.6307
  136SAPE  H12Y14805   3.843  -0.148   9.108 -0.4661  1.8054 -1.4674
  136SAPE  C31314806   4.003  -0.219   8.991 -0.3539 -0.6714 -0.2524
  136SAPE  H13X14807   4.113  -0.211   8.982 -0.3395  0.2326  0.6648
  136SAPE  H13Y14808   3.960  -0.182   8.895 -3.5722 -1.5996  0.6869
  136SAPE  C31414809   3.967  -0.366   9.008  0.4313  0.0681 -0.2988
  136SAPE  H14X14810   3.859  -0.376   9.029  0.3902 -0.0687 -0.5612
  136SAPE  H14Y14811   4.026  -0.395   9.098  0.1123  1.7485  0.4952
  136SAPE  C31514812   3.997  -0.454   8.888 -1.1368 -0.1372 -1.0688
  136SAPE  H15X14813   4.001  -0.563   8.908  0.2812 -0.0682 -0.9014
  136SAPE  H15Y14814   4.095  -0.436   8.840 -0.4389 -0.6153  0.1355
  136SAPE  C31614815   3.891  -0.451   8.773  0.8412  0.3251 -0.6510
  136SAPE  H16X14816   3.944  -0.462   8.675  0.2997 -0.9863 -0.8271
  136SAPE  H16Y14817   3.855  -0.346   8.766  2.4272  1.0303  1.0230
  136SAPE  C31714818   3.782  -0.558   8.781 -0.0503  0.1245 -0.4058
  136SAPE  H17X14819   3.766  -0.595   8.884  0.7382 -0.7436 -0.5911
  136SAPE  H17Y14820   3.810  -0.639   8.710 -0.8202  0.0225 -0.6026
  136SAPE  C31814821   3.648  -0.497   8.739  0.1746 -0.0039 -0.1300
  136SAPE  H18X14822   3.606  -0.432   8.819  0.1614 -1.6702  1.2750
  136SAPE  H18Y14823   3.572  -0.578   8.741 -0.9433  1.0087  1.4801
  136SAPE  H18Z14824   3.648  -0.442   8.642 -0.4417  1.1123  0.4839
  137SAPE     N14825   1.459   3.665  10.733 -0.0587  0.1161  0.5685
  137SAPE   HN114826   1.559   3.686  10.713  0.0538  1.2831  2.1529
  137SAPE   HN214827   1.420   3.638  10.640  2.3508 -0.1656 -0.4363
  137SAPE   HN314828   1.415   3.752  10.771 -0.4231  0.5545 -0.7802
  137SAPE   C1214829   1.436   3.549  10.825 -0.5177  0.1896 -0.3128
  137SAPE  H12A14830   1.450   3.580  10.931 -0.3138  0.7530 -0.4965
  137SAPE  H12B14831   1.520   3.478  10.811  2.2266  2.9293  1.1109
  137SAPE   C1114832   1.302   3.482  10.805  0.7195  0.7412 -0.4216
  137SAPE  H11A14833   1.227   3.556  10.770 -2.2615 -1.6049  0.5708
  137SAPE  H11B14834   1.269   3.429  10.897 -3.2854  2.1482 -0.8283
  137SAPE     P14835   1.236   3.255  10.685  0.1254  0.0123 -0.0118
  137SAPE   O1314836   1.306   3.176  10.576 -0.1556 -0.1972 -0.4061
  137SAPE   O1414837   1.248   3.180  10.813  0.4103 -0.4657  0.5490
  137SAPE   O1214838   1.311   3.390  10.698 -0.2653  0.7991 -0.5730
  137SAPE   O1114839   1.086   3.289  10.638 -0.3440 -0.4643 -0.1192
  137SAPE    C114840   1.061   3.420  10.576 -0.5302  0.0557 -0.5130
  137SAPE    HA14841   1.030   3.492  10.654 -0.8634  0.8904 -1.3951
  137SAPE    HB14842   1.152   3.458  10.524  0.3464 -1.2498  0.0019
  137SAPE    C214843   0.942   3.420  10.471 -0.5490  0.2241  0.1632
  137SAPE    HS14844   0.850   3.389  10.525  1.1806 -0.7983  2.6957
  137SAPE   O2114845   0.963   3.317  10.375 -0.5723 -0.3717 -0.1299
  137SAPE   C2114846   0.860   3.269  10.321  0.4666  0.0946 -0.0308
  137SAPE   O2214847   0.741   3.299  10.336 -0.1639  0.3780  0.4256
  137SAPE   C2214848   0.903   3.156  10.218  0.1590  0.0717  0.1943
  137SAPE   H2R14849   0.972   3.182  10.135 -0.4556  1.2457  0.0293
  137SAPE   H2S14850   0.943   3.078  10.286  0.4849 -0.5881 -0.7378
  137SAPE    C314851   0.931   3.564  10.412 -0.0752 -0.3880 -0.5506
  137SAPE    HX14852   1.033   3.576  10.369 -0.0401  1.3800 -0.0646
  137SAPE    HY14853   0.924   3.637  10.495  1.0150 -2.7482  1.7314
  137SAPE   O3114854   0.828   3.592  10.311  0.0979  0.1540 -0.3617
  137SAPE   C3114855   0.866   3.639  10.193 -0.3539  0.2758  1.2243
  137SAPE   O3214856   0.973   3.680  10.164 -1.0769  0.3440 -0.1760
  137SAPE   C3214857   0.737   3.658  10.106 -0.4665 -1.0666  0.0353
  137SAPE   H2X14858   0.699   3.762  10.119 -0.1268 -0.8197 -0.8726
  137SAPE   H2Y14859   0.662   3.588  10.149  1.2557 -2.1188  1.4652
  137SAPE   C2314860   0.785   3.093  10.148 -0.2636  0.1679 -0.1218
  137SAPE   H3R14861   0.698   3.063  10.211 -0.2661  0.8873  0.2215
  137SAPE   H3S14862   0.810   2.993  10.105 -1.8407 -0.1519 -0.3503
  137SAPE   C2414863   0.720   3.173  10.031  0.4759 -0.5205  0.4728
  137SAPE   H4R14864   0.797   3.206   9.958  0.0970  0.2766  0.4286
  137SAPE   H4S14865   0.675   3.266  10.071 -0.6936 -1.1860  0.7487
  137SAPE   C2514866   0.607   3.100   9.961 -0.4465  0.0950 -0.4758
  137SAPE   H5R14867   0.595   2.997   9.998  2.5710  0.1064  0.8043
  137SAPE   C2614868   0.521   3.152   9.871 -0.2906  0.3653 -0.1077
  137SAPE   H6R14869   0.443   3.084   9.833 -0.0272 -0.0013  0.0066
  137SAPE   C2714870   0.514   3.293   9.822  0.3986 -0.0953 -0.8843
  137SAPE   H7R14871   0.546   3.307   9.717  1.0608 -2.4838 -1.0472
  137SAPE   H7S14872   0.589   3.355   9.876  2.8267 -0.8919 -3.1305
  137SAPE   C2814873   0.373   3.353   9.841  0.1785 -0.2493 -0.4255
  137SAPE   H8R14874   0.353   3.382   9.945 -1.5416  0.4267 -0.9040
  137SAPE   C2914875   0.271   3.341   9.751  0.5669  0.0621  0.2171
  137SAPE   H9R14876   0.178   3.395   9.773  0.8058  1.3068 -1.5655
  137SAPE  C21014877   0.269   3.274   9.610  0.5520  0.1396 -0.2313
  137SAPE  H10R14878   0.173   3.228   9.580  0.7967  0.4843 -1.6256
  137SAPE  H10S14879   0.330   3.181   9.612 -0.5370 -0.5786  1.0807
  137SAPE  C21114880   0.304   3.361   9.494 -0.8739 -0.0303  0.4956
  137SAPE  H11R14881   0.381   3.437   9.513  0.5916 -0.9909 -1.2752
  137SAPE  C21214882   0.269   3.338   9.364 -0.2578 -0.3222  0.1946
  137SAPE  H12R14883   0.283   3.416   9.288  0.6832  0.6053  1.2718
  137SAPE  C21314884   0.186   3.229   9.318  0.0124 -0.1594  0.9345
  137SAPE  H13R14885   0.202   3.142   9.384  0.8751  0.4222  1.5157
  137SAPE  H13S14886   0.208   3.207   9.211  0.8022  3.5925  0.1535
  137SAPE  C21414887   0.043   3.271   9.328 -0.6153 -0.4531  0.5164
  137SAPE  H14R14888   0.010   3.292   9.431  1.0521  0.5588  0.8769
  137SAPE  C21514889  -0.052   3.274   9.233  0.0552  0.7376  0.0761
  137SAPE  H15R14890  -0.156   3.293   9.263  0.0537  1.6922 -0.5004
  137SAPE  C21614891  -0.030   3.257   9.085  0.1235  0.1942 -0.4732
  137SAPE  H16R14892  -0.111   3.196   9.041  0.4120 -0.1077 -0.5851
  137SAPE  H16S14893   0.061   3.199   9.059 -0.6242 -0.0387 -2.7591
  137SAPE  C21714894  -0.021   3.391   9.018  0.6454 -0.0639  0.6543
  137SAPE  H17R14895   0.050   3.458   9.069  0.7597 -0.9854  1.7505
  137SAPE  H17S14896  -0.116   3.448   9.019 -0.0016 -0.9176 -2.2541
  137SAPE  C21814897   0.042   3.383   8.876 -0.0941  0.0236 -0.1271
  137SAPE  H18R14898   0.129   3.313   8.871  0.0149  0.1274  0.2581
  137SAPE  H18S14899   0.072   3.485   8.846  0.4609 -0.5537 -1.6627
  137SAPE  C21914900  -0.061   3.323   8.776 -0.2349  0.5147  0.0083
  137SAPE  H19R14901  -0.154   3.384   8.773 -1.9495 -1.6296  3.0929
  137SAPE  H19S14902  -0.088   3.224   8.818  1.3973  0.0088 -0.0690
  137SAPE  C22014903  -0.003   3.297   8.643  0.1666  0.0666 -0.5929
  137SAPE  H20R14904   0.031   3.192   8.639  2.3790  0.7384 -0.6162
  137SAPE  H20S14905   0.088   3.359   8.631  0.3661 -0.0548  0.2217
  137SAPE  H20T14906  -0.065   3.320   8.553  1.7971 -1.2849 -2.1208
  137SAPE   C3314907   0.753   3.635   9.955  0.3758 -0.2612  0.0650
  137SAPE   H3X14908   0.760   3.525   9.939 -1.3820 -0.2897 -0.7928
  137SAPE   H3Y14909   0.840   3.683   9.904  0.6181 -0.6603  0.1028
  137SAPE   C3414910   0.623   3.663   9.879 -0.5134 -0.3960  0.1530
  137SAPE   H4X14911   0.599   3.767   9.910  3.2467  1.3945 -2.1915
  137SAPE   H4Y14912   0.539   3.599   9.912 -0.8088 -0.6494 -1.0218
  137SAPE   C3514913   0.655   3.666   9.730 -0.0029 -0.0522  0.1655
  137SAPE   H5X14914   0.650   3.558   9.703  0.1284  0.4126 -1.8341
  137SAPE   H5Y14915   0.761   3.695   9.713 -0.0446 -0.1735 -0.3053
  137SAPE   C3614916   0.562   3.741   9.632  0.1250 -0.3423 -0.3228
  137SAPE   H6X14917   0.578   3.851   9.633  0.2392 -0.3585  0.5790
  137SAPE   H6Y14918   0.463   3.720   9.680  0.7924 -0.4011  1.0687
  137SAPE   C3714919   0.581   3.687   9.486 -1.2694  0.2121 -0.1382
  137SAPE   H7X14920   0.589   3.577   9.497  1.8021  0.5764  2.9896
  137SAPE   H7Y14921   0.674   3.723   9.439 -0.8278 -2.1626 -1.1975
  137SAPE   C3814922   0.470   3.715   9.386 -0.1932 -0.3594  0.2512
  137SAPE   H8X14923   0.470   3.825   9.369  0.9749 -0.5689 -1.3127
  137SAPE   H8Y14924   0.378   3.688   9.442  0.1690  2.0186  2.1575
  137SAPE   C3914925   0.470   3.651   9.243 -0.4101 -0.5953 -0.1493
  137SAPE   H9X14926   0.443   3.544   9.258  1.1036 -0.9897 -0.0229
  137SAPE   H9Y14927   0.577   3.658   9.214 -0.0958 -4.6676 -0.6107
  137SAPE  C31014928   0.384   3.698   9.133  0.4675 -0.7662  0.1800
  137SAPE  H10X14929   0.413   3.803   9.110 -1.6118 -0.4064 -1.0896
  137SAPE  H10Y14930   0.278   3.701   9.169  0.6160 -0.4881  0.6060
  137SAPE  C31114931   0.386   3.602   9.011 -0.5245 -0.4249  0.2661
  137SAPE  H11X14932   0.322   3.515   9.037 -1.7052 -0.0910 -1.3638
  137SAPE  H11Y14933   0.494   3.577   8.996 -0.6225 -0.2711 -0.7985
  137SAPE  C31214934   0.322   3.666   8.895  0.1516  0.6180 -0.0666
  137SAPE  H12X14935   0.230   3.714   8.935 -1.8947 -1.6310 -1.7734
  137SAPE  H12Y14936   0.279   3.584   8.833 -1.4975  0.0059  1.7638
  137SAPE  C31314937   0.403   3.766   8.813  0.0187  0.5131 -0.5229
  137SAPE  H13X14938   0.465   3.702   8.746  0.2327  0.9278 -0.7234
  137SAPE  H13Y14939   0.464   3.829   8.881 -1.9714  0.4657  1.4054
  137SAPE  C31414940   0.304   3.848   8.730  0.4173  0.3660 -0.6458
  137SAPE  H14X14941   0.238   3.903   8.800  1.1541  1.5884 -0.8803
  137SAPE  H14Y14942   0.243   3.781   8.666 -2.1264  1.2920  0.7000
  137SAPE  C31514943   0.377   3.946   8.641 -0.9598  0.7159 -0.4327
  137SAPE  H15X14944   0.450   4.000   8.704  1.3479  0.2820 -2.5587
  137SAPE  H15Y14945   0.303   4.018   8.599  1.0901  3.6420  0.6692
  137SAPE  C31614946   0.444   3.884   8.516  0.5837 -0.4949 -0.3278
  137SAPE  H16X14947   0.362   3.861   8.444 -2.4356  1.7293  2.1151
  137SAPE  H16Y14948   0.496   3.792   8.548 -0.1372 -0.3368  1.4422
  137SAPE  C31714949   0.539   3.982   8.453  0.2065 -0.1697  0.5671
  137SAPE  H17X14950   0.576   3.941   8.357 -2.5843 -0.8967 -0.2984
  137SAPE  H17Y14951   0.632   3.989   8.512 -0.3046 -1.4108  1.5708
  137SAPE  C31814952   0.481   4.127   8.440  0.1355 -0.2581  0.3197
  137SAPE  H18X14953   0.419   4.122   8.348 -0.3578  2.8375  0.3854
  137SAPE  H18Y14954   0.554   4.205   8.409 -1.5830  0.7697 -1.3461
  137SAPE  H18Z14955   0.421   4.170   8.522  0.7207 -0.1489  0.6970
  138SAPE     N14956   5.713   4.779  10.672  0.5283 -0.3438 -0.1004
  138SAPE   HN114957   5.624   4.732  10.698 -0.4395  1.0299 -0.7551
  138SAPE   HN214958   5.797   4.721  10.692  1.1656  0.0326 -1.5489
  138SAPE   HN314959   5.712   4.863  10.733 -1.6640  0.2754 -0.8684
  138SAPE   C1214960   5.723   4.822  10.529 -0.4083  0.0233  0.7395
  138SAPE  H12A14961   5.827   4.859  10.516  0.5534 -2.5287  0.5304
  138SAPE  H12B14962   5.649   4.902  10.510 -0.9356 -1.1084 -2.6387
  138SAPE   C1114963   5.711   4.708  10.433 -0.5221  0.1730 -0.1700
  138SAPE  H11A14964   5.769   4.629  10.485 -2.8322 -0.4725  1.5834
  138SAPE  H11B14965   5.769   4.738  10.343  1.0381  0.1869  0.8036
  138SAPE     P14966   5.499   4.566  10.497  0.2185 -0.1380 -0.0615
  138SAPE   O1314967   5.561   4.435  10.521 -0.4210  0.1821  0.4129
  138SAPE   O1414968   5.472   4.639  10.621  0.7017 -0.0946  0.2566
  138SAPE   O1214969   5.581   4.664  10.396  0.5111 -0.0130  0.5665
  138SAPE   O1114970   5.376   4.557  10.404  0.7953 -0.2243 -0.4481
  138SAPE    C114971   5.319   4.672  10.333 -0.2360  0.3504 -0.5165
  138SAPE    HA14972   5.385   4.761  10.339 -1.7984  1.5850 -0.9182
  138SAPE    HB14973   5.304   4.648  10.226 -4.7069  1.6827 -0.3804
  138SAPE    C214974   5.192   4.723  10.393 -0.4417  0.1738 -0.7039
  138SAPE    HS14975   5.210   4.736  10.501  2.5458  0.9516 -1.1994
  138SAPE   O2114976   5.088   4.620  10.367 -0.3921  0.1025 -0.3200
  138SAPE   C2114977   4.977   4.639  10.436 -0.3836  0.6195  0.6834
  138SAPE   O2214978   4.957   4.726  10.518 -0.1461 -0.4097 -0.7100
  138SAPE   C2214979   4.865   4.549  10.371  0.2038  0.2064 -0.3457
  138SAPE   H2R14980   4.891   4.540  10.264 -0.7330  1.6428 -0.7166
  138SAPE   H2S14981   4.870   4.450  10.421  2.1711 -0.8487 -2.4598
  138SAPE    C314982   5.154   4.863  10.332  0.3892  0.2381 -0.1849
  138SAPE    HX14983   5.229   4.935  10.371  0.7215 -0.2912  0.1700
  138SAPE    HY14984   5.056   4.896  10.371  0.4730  0.7409 -0.4027
  138SAPE   O3114985   5.144   4.864  10.190 -0.3599 -0.1175  0.4370
  138SAPE   C3114986   5.023   4.842  10.134  0.4084 -0.4913  0.1218
  138SAPE   O3214987   4.915   4.839  10.189  0.1969  0.6906  0.1964
  138SAPE   C3214988   5.042   4.826   9.983 -0.1397 -0.4471 -0.7500
  138SAPE   H2X14989   5.133   4.769   9.957  0.1281  0.5545 -2.0984
  138SAPE   H2Y14990   5.045   4.930   9.944  0.1370  0.5284  1.6480
  138SAPE   C2314991   4.719   4.604  10.394 -0.2711 -0.3687 -0.0751
  138SAPE   H3R14992   4.705   4.706  10.353 -0.3525 -0.8791 -1.3619
  138SAPE   H3S14993   4.690   4.618  10.500 -1.3849  3.9909 -0.7628
  138SAPE   C2414994   4.627   4.513  10.320  1.1720 -0.0280 -0.0888
  138SAPE   H4R14995   4.524   4.550  10.337  1.3845  1.6150 -2.0613
  138SAPE   H4S14996   4.644   4.405  10.338  1.2048 -0.1080 -0.5990
  138SAPE   C2514997   4.640   4.544  10.168  0.1840 -0.2473 -0.2383
  138SAPE   H5R14998   4.692   4.640  10.153  0.2823 -0.5233 -1.8469
  138SAPE   C2614999   4.600   4.468  10.069 -0.0841  0.6590  0.7755
  138SAPE   H6R15000   4.612   4.498   9.964 -1.5883 -3.6178 -0.8874
  138SAPE   C2715001   4.543   4.330  10.080 -0.0968  0.2193 -0.2966
  138SAPE   H7R15002   4.437   4.353  10.056  0.5359  1.2881 -2.3457
  138SAPE   H7S15003   4.543   4.296  10.185  3.2028  3.1454  0.8539
  138SAPE   C2815004   4.595   4.232   9.979  0.1554 -0.0370  0.0307
  138SAPE   H8R15005   4.703   4.218   9.988  0.3552  0.2592 -1.5626
  138SAPE   C2915006   4.518   4.181   9.874  0.3233 -0.0762 -0.2535
  138SAPE   H9R15007   4.565   4.114   9.801  1.0433 -0.4545  0.5420
  138SAPE  C21015008   4.364   4.197   9.851  0.3377  0.9602 -0.5800
  138SAPE  H10R15009   4.307   4.248   9.931 -2.0002 -1.9834 -0.1939
  138SAPE  H10S15010   4.316   4.097   9.852 -2.0779  2.0476 -0.1382
  138SAPE  C21115011   4.352   4.272   9.720 -0.6572 -0.3400 -0.1709
  138SAPE  H11R15012   4.374   4.380   9.727 -0.6800 -0.3876  0.7878
  138SAPE  C21215013   4.284   4.235   9.610  0.3962  0.3800 -0.1412
  138SAPE  H12R15014   4.287   4.299   9.520 -1.2138  2.4437  1.1989
  138SAPE  C21315015   4.211   4.106   9.580  0.2296 -0.1688 -0.1736
  138SAPE  H13R15016   4.102   4.127   9.580  0.0953 -0.7418  1.2651
  138SAPE  H13S15017   4.214   4.033   9.664 -1.9544 -0.3888 -0.2206
  138SAPE  C21415018   4.263   4.049   9.450 -0.0355  0.5163 -0.1108
  138SAPE  H14R15019   4.369   4.059   9.424  0.0280 -2.1572 -1.2211
  138SAPE  C21515020   4.180   3.974   9.367  0.2305 -0.4799  0.0686
  138SAPE  H15R15021   4.229   3.939   9.275 -1.1975  1.9279 -1.7151
  138SAPE  C21615022   4.041   3.930   9.382 -0.4341 -0.2212 -0.0161
  138SAPE  H16R15023   3.997   3.955   9.481  0.4430  1.7247 -0.0785
  138SAPE  H16S15024   4.045   3.819   9.380 -0.2313 -0.2108 -0.4129
  138SAPE  C21715025   3.945   3.972   9.268 -0.4509 -0.1028 -0.5015
  138SAPE  H17R15026   3.922   4.080   9.275 -2.7344 -0.4585 -1.4705
  138SAPE  H17S15027   3.854   3.908   9.269 -1.6600  1.4287  2.6603
  138SAPE  C21815028   4.010   3.957   9.134  0.3572  0.2492  0.5843
  138SAPE  H18R15029   4.054   3.855   9.125 -0.1539  0.1519 -1.2647
  138SAPE  H18S15030   4.092   4.032   9.126  1.8942 -1.2183  1.8929
  138SAPE  C21915031   3.903   3.965   9.025  0.4698  0.7693 -0.0100
  138SAPE  H19R15032   3.845   4.059   9.034  1.9054  1.9845 -2.3197
  138SAPE  H19S15033   3.839   3.874   9.022  0.8181  0.5377 -2.2656
  138SAPE  C22015034   3.954   3.992   8.884  0.2145 -0.4052 -0.4992
  138SAPE  H20R15035   4.033   4.070   8.888  0.7685 -1.0238  1.9243
  138SAPE  H20S15036   3.870   4.010   8.813 -0.2414  1.0070  0.3559
  138SAPE  H20T15037   4.009   3.904   8.845 -0.3363 -1.0643  0.1726
  138SAPE   C3315038   4.918   4.766   9.914 -0.3110  0.3799 -0.5637
  138SAPE   H3X15039   4.822   4.798   9.959 -0.8052 -0.5003 -0.9564
  138SAPE   H3Y15040   4.923   4.656   9.928  2.2942  0.7874  3.1704
  138SAPE   C3415041   4.906   4.791   9.765  0.0176  0.0802  0.0691
  138SAPE   H4X15042   4.887   4.900   9.758  2.1646  0.7832  3.1813
  138SAPE   H4Y15043   4.819   4.735   9.724 -1.1813  0.9237  1.3493
  138SAPE   C3515044   5.042   4.773   9.687 -0.0581 -0.8696 -0.1191
  138SAPE   H5X15045   5.077   4.668   9.697 -2.3042 -1.6385  0.2248
  138SAPE   H5Y15046   5.109   4.848   9.736 -1.6637  2.2322 -2.2912
  138SAPE   C3615047   5.025   4.823   9.538 -0.1734 -1.0659  0.1726
  138SAPE   H6X15048   5.130   4.837   9.502 -0.2314 -1.1700 -0.0401
  138SAPE   H6Y15049   4.981   4.925   9.538  1.5115 -0.2880 -0.7892
  138SAPE   C3715050   4.952   4.726   9.445  0.7570  0.3191  0.2693
  138SAPE   H7X15051   4.845   4.714   9.474  0.6252  0.3362 -0.1932
  138SAPE   H7Y15052   5.004   4.628   9.456 -0.5034 -0.3842  0.1783
  138SAPE   C3815053   4.949   4.765   9.293  0.2570 -0.2038 -0.2204
  138SAPE   H8X15054   5.052   4.787   9.258  0.6077  0.5036  1.1740
  138SAPE   H8Y15055   4.897   4.863   9.295  0.7351  0.0631  2.2384
  138SAPE   C3915056   4.882   4.660   9.211  0.4935  0.1568 -0.7935
  138SAPE   H9X15057   4.797   4.624   9.273  0.6624  0.5649 -0.3139
  138SAPE   H9Y15058   4.953   4.576   9.197  1.2527  1.1564 -3.6057
  138SAPE  C31015059   4.839   4.717   9.072 -0.1054  0.0147 -1.0592
  138SAPE  H10X15060   4.928   4.699   9.008 -0.0115  0.5388 -1.0799
  138SAPE  H10Y15061   4.823   4.827   9.076 -0.1169 -0.0042 -0.5226
  138SAPE  C31115062   4.709   4.660   9.007 -0.8098 -0.0122 -0.4610
  138SAPE  H11X15063   4.621   4.662   9.075 -0.9407  2.0913 -0.6467
  138SAPE  H11Y15064   4.719   4.549   9.002  0.3923  0.0271  0.6382
  138SAPE  C31215065   4.683   4.724   8.872  0.2569  0.1254 -0.5526
  138SAPE  H12X15066   4.673   4.834   8.884  0.5750  0.4206 -2.5724
  138SAPE  H12Y15067   4.586   4.682   8.835 -0.9774  2.9965 -0.8411
  138SAPE  C31315068   4.787   4.714   8.766  0.2778 -0.4952 -0.5506
  138SAPE  H13X15069   4.870   4.771   8.814  0.1793 -2.7204  2.5941
  138SAPE  H13Y15070   4.757   4.774   8.678  0.0113 -0.0898 -0.1876
  138SAPE  C31415071   4.820   4.568   8.741 -0.3949  0.1808 -0.2205
  138SAPE  H14X15072   4.759   4.493   8.796 -0.3154  0.3139  0.0473
  138SAPE  H14Y15073   4.926   4.561   8.774 -0.2478 -0.3535 -0.7699
  138SAPE  C31515074   4.806   4.523   8.595  0.3212  0.9376 -0.1151
  138SAPE  H15X15075   4.806   4.615   8.532 -1.1746 -0.0574 -1.6442
  138SAPE  H15Y15076   4.704   4.482   8.581  0.3062  1.2615 -1.0036
  138SAPE  C31615077   4.912   4.425   8.540  0.6198 -0.0486 -0.4890
  138SAPE  H16X15078   4.932   4.343   8.613 -0.5396  1.9645  2.2916
  138SAPE  H16Y15079   5.012   4.472   8.530  1.0320 -1.2216 -2.2318
  138SAPE  C31715080   4.875   4.375   8.404 -0.1526 -0.3236  0.4514
  138SAPE  H17X15081   4.880   4.458   8.330 -0.8211 -0.5343  0.1610
  138SAPE  H17Y15082   4.774   4.330   8.413 -0.1805 -0.4501 -0.4241
  138SAPE  C31815083   4.969   4.262   8.362  0.4369  0.6409  0.0839
  138SAPE  H18X15084   4.964   4.177   8.434  3.6373 -0.8479 -1.2515
  138SAPE  H18Y15085   5.074   4.299   8.354 -0.1124  2.4697  0.8873
  138SAPE  H18Z15086   4.928   4.212   8.272 -2.0909  0.8238  1.0565
  139SAPE     N15087   4.685   1.053  10.763 -0.2184 -0.8269  0.9399
  139SAPE   HN115088   4.781   1.092  10.773 -0.5228  0.0739  0.5298
  139SAPE   HN215089   4.628   1.134  10.733 -0.0669 -1.2808 -0.6587
  139SAPE   HN315090   4.646   1.017  10.852  0.5995 -0.3082  1.5304
  139SAPE   C1215091   4.684   0.952  10.652  0.2892 -0.4481 -0.0287
  139SAPE  H12A15092   4.736   0.992  10.563  2.6023 -1.4410  0.8005
  139SAPE  H12B15093   4.579   0.938  10.617 -0.4123  1.2665  1.2571
  139SAPE   C1115094   4.722   0.817  10.705  0.0889  0.1124 -0.2176
  139SAPE  H11A15095   4.808   0.817  10.775  0.1184 -1.1067 -0.2299
  139SAPE  H11B15096   4.760   0.756  10.621  0.2369  0.2819 -0.2726
  139SAPE     P15097   4.519   0.642  10.724  0.0538  0.3741 -0.2940
  139SAPE   O1315098   4.575   0.526  10.795  0.1567 -0.1558  0.6687
  139SAPE   O1415099   4.374   0.668  10.736 -0.4634  0.0878  0.3164
  139SAPE   O1215100   4.601   0.765  10.771  0.0561 -0.4424  0.1215
  139SAPE   O1115101   4.569   0.634  10.573 -0.0888 -0.0233  0.0644
  139SAPE    C115102   4.512   0.706  10.470 -0.6000  0.0093  0.2571
  139SAPE    HA15103   4.440   0.785  10.501 -0.5134  0.3995 -0.5081
  139SAPE    HB15104   4.593   0.747  10.405 -1.1047 -1.5120 -1.4342
  139SAPE    C215105   4.441   0.606  10.379  0.7229 -1.0110 -0.3072
  139SAPE    HS15106   4.384   0.662  10.302  1.6794 -1.6964 -1.5461
  139SAPE   O2115107   4.346   0.523  10.459 -0.6250  0.0355  0.4021
  139SAPE   C2115108   4.234   0.591  10.487  0.0009  0.4776 -0.5704
  139SAPE   O2215109   4.221   0.708  10.460  0.1728 -0.1064 -0.2408
  139SAPE   C2215110   4.122   0.506  10.547  0.0257 -0.3175  0.3111
  139SAPE   H2R15111   4.179   0.463  10.632  2.3950 -2.8285 -2.3235
  139SAPE   H2S15112   4.040   0.578  10.572  1.9859  2.1712 -0.0641
  139SAPE    C315113   4.533   0.507  10.304 -0.3059 -0.1401  0.0578
  139SAPE    HX15114   4.464   0.432  10.261 -0.6805 -0.0831  0.5460
  139SAPE    HY15115   4.601   0.460  10.379  0.3104 -0.6237 -0.7791
  139SAPE   O3115116   4.612   0.570  10.208 -0.4459  0.4473 -0.0131
  139SAPE   C3115117   4.586   0.537  10.078 -0.0860 -0.0693  0.1798
  139SAPE   O3215118   4.484   0.481  10.038 -0.1645  0.0065 -0.7573
  139SAPE   C3215119   4.698   0.598   9.989 -0.1719  0.1250  0.4540
  139SAPE   H2X15120   4.784   0.530  10.010  0.0765  0.2330 -0.2049
  139SAPE   H2Y15121   4.712   0.705  10.017  0.1950  0.1211  0.2861
  139SAPE   C2315122   4.074   0.385  10.467 -0.0598  0.1889 -0.1267
  139SAPE   H3R15123   3.993   0.331  10.521  0.1681  0.9070  0.9676
  139SAPE   H3S15124   4.165   0.321  10.455  0.9152  1.3633  0.7379
  139SAPE   C2415125   4.018   0.412  10.325 -0.7134  0.5570 -0.2393
  139SAPE   H4R15126   3.938   0.489  10.327 -1.5797 -0.3032 -0.9250
  139SAPE   H4S15127   3.964   0.324  10.284 -0.3434  1.5117 -2.9537
  139SAPE   C2515128   4.123   0.440  10.219  0.2099  0.4876  0.3524
  139SAPE   H5R15129   4.195   0.357  10.207 -2.1136 -1.5969  0.0712
  139SAPE   C2615130   4.140   0.544  10.144  0.6809 -0.3674 -0.0292
  139SAPE   H6R15131   4.213   0.538  10.062  0.8269 -2.0732  0.2021
  139SAPE   C2715132   4.040   0.663  10.147  0.1676  0.4415  0.8628
  139SAPE   H7R15133   4.039   0.704  10.250 -0.5004 -0.1585  1.0992
  139SAPE   H7S15134   3.937   0.627  10.126 -0.1548  1.8189 -0.0337
  139SAPE   C2815135   4.081   0.778  10.055  0.3502  0.8169  0.1503
  139SAPE   H8R15136   4.134   0.863  10.101  0.7106  1.9721 -2.2160
  139SAPE   C2915137   4.074   0.770   9.914 -0.4130  0.2188  0.1566
  139SAPE   H9R15138   4.090   0.867   9.866  0.5426 -0.0373 -0.0649
  139SAPE  C21015139   4.027   0.652   9.834  0.4308 -0.2220  0.6413
  139SAPE  H10R15140   3.950   0.686   9.761 -1.0942 -1.8960  1.3887
  139SAPE  H10S15141   3.973   0.578   9.897 -0.1042 -0.4122 -0.0218
  139SAPE  C21115142   4.139   0.580   9.761 -0.2605  0.6958  0.7366
  139SAPE  H11R15143   4.166   0.483   9.804  0.3436  1.1208  1.3266
  139SAPE  C21215144   4.196   0.611   9.644 -0.2741  0.6891  0.3920
  139SAPE  H12R15145   4.281   0.554   9.602  1.0604  3.1785 -0.4831
  139SAPE  C21315146   4.153   0.729   9.560 -0.3471 -0.1462  0.4913
  139SAPE  H13R15147   4.239   0.786   9.519 -1.2404  0.4081 -0.6758
  139SAPE  H13S15148   4.104   0.808   9.621  1.0348  0.0928  1.3185
  139SAPE  C21415149   4.059   0.675   9.449  0.3137 -0.3619 -0.3143
  139SAPE  H14R15150   4.041   0.566   9.453  2.7542 -0.8120 -0.4592
  139SAPE  C21515151   4.016   0.747   9.343 -0.6002  0.2991  0.0014
  139SAPE  H15R15152   3.956   0.691   9.270 -0.2055 -1.7964  1.1929
  139SAPE  C21615153   4.050   0.893   9.314 -0.1762 -0.1991  0.4059
  139SAPE  H16R15154   4.109   0.937   9.398  0.6162 -3.4042  1.6576
  139SAPE  H16S15155   3.960   0.958   9.303  0.2785  0.3050 -0.4452
  139SAPE  C21715156   4.149   0.921   9.196  0.1380  0.6282  0.0998
  139SAPE  H17R15157   4.244   0.868   9.221 -0.0017  0.0578 -0.5507
  139SAPE  H17S15158   4.171   1.030   9.194  0.6318  0.5343  0.1660
  139SAPE  C21815159   4.108   0.880   9.054  0.0544  0.4852 -0.5733
  139SAPE  H18R15160   4.024   0.943   9.017 -0.5505 -0.7370 -1.3747
  139SAPE  H18S15161   4.062   0.779   9.058 -3.4021  1.9264  1.2332
  139SAPE  C21915162   4.231   0.873   8.968  0.0209  1.3496 -0.0242
  139SAPE  H19R15163   4.308   0.803   9.005  1.0378  1.7696 -1.2638
  139SAPE  H19S15164   4.283   0.972   8.966  1.9838  0.3551 -0.2155
  139SAPE  C22015165   4.214   0.833   8.824 -0.6601 -0.5449  0.0256
  139SAPE  H20R15166   4.139   0.751   8.820  0.4426 -1.8383  2.9801
  139SAPE  H20S15167   4.316   0.803   8.792 -0.2581  0.3415  0.4388
  139SAPE  H20T15168   4.173   0.913   8.759 -1.6395 -0.0226  1.2314
  139SAPE   C3315169   4.661   0.578   9.846  0.2797 -0.4605  0.6888
  139SAPE   H3X15170   4.558   0.612   9.820  0.4675 -1.5020 -1.6819
  139SAPE   H3Y15171   4.651   0.468   9.833 -2.4362 -0.2334  0.1758
  139SAPE   C3415172   4.752   0.632   9.741 -0.3874 -0.2671 -0.5775
  139SAPE   H4X15173   4.853   0.586   9.750 -0.1513  0.1138 -1.2268
  139SAPE   H4Y15174   4.775   0.738   9.763  0.3835 -0.3206 -1.0993
  139SAPE   C3515175   4.706   0.614   9.596  0.0713  0.7726  0.1930
  139SAPE   H5X15176   4.775   0.677   9.536  2.3021 -1.7172 -0.0123
  139SAPE   H5Y15177   4.600   0.644   9.582 -0.5249 -0.5214  1.6748
  139SAPE   C3615178   4.709   0.469   9.550 -0.0170 -0.1272  0.4188
  139SAPE   H6X15179   4.632   0.405   9.600 -1.3102  0.4595 -0.7632
  139SAPE   H6Y15180   4.810   0.426   9.566 -0.4286 -0.6141  1.8197
  139SAPE   C3715181   4.680   0.453   9.398 -0.4693 -0.7255 -0.4390
  139SAPE   H7X15182   4.773   0.472   9.341 -0.9011 -0.2767 -1.0019
  139SAPE   H7Y15183   4.601   0.526   9.371 -1.1831 -1.5938 -0.7762
  139SAPE   C3815184   4.649   0.305   9.345  0.0575  0.0665  0.3329
  139SAPE   H8X15185   4.578   0.246   9.407 -0.6187 -0.6048 -1.0220
  139SAPE   H8Y15186   4.735   0.236   9.338  0.5393  0.5261  1.5738
  139SAPE   C3915187   4.594   0.309   9.202 -0.0128 -0.1408 -0.0957
  139SAPE   H9X15188   4.531   0.399   9.184  0.2716  0.7717  2.9842
  139SAPE   H9Y15189   4.541   0.214   9.182  1.2523 -0.6692 -1.0744
  139SAPE  C31015190   4.695   0.320   9.086 -0.3213 -0.3526 -0.4157
  139SAPE  H10X15191   4.645   0.317   8.987 -0.8978 -2.3150 -0.1208
  139SAPE  H10Y15192   4.762   0.233   9.102 -0.5541 -0.3821  0.4591
  139SAPE  C31115193   4.781   0.447   9.090 -0.4146 -1.1317 -0.1529
  139SAPE  H11X15194   4.867   0.446   9.160  0.6219  0.9809 -1.2991
  139SAPE  H11Y15195   4.708   0.528   9.113 -0.0907 -0.8228 -0.2091
  139SAPE  C31215196   4.839   0.481   8.955 -0.4966  0.1116  0.4748
  139SAPE  H12X15197   4.886   0.582   8.965 -1.6264  0.8741 -1.4092
  139SAPE  H12Y15198   4.751   0.493   8.888  0.1512  0.1606 -0.3863
  139SAPE  C31315199   4.946   0.369   8.918 -0.0992 -0.6833  0.2218
  139SAPE  H13X15200   4.886   0.276   8.912  0.0966 -0.7609 -0.6213
  139SAPE  H13Y15201   5.020   0.373   9.001  1.2621 -0.0311 -0.9825
  139SAPE  C31415202   4.999   0.405   8.781 -0.2048 -0.1777  0.3243
  139SAPE  H14X15203   5.002   0.516   8.776 -0.1172 -0.1044  1.6803
  139SAPE  H14Y15204   4.935   0.355   8.704  2.0013 -1.9215 -0.4908
  139SAPE  C31515205   5.134   0.357   8.729 -0.0591 -0.6578 -0.2863
  139SAPE  H15X15206   5.138   0.246   8.742  0.5011 -0.6058  0.0205
  139SAPE  H15Y15207   5.215   0.404   8.790 -0.1171  0.7283 -1.2400
  139SAPE  C31615208   5.154   0.399   8.586 -0.2784  1.2417  0.0019
  139SAPE  H16X15209   5.092   0.349   8.508  1.3898  0.6631 -1.0004
  139SAPE  H16Y15210   5.134   0.507   8.575 -1.6718  0.8002 -2.6569
  139SAPE  C31715211   5.298   0.348   8.536  0.7011 -0.2872 -0.5183
  139SAPE  H17X15212   5.305   0.239   8.559 -0.2454  0.5657  5.2333
  139SAPE  H17Y15213   5.375   0.398   8.597 -0.5846 -0.6653  1.5064
  139SAPE  C31815214   5.318   0.380   8.392  0.6002  0.0518  0.8367
  139SAPE  H18X15215   5.295   0.483   8.358 -1.0926 -0.6914 -0.4437
  139SAPE  H18Y15216   5.239   0.327   8.335  1.3625  0.0696 -0.2689
  139SAPE  H18Z15217   5.411   0.345   8.342 -0.0052  3.5502 -3.3686
  140SAPE     N15218   5.764   0.217  11.022 -0.6184 -0.0104 -0.0324
  140SAPE   HN115219   5.802   0.281  11.094 -0.5886 -1.9578  1.8051
  140SAPE   HN215220   5.848   0.182  10.972 -0.1088  2.1471 -0.7646
  140SAPE   HN315221   5.691   0.264  10.966 -1.4319 -2.6736 -1.3891
  140SAPE   C1215222   5.703   0.095  11.089 -0.8434  0.3131 -0.7354
  140SAPE  H12A15223   5.635   0.127  11.170  1.4580  0.8603  1.0805
  140SAPE  H12B15224   5.785   0.045  11.145 -2.6200 -0.2443  1.5319
  140SAPE   C1115225   5.642  -0.002  10.989  0.1622 -0.1167  0.5672
  140SAPE  H11A15226   5.546   0.034  10.946  0.6288 -1.0857 -1.3669
  140SAPE  H11B15227   5.610  -0.091  11.048 -2.1411  0.6416  0.5716
  140SAPE     P15228   5.760  -0.176  10.844 -0.2911 -0.2276 -0.4003
  140SAPE   O1315229   5.860  -0.176  10.732 -0.0299  0.0458 -0.5807
  140SAPE   O1415230   5.789  -0.256  10.964 -0.0854  0.0864  0.1805
  140SAPE   O1215231   5.736  -0.027  10.891  0.4589  0.1745  0.8811
  140SAPE   O1115232   5.610  -0.213  10.796  0.3175  0.3699  0.1773
  140SAPE    C115233   5.527  -0.125  10.716 -0.7272 -0.5386 -0.2791
  140SAPE    HA15234   5.422  -0.126  10.751 -0.8808  1.3322 -0.6182
  140SAPE    HB15235   5.563  -0.020  10.719 -0.8605 -0.5000  0.0781
  140SAPE    C215236   5.532  -0.165  10.571 -0.1933 -0.4206 -0.0984
  140SAPE    HS15237   5.504  -0.272  10.579  1.8163 -0.8714  2.3817
  140SAPE   O2115238   5.672  -0.157  10.523 -0.0452  0.2477 -0.5613
  140SAPE   C2115239   5.698  -0.243  10.423  0.7653  0.3146  0.0487
  140SAPE   O2215240   5.622  -0.326  10.377 -0.5333  0.1602 -1.1949
  140SAPE   C2215241   5.840  -0.228  10.376  0.0712  0.3221 -0.2719
  140SAPE   H2R15242   5.858  -0.119  10.368  2.8373 -0.1321 -1.0821
  140SAPE   H2S15243   5.905  -0.256  10.461  0.8029 -0.5554 -1.0941
  140SAPE    C315244   5.437  -0.082  10.481 -0.6298  0.0748  0.0555
  140SAPE    HX15245   5.459   0.027  10.474  2.7974 -0.5879 -1.9052
  140SAPE    HY15246   5.338  -0.080  10.532  0.0343 -1.0236  1.4617
  140SAPE   O3115247   5.409  -0.136  10.355 -0.1731  0.3328  0.2510
  140SAPE   C3115248   5.479  -0.088  10.249  0.0756 -0.5459 -0.2634
  140SAPE   O3215249   5.561   0.001  10.254 -0.2091  0.3154 -0.2502
  140SAPE   C3215250   5.434  -0.155  10.117 -0.1277  0.1145 -0.9673
  140SAPE   H2X15251   5.439  -0.265  10.135  2.9272  0.4564  0.9568
  140SAPE   H2Y15252   5.517  -0.141  10.045  0.9289 -1.0399 -0.0295
  140SAPE   C2315253   5.870  -0.311  10.250 -0.7394  0.3041  0.1949
  140SAPE   H3R15254   5.799  -0.294  10.167 -0.5876 -0.2884 -0.0643
  140SAPE   H3S15255   5.864  -0.419  10.277  1.9486 -0.3265 -1.4036
  140SAPE   C2415256   6.011  -0.273  10.201  0.3034  0.2312 -0.2712
  140SAPE   H4R15257   6.045  -0.344  10.122  1.2892 -0.0193  0.3653
  140SAPE   H4S15258   6.081  -0.290  10.285 -2.3827  1.4528  2.4136
  140SAPE   C2515259   6.019  -0.127  10.156 -0.7707  0.1759 -0.1766
  140SAPE   H5R15260   6.025  -0.058  10.241  1.6479 -0.5308  0.2758
  140SAPE   C2615261   6.059  -0.079  10.039 -0.1720 -0.4665  0.1224
  140SAPE   H6R15262   6.065   0.030  10.027  1.7363 -0.6641 -1.2023
  140SAPE   C2715263   6.090  -0.156   9.912  0.3261  0.2182 -1.3343
  140SAPE   H7R15264   6.099  -0.261   9.947 -1.9605  0.6975  1.0169
  140SAPE   H7S15265   6.192  -0.130   9.877  1.7953  1.0224  3.0184
  140SAPE   C2815266   5.976  -0.137   9.812 -0.2964  0.9246  0.0592
  140SAPE   H8R15267   5.874  -0.163   9.844  0.0912 -0.5189  0.2235
  140SAPE   C2915268   5.994  -0.104   9.687 -0.4757 -0.4490  0.2375
  140SAPE   H9R15269   5.908  -0.078   9.623  0.7424  1.3309 -0.8050
  140SAPE  C21015270   6.126  -0.066   9.624  0.9481  0.1363 -0.0976
  140SAPE  H10R15271   6.157  -0.140   9.547 -0.1955  0.7934 -1.2404
  140SAPE  H10S15272   6.216  -0.055   9.689  0.7520 -0.3049  0.2598
  140SAPE  C21115273   6.122   0.075   9.557  0.3235  0.0985  0.1525
  140SAPE  H11R15274   6.132   0.153   9.634 -3.0341 -1.1417  2.0530
  140SAPE  C21215275   6.121   0.099   9.425  0.0331  0.3170 -0.4084
  140SAPE  H12R15276   6.125   0.206   9.401  0.6572  0.1779 -0.9784
  140SAPE  C21315277   6.107  -0.000   9.313  0.2982  0.6445  0.4321
  140SAPE  H13R15278   6.000  -0.010   9.285 -0.1142  1.7282  1.5302
  140SAPE  H13S15279   6.139  -0.102   9.345 -0.4337  1.1986  3.2154
  140SAPE  C21415280   6.201   0.027   9.196  0.1537  0.4820  0.7132
  140SAPE  H14R15281   6.290   0.075   9.240  0.0926  0.5832  0.7282
  140SAPE  C21515282   6.193  -0.015   9.064  0.2282 -0.3215 -0.6904
  140SAPE  H15R15283   6.268   0.022   8.992  0.1101  1.1906 -0.0627
  140SAPE  C21615284   6.086  -0.104   9.002 -0.1075  0.2150  0.0824
  140SAPE  H16R15285   6.031  -0.050   8.923 -1.0951 -1.2445 -0.2506
  140SAPE  H16S15286   6.007  -0.117   9.079 -1.0783  0.5058 -0.8563
  140SAPE  C21715287   6.133  -0.239   8.943 -0.0818 -0.4354 -0.0993
  140SAPE  H17R15288   6.048  -0.308   8.926 -1.8843  0.8726  2.8259
  140SAPE  H17S15289   6.197  -0.293   9.016  1.8248  2.8479  0.8882
  140SAPE  C21815290   6.223  -0.222   8.821 -0.6678 -0.9282  0.7377
  140SAPE  H18R15291   6.279  -0.316   8.798 -1.7343 -1.0176 -1.8560
  140SAPE  H18S15292   6.304  -0.148   8.840 -2.6162  0.5197  4.2343
  140SAPE  C21915293   6.142  -0.187   8.693 -0.3821  1.1600  0.8562
  140SAPE  H19R15294   6.071  -0.107   8.721 -3.2904 -0.9703 -0.0052
  140SAPE  H19S15295   6.076  -0.273   8.669  1.1328  0.6218 -1.7817
  140SAPE  C22015296   6.223  -0.157   8.571 -0.4118  0.3231 -0.8856
  140SAPE  H20R15297   6.165  -0.142   8.477  0.2616  1.5127 -1.1263
  140SAPE  H20S15298   6.292  -0.243   8.555 -0.5375  0.3535 -1.6300
  140SAPE  H20T15299   6.294  -0.079   8.606 -0.2868 -0.9417  1.9565
  140SAPE   C3315300   5.288  -0.106  10.078  0.5235  0.5549 -0.1937
  140SAPE   H3X15301   5.288   0.003  10.059  1.1191  0.4408 -0.8875
  140SAPE   H3Y15302   5.221  -0.113  10.167  1.1546  0.0336  0.2563
  140SAPE   C3415303   5.246  -0.182   9.950 -0.4213 -0.2933  0.5741
  140SAPE   H4X15304   5.140  -0.161   9.922  0.4323  0.3476 -2.4477
  140SAPE   H4Y15305   5.245  -0.290   9.976  0.1406 -0.6822 -0.9772
  140SAPE   C3515306   5.340  -0.144   9.835 -0.2023 -0.0719 -0.3586
  140SAPE   H5X15307   5.438  -0.195   9.838  0.5460  1.3559  0.4894
  140SAPE   H5Y15308   5.356  -0.035   9.840 -0.5577  0.0315 -1.4041
  140SAPE   C3615309   5.297  -0.197   9.699  0.0223 -0.4603 -0.3965
  140SAPE   H6X15310   5.198  -0.147   9.688  0.5951  0.9867  0.6526
  140SAPE   H6Y15311   5.277  -0.306   9.692  2.5962 -0.9442 -1.2163
  140SAPE   C3715312   5.376  -0.142   9.580  0.6939  0.0927 -0.0276
  140SAPE   H7X15313   5.479  -0.182   9.570  0.2464 -1.5348  1.5005
  140SAPE   H7Y15314   5.393  -0.033   9.597 -0.7791  0.4837 -0.7913
  140SAPE   C3815315   5.311  -0.135   9.437 -0.1327 -0.7661 -0.1031
  140SAPE   H8X15316   5.394  -0.093   9.377 -0.6364  2.2139  1.1342
  140SAPE   H8Y15317   5.224  -0.067   9.452  1.2854  1.1225 -0.1269
  140SAPE   C3915318   5.267  -0.270   9.382  0.2458 -0.7593 -0.1489
  140SAPE   H9X15319   5.197  -0.263   9.296  1.8854 -0.5373 -1.5145
  140SAPE   H9Y15320   5.202  -0.310   9.463 -1.1843  0.2892 -0.7366
  140SAPE  C31015321   5.379  -0.361   9.344 -0.1206 -0.3102  1.4083
  140SAPE  H10X15322   5.342  -0.465   9.333 -0.2694 -0.1880  0.6923
  140SAPE  H10Y15323   5.463  -0.363   9.417  1.0763 -0.8165  0.0565
  140SAPE  C31115324   5.445  -0.330   9.205 -0.2088 -0.3582 -0.2181
  140SAPE  H11X15325   5.524  -0.402   9.174  0.1809  0.3961 -1.0429
  140SAPE  H11Y15326   5.507  -0.238   9.214 -1.9177  0.7135  1.3095
  140SAPE  C31215327   5.349  -0.309   9.088  0.7654 -0.0259 -0.2464
  140SAPE  H12X15328   5.278  -0.226   9.110 -0.7273 -1.4539  0.5983
  140SAPE  H12Y15329   5.285  -0.400   9.082 -1.7862  1.6939 -0.7515
  140SAPE  C31315330   5.418  -0.292   8.950 -0.3103  0.1597  0.8716
  140SAPE  H13X15331   5.498  -0.368   8.932  1.2672  1.7781  0.8180
  140SAPE  H13Y15332   5.475  -0.197   8.956  1.1016 -0.5281 -0.8496
  140SAPE  C31415333   5.324  -0.304   8.830  0.1548 -0.2485 -0.9575
  140SAPE  H14X15334   5.246  -0.229   8.853  0.0407 -1.3530  2.9630
  140SAPE  H14Y15335   5.283  -0.407   8.826 -2.0121  0.4834  0.7267
  140SAPE  C31515336   5.385  -0.278   8.693  0.3772 -0.3288  0.4675
  140SAPE  H15X15337   5.462  -0.352   8.664  1.9631  2.1478 -2.2766
  140SAPE  H15Y15338   5.430  -0.178   8.677  0.6595 -0.8167 -2.2650
  140SAPE  C31615339   5.264  -0.278   8.596  0.0272  0.1388  0.0610
  140SAPE  H16X15340   5.205  -0.186   8.616  0.9158  0.9902 -1.1268
  140SAPE  H16Y15341   5.211  -0.376   8.602  1.6624 -0.9843 -2.3161
  140SAPE  C31715342   5.313  -0.257   8.451 -0.0308 -0.3382 -0.0585
  140SAPE  H17X15343   5.222  -0.231   8.394  0.3298  2.3880  0.4671
  140SAPE  H17Y15344   5.346  -0.348   8.397  0.1610 -0.1166 -0.3179
  140SAPE  C31815345   5.404  -0.136   8.429  0.1643 -0.4150  0.8217
  140SAPE  H18X15346   5.362  -0.040   8.465  0.6651 -0.6120  1.9708
  140SAPE  H18Y15347   5.411  -0.110   8.321 -0.7038 -3.4249 -0.0526
  140SAPE  H18Z15348   5.507  -0.151   8.469  1.6940  1.1045 -2.1958
  141SAPE     N15349   6.230   0.506  10.763 -0.8333  0.6184 -0.4045
  141SAPE   HN115350   6.267   0.517  10.859  0.5168  0.6044 -0.8992
  141SAPE   HN215351   6.127   0.516  10.759 -0.7026  1.8659 -1.2541
  141SAPE   HN315352   6.264   0.418  10.718  1.7263  2.0139 -1.4310
  141SAPE   C1215353   6.291   0.621  10.697  0.1911 -0.5268  1.1043
  141SAPE  H12A15354   6.239   0.709  10.742 -3.6611  0.0893 -3.6572
  141SAPE  H12B15355   6.255   0.629  10.592  0.7475  1.2145  1.0130
  141SAPE   C1115356   6.438   0.610  10.699 -0.9229  0.6716 -0.5669
  141SAPE  H11A15357   6.488   0.707  10.676 -1.9568  1.8112  1.6206
  141SAPE  H11B15358   6.468   0.537  10.621  1.3563 -0.3871  1.1624
  141SAPE     P15359   6.642   0.560  10.867  0.1376  0.1593 -0.3277
  141SAPE   O1315360   6.690   0.691  10.925 -1.2538  0.1551 -0.0805
  141SAPE   O1415361   6.670   0.430  10.928  0.0622 -0.0808  0.3761
  141SAPE   O1215362   6.489   0.575  10.827  0.7674  0.0909  0.3371
  141SAPE   O1115363   6.715   0.528  10.731 -0.1829  0.0373 -0.2441
  141SAPE    C115364   6.782   0.612  10.644 -0.3926 -0.2870  0.5392
  141SAPE    HA15365   6.733   0.712  10.647 -0.7610 -0.4329 -0.4250
  141SAPE    HB15366   6.879   0.649  10.686 -0.4975  0.6664 -0.0146
  141SAPE    C215367   6.796   0.568  10.499  0.7125 -0.3007  0.3127
  141SAPE    HS15368   6.886   0.621  10.464  1.8205 -2.3117 -0.0357
  141SAPE   O2115369   6.667   0.583  10.432 -0.4819  0.2726  0.4661
  141SAPE   C2115370   6.686   0.635  10.306  0.3454 -0.9280 -0.1554
  141SAPE   O2215371   6.789   0.677  10.259  0.2397 -0.3142  0.2307
  141SAPE   C2215372   6.561   0.609  10.227  0.2397 -0.2849  0.1830
  141SAPE   H2R15373   6.501   0.525  10.269 -1.6590  1.1679  0.4887
  141SAPE   H2S15374   6.503   0.703  10.240  0.5575  0.0894 -0.9969
  141SAPE    C315375   6.840   0.421  10.481 -0.1509 -0.7717 -0.1188
  141SAPE    HX15376   6.752   0.364  10.519 -1.1061  0.6048 -0.2041
  141SAPE    HY15377   6.935   0.415  10.539 -0.2721 -0.4631  0.1130
  141SAPE   O3115378   6.854   0.404  10.341 -0.6886  0.3249  0.6638
  141SAPE   C3115379   6.852   0.288  10.288  0.0484 -0.0731 -0.7665
  141SAPE   O3215380   6.816   0.183  10.340  0.2901  0.4195  0.1522
  141SAPE   C3215381   6.902   0.296  10.142 -0.0527 -0.4078 -0.3276
  141SAPE   H2X15382   7.004   0.338  10.157 -0.6799  0.9763  0.2753
  141SAPE   H2Y15383   6.829   0.369  10.102 -0.2666 -0.9276 -0.9058
  141SAPE   C2315384   6.594   0.577  10.077  0.7138 -0.5801  0.0975
  141SAPE   H3R15385   6.663   0.489  10.077 -0.8565 -1.9580 -2.5017
  141SAPE   H3S15386   6.638   0.661  10.019  1.9704 -1.1489  0.1884
  141SAPE   C2415387   6.459   0.543  10.005 -0.1008  0.3296 -0.1908
  141SAPE   H4R15388   6.426   0.648   9.992  2.0931  0.8853 -1.8912
  141SAPE   H4S15389   6.385   0.503  10.077  1.7326 -0.9127  1.1175
  141SAPE   C2515390   6.466   0.470   9.872 -0.2165  0.4527 -0.1554
  141SAPE   H5R15391   6.557   0.409   9.874 -1.6026 -1.7749  2.2920
  141SAPE   C2615392   6.383   0.475   9.769 -0.0271 -0.2059  0.2404
  141SAPE   H6R15393   6.412   0.424   9.676  2.8284  4.0414 -1.4959
  141SAPE   C2715394   6.250   0.550   9.774 -0.2063  0.5117  0.4941
  141SAPE   H7R15395   6.253   0.634   9.701 -2.1744 -0.0171 -0.2677
  141SAPE   H7S15396   6.237   0.597   9.873 -2.2446 -0.5191  0.7769
  141SAPE   C2815397   6.134   0.463   9.739 -0.1503 -0.4459  0.3042
  141SAPE   H8R15398   6.108   0.393   9.820 -0.0595  0.0210  0.7432
  141SAPE   C2915399   6.084   0.432   9.617 -1.1221 -0.1292 -0.8288
  141SAPE   H9R15400   6.004   0.356   9.613  0.2761 -1.6724 -0.6649
  141SAPE  C21015401   6.125   0.501   9.499 -0.1600 -0.0122 -0.3545
  141SAPE  H10R15402   6.140   0.429   9.416 -1.0265 -0.6247  0.0045
  141SAPE  H10S15403   6.227   0.544   9.510 -0.5425  0.4829  1.8585
  141SAPE  C21115404   6.032   0.611   9.452 -0.0879  0.0412  0.0414
  141SAPE  H11R15405   5.959   0.657   9.520  0.3899 -0.4532  0.9098
  141SAPE  C21215406   6.034   0.674   9.331  0.1622  0.2851  0.7714
  141SAPE  H12R15407   5.963   0.756   9.319 -0.5795 -0.4119  0.2724
  141SAPE  C21315408   6.134   0.662   9.214  0.4028 -0.8400 -0.5714
  141SAPE  H13R15409   6.082   0.607   9.133 -0.7024 -0.2193 -0.3195
  141SAPE  H13S15410   6.219   0.594   9.233  1.3091 -0.4625 -3.0544
  141SAPE  C21415411   6.186   0.796   9.162  0.6954  0.0925 -0.0269
  141SAPE  H14R15412   6.267   0.834   9.226  1.2569  0.7643 -1.1166
  141SAPE  C21515413   6.144   0.861   9.054  0.0302  0.4585  0.0645
  141SAPE  H15R15414   6.189   0.957   9.024 -0.0680  0.5059  0.0688
  141SAPE  C21615415   6.040   0.810   8.958  0.4640  0.4499 -0.0538
  141SAPE  H16R15416   5.946   0.870   8.968 -0.0785 -0.4185  0.1268
  141SAPE  H16S15417   6.021   0.702   8.975  2.0620 -0.1405 -1.7889
  141SAPE  C21715418   6.092   0.830   8.813  0.3382 -0.0459  0.2575
  141SAPE  H17R15419   6.188   0.777   8.797  0.0747 -0.2871 -0.5534
  141SAPE  H17S15420   6.116   0.937   8.793 -1.8320  0.3957 -0.2652
  141SAPE  C21815421   5.989   0.781   8.701 -0.2789 -0.6014 -0.4742
  141SAPE  H18R15422   5.885   0.813   8.725  0.1521  0.5895 -0.1666
  141SAPE  H18S15423   5.997   0.670   8.692  1.6601 -0.4601 -0.9376
  141SAPE  C21915424   6.015   0.847   8.572 -0.3313 -0.1836 -0.1453
  141SAPE  H19R15425   6.118   0.840   8.530 -0.4894 -2.3094 -0.2860
  141SAPE  H19S15426   6.003   0.956   8.590 -0.0945 -0.0546 -0.7281
  141SAPE  C22015427   5.923   0.810   8.457  0.3140  0.3377  0.2082
  141SAPE  H20R15428   5.930   0.888   8.379 -0.0264  0.3969  0.2370
  141SAPE  H20S15429   5.816   0.820   8.483 -0.4736 -0.5972 -2.3770
  141SAPE  H20T15430   5.951   0.712   8.412  0.8140  1.1549 -1.2835
  141SAPE   C3315431   6.912   0.161  10.065 -0.0288 -0.3302 -0.4906
  141SAPE   H3X15432   6.834   0.086  10.091 -1.9661  2.4206  2.3792
  141SAPE   H3Y15433   7.000   0.099  10.094 -0.3792 -0.8322 -0.4955
  141SAPE   C3415434   6.936   0.196   9.919 -0.3404  0.1017  0.3848
  141SAPE   H4X15435   7.021   0.268   9.923  0.3654 -0.7315  0.5424
  141SAPE   H4Y15436   6.842   0.245   9.885 -0.3440 -0.4296 -0.4030
  141SAPE   C3515437   6.970   0.072   9.839  0.5290 -0.4313 -0.3996
  141SAPE   H5X15438   6.894  -0.006   9.858 -0.8789  0.7769 -0.9206
  141SAPE   H5Y15439   7.065   0.032   9.881  0.3733 -0.2774  0.1094
  141SAPE   C3615440   7.008   0.092   9.693  0.1551  0.5078 -0.1013
  141SAPE   H6X15441   7.090   0.165   9.676  0.7732 -0.3725 -0.9446
  141SAPE   H6Y15442   6.919   0.143   9.649  0.4543  0.5379 -0.6846
  141SAPE   C3715443   7.048  -0.040   9.630  0.1582  0.0592  0.0175
  141SAPE   H7X15444   7.014  -0.125   9.693  1.0389  0.4558  1.0624
  141SAPE   H7Y15445   7.158  -0.048   9.635  0.0880 -2.7042 -1.2465
  141SAPE   C3815446   6.995  -0.063   9.487 -0.1806  0.4983  0.2505
  141SAPE   H8X15447   7.017   0.020   9.417 -2.6567 -0.1744 -1.4649
  141SAPE   H8Y15448   6.885  -0.075   9.480 -0.2529  1.7572 -1.3809
  141SAPE   C3915449   7.043  -0.198   9.428  0.0873 -0.8672 -1.0163
  141SAPE   H9X15450   7.061  -0.274   9.507 -1.1758  0.1008  0.2466
  141SAPE   H9Y15451   7.139  -0.173   9.379 -0.2053 -1.0814 -1.7137
  141SAPE  C31015452   6.951  -0.252   9.323 -0.0638 -0.1249  0.6624
  141SAPE  H10X15453   6.895  -0.163   9.287  0.2233  0.5445  1.8452
  141SAPE  H10Y15454   6.884  -0.321   9.378  1.8631 -2.4401  0.2610
  141SAPE  C31115455   7.030  -0.321   9.209  0.3955 -0.6908 -0.2840
  141SAPE  H11X15456   7.078  -0.415   9.246  1.6959 -0.3838 -1.0995
  141SAPE  H11Y15457   7.115  -0.262   9.167  0.0336  0.5061  0.6270
  141SAPE  C31215458   6.944  -0.350   9.083  0.5709  1.0622  0.2830
  141SAPE  H12X15459   6.908  -0.260   9.029 -0.7275  0.4936  0.1560
  141SAPE  H12Y15460   6.852  -0.399   9.123 -0.5282  2.3600 -0.5764
  141SAPE  C31315461   7.019  -0.423   8.966  0.4202 -0.4314 -0.1662
  141SAPE  H13X15462   7.052  -0.524   8.997  0.4128 -0.3528  0.1033
  141SAPE  H13Y15463   7.103  -0.357   8.938  1.4786  0.3169  4.0422
  141SAPE  C31415464   6.940  -0.435   8.832 -0.1853 -0.0788 -0.1314
  141SAPE  H14X15465   6.896  -0.335   8.811  0.9358  0.5807  0.5926
  141SAPE  H14Y15466   6.870  -0.521   8.839 -1.3437  0.8915  0.5297
  141SAPE  C31515467   7.032  -0.453   8.708  0.0978 -0.4759  0.1144
  141SAPE  H15X15468   7.084  -0.359   8.681  0.6116 -0.3158  1.5796
  141SAPE  H15Y15469   6.965  -0.474   8.623  0.2005 -0.9806  0.1522
  141SAPE  C31615470   7.137  -0.564   8.723  0.9013 -0.6060 -0.4007
  141SAPE  H16X15471   7.082  -0.658   8.739 -1.5809  0.9899  1.1260
  141SAPE  H16Y15472   7.202  -0.546   8.811  0.9112  0.2598 -0.5701
  141SAPE  C31715473   7.214  -0.585   8.592 -0.3319 -0.2759  0.1207
  141SAPE  H17X15474   7.297  -0.659   8.593  0.0524  0.1472 -0.1087
  141SAPE  H17Y15475   7.263  -0.487   8.578  0.0463 -0.6735 -1.5820
  141SAPE  C31815476   7.135  -0.604   8.467 -0.8059  0.0915  0.1689
  141SAPE  H18X15477   7.100  -0.508   8.423 -0.4631  0.1894  0.1097
  141SAPE  H18Y15478   7.040  -0.659   8.483 -1.8743  0.8571 -2.8859
  141SAPE  H18Z15479   7.194  -0.650   8.386 -0.7309  2.5078 -1.2436
  142SAPE     N15480   1.354   6.462  11.226 -0.6149 -0.2847  0.1104
  142SAPE   HN115481   1.447   6.449  11.270  0.2872 -0.6060 -1.8358
  142SAPE   HN215482   1.291   6.507  11.296 -1.9085 -2.9917  0.8401
  142SAPE   HN315483   1.298   6.376  11.211  0.5451 -1.0924  0.3182
  142SAPE   C1215484   1.408   6.532  11.102 -0.4165  0.2465  0.0643
  142SAPE  H12A15485   1.488   6.462  11.069 -0.1423 -0.7795  2.6367
  142SAPE  H12B15486   1.456   6.627  11.133 -0.7333  0.2971  0.4071
  142SAPE   C1115487   1.302   6.562  10.990  0.5968 -1.0830 -0.8245
  142SAPE  H11A15488   1.261   6.465  10.954  0.3458 -0.8650 -1.1277
  142SAPE  H11B15489   1.357   6.609  10.906  0.5891 -0.8107 -0.6785
  142SAPE     P15490   1.199   6.791  11.076  0.1442 -0.1449 -0.4252
  142SAPE   O1315491   1.091   6.834  11.164  0.0201 -0.0944  0.1728
  142SAPE   O1415492   1.332   6.818  11.126  0.1671 -0.6187  0.5291
  142SAPE   O1215493   1.189   6.643  11.036 -0.0042  0.4270 -0.2180
  142SAPE   O1115494   1.175   6.841  10.929 -0.0435  0.1929 -0.1728
  142SAPE    C115495   1.058   6.821  10.851 -0.9300 -0.0874 -0.4168
  142SAPE    HA15496   1.003   6.730  10.884  1.0367 -0.5354  1.8217
  142SAPE    HB15497   0.977   6.894  10.872 -0.7926 -0.0583  0.0156
  142SAPE    C215498   1.097   6.819  10.699 -0.0470 -0.2603  0.2939
  142SAPE    HS15499   0.997   6.820  10.650 -0.1872 -1.1847  0.5483
  142SAPE   O2115500   1.174   6.699  10.662 -0.4972  0.0300 -0.0773
  142SAPE   C2115501   1.087   6.595  10.654  0.2080 -0.5095  1.1232
  142SAPE   O2215502   0.968   6.603  10.665 -0.1933  0.7628 -0.0706
  142SAPE   C2215503   1.156   6.466  10.631 -0.6671  0.0727 -0.3061
  142SAPE   H2R15504   1.221   6.442  10.718 -0.1830  0.1320 -0.6513
  142SAPE   H2S15505   1.092   6.376  10.618  0.7303 -0.9388 -0.3610
  142SAPE    C315506   1.169   6.955  10.657 -0.0540  0.2889 -0.6219
  142SAPE    HX15507   1.265   6.960  10.714 -1.5196  1.1746  1.9650
  142SAPE    HY15508   1.103   7.035  10.697 -0.4451 -0.5482  0.4778
  142SAPE   O3115509   1.182   6.980  10.513  0.1271  0.6720 -0.2386
  142SAPE   C3115510   1.304   6.959  10.467 -0.5423 -0.1224 -0.1060
  142SAPE   O3215511   1.406   6.948  10.525 -0.2447 -0.0757 -0.4201
  142SAPE   C3215512   1.287   6.922  10.317  0.7498 -1.2461 -0.8236
  142SAPE   H2X15513   1.286   7.017  10.259  0.9126 -1.1232 -0.6280
  142SAPE   H2Y15514   1.194   6.865  10.302  0.5576 -2.0550  2.6584
  142SAPE   C2315515   1.268   6.482  10.525 -0.3745  0.5108 -0.2891
  142SAPE   H3R15516   1.332   6.391  10.528 -0.1903  0.6273 -0.6860
  142SAPE   H3S15517   1.339   6.564  10.548  1.0788 -0.8010  0.0852
  142SAPE   C2415518   1.218   6.488  10.382 -0.0557 -0.2554  0.6198
  142SAPE   H4R15519   1.310   6.481  10.320 -0.2236 -1.2421  0.4623
  142SAPE   H4S15520   1.165   6.584  10.361 -1.4721 -1.2071 -0.4170
  142SAPE   C2515521   1.133   6.379  10.329 -0.2340 -0.9425  0.6179
  142SAPE   H5R15522   1.188   6.285  10.312  3.2038  0.9724  0.3201
  142SAPE   C2615523   1.005   6.386  10.298 -0.0999  0.6499  0.1200
  142SAPE   H6R15524   0.958   6.294  10.262  0.8238  0.0743  0.3700
  142SAPE   C2715525   0.918   6.505  10.318  0.1421 -0.0139 -0.0488
  142SAPE   H7R15526   0.881   6.530  10.216 -0.0115 -3.0106 -0.8214
  142SAPE   H7S15527   0.973   6.597  10.345  3.0873 -0.0575 -4.7508
  142SAPE   C2815528   0.805   6.474  10.407 -0.2783  0.3562 -0.3230
  142SAPE   H8R15529   0.837   6.481  10.512  0.2036 -1.6943 -0.2866
  142SAPE   C2915530   0.682   6.436  10.378  0.1547  0.6868 -0.7507
  142SAPE   H9R15531   0.611   6.454  10.460 -0.3433  1.0313 -1.2428
  142SAPE  C21015532   0.625   6.406  10.240  0.0236  0.7999  0.1860
  142SAPE  H10R15533   0.542   6.332  10.251  0.3798  0.6215  2.2230
  142SAPE  H10S15534   0.712   6.377  10.178  0.3085  0.2312  0.8336
  142SAPE  C21115535   0.575   6.533  10.178  0.5772 -0.0514 -0.5149
  142SAPE  H11R15536   0.532   6.602  10.252 -0.0999 -1.3652  0.3621
  142SAPE  C21215537   0.575   6.560  10.042  0.1468  0.5512 -0.3015
  142SAPE  H12R15538   0.530   6.654  10.005  1.3730  0.3122 -2.5754
  142SAPE  C21315539   0.617   6.462   9.930  0.4302  0.0323  0.4707
  142SAPE  H13R15540   0.624   6.360   9.973 -0.2343  0.0486  0.6275
  142SAPE  H13S15541   0.717   6.489   9.891  0.9118 -2.2182  0.0053
  142SAPE  C21415542   0.511   6.455   9.819  0.6875  0.0945 -0.1392
  142SAPE  H14R15543   0.427   6.385   9.833  2.7175 -2.7856 -1.4452
  142SAPE  C21515544   0.525   6.519   9.696  0.0770 -0.2945  0.1235
  142SAPE  H15R15545   0.448   6.519   9.618  1.3548  1.6274 -1.2032
  142SAPE  C21615546   0.643   6.598   9.641 -0.0216 -0.8471 -0.2837
  142SAPE  H16R15547   0.731   6.577   9.706 -1.8193 -3.3123  1.5590
  142SAPE  H16S15548   0.615   6.704   9.655  0.3910 -1.0287  2.5017
  142SAPE  C21715549   0.685   6.592   9.499 -1.2041  0.5063  0.3193
  142SAPE  H17R15550   0.630   6.517   9.439 -1.2008  0.8521 -0.1240
  142SAPE  H17S15551   0.790   6.555   9.502 -1.6902 -1.2766 -2.0298
  142SAPE  C21815552   0.685   6.725   9.434 -0.2871 -0.1422 -0.4838
  142SAPE  H18R15553   0.766   6.787   9.477  0.8724 -1.8037 -0.1795
  142SAPE  H18S15554   0.590   6.777   9.458  0.0940  0.5907 -0.5360
  142SAPE  C21915555   0.711   6.714   9.282  0.4181 -0.4307 -0.2559
  142SAPE  H19R15556   0.612   6.680   9.245  0.2660  0.2568 -0.5007
  142SAPE  H19S15557   0.781   6.634   9.252  1.0712  0.2052 -0.4750
  142SAPE  C22015558   0.757   6.848   9.227  0.0995  0.2318 -0.4829
  142SAPE  H20R15559   0.850   6.881   9.276 -0.5036  0.3600  0.6067
  142SAPE  H20S15560   0.681   6.924   9.256  1.1125 -0.1030  3.6633
  142SAPE  H20T15561   0.767   6.850   9.116  1.4097 -0.5927 -0.3959
  142SAPE   C3315562   1.393   6.831  10.267 -0.4260  0.0346 -0.5985
  142SAPE   H3X15563   1.400   6.740  10.331  0.9196  0.1390 -0.5684
  142SAPE   H3Y15564   1.496   6.874  10.267  0.3545 -1.7354  0.1105
  142SAPE   C3415565   1.354   6.777  10.128  0.5277  0.2019 -0.0779
  142SAPE   H4X15566   1.329   6.862  10.061 -2.7951 -1.5643 -1.3483
  142SAPE   H4Y15567   1.266   6.709  10.116  0.9303 -0.6213  1.4262
  142SAPE   C3515568   1.461   6.678  10.070  0.0168  0.0729 -0.5703
  142SAPE   H5X15569   1.479   6.605  10.151  2.3167  1.7497  0.5315
  142SAPE   H5Y15570   1.556   6.735  10.067 -0.7778  1.3980 -1.3171
  142SAPE   C3615571   1.421   6.617   9.945 -0.4442 -0.5606 -0.1096
  142SAPE   H6X15572   1.318   6.574   9.943 -0.5556 -0.3019 -0.0818
  142SAPE   H6Y15573   1.484   6.530   9.920  1.2146  0.1548  1.3942
  142SAPE   C3715574   1.437   6.722   9.830  0.6723  0.3946 -0.0799
  142SAPE   H7X15575   1.527   6.784   9.849 -0.0407  1.4029  0.1082
  142SAPE   H7Y15576   1.348   6.788   9.824  1.0108  0.7854 -0.9374
  142SAPE   C3815577   1.435   6.643   9.698 -0.3050  0.2187  0.4423
  142SAPE   H8X15578   1.336   6.592   9.690 -0.4561  0.1414  2.3072
  142SAPE   H8Y15579   1.503   6.557   9.714 -2.3235 -1.4242  0.6955
  142SAPE   C3915580   1.490   6.720   9.578 -0.0937 -0.4564  0.0454
  142SAPE   H9X15581   1.590   6.764   9.599  0.0800 -1.2223  0.9107
  142SAPE   H9Y15582   1.430   6.810   9.555 -0.8888 -0.9117  0.2842
  142SAPE  C31015583   1.514   6.635   9.451  0.3757 -0.9529  0.1568
  142SAPE  H10X15584   1.417   6.589   9.423  0.3089 -0.8503  0.2193
  142SAPE  H10Y15585   1.595   6.562   9.471  0.6922 -1.1827 -1.7492
  142SAPE  C31115586   1.555   6.725   9.332  0.2201 -0.2621 -0.1221
  142SAPE  H11X15587   1.627   6.799   9.373 -2.4000  2.0806  0.5743
  142SAPE  H11Y15588   1.476   6.801   9.313 -0.0472  0.6433  3.8436
  142SAPE  C31215589   1.606   6.664   9.205  0.6801  0.4498  0.5704
  142SAPE  H12X15590   1.522   6.620   9.146  1.4287 -0.3016  0.0447
  142SAPE  H12Y15591   1.673   6.579   9.228  0.3586  0.5456  1.9177
  142SAPE  C31315592   1.682   6.765   9.114 -0.4431 -0.1178  0.4457
  142SAPE  H13X15593   1.777   6.788   9.167 -1.5538  0.9810  2.0833
  142SAPE  H13Y15594   1.619   6.857   9.123 -0.2868 -0.2140  4.4070
  142SAPE  C31415595   1.700   6.716   8.976  0.1623  0.2835 -0.3168
  142SAPE  H14X15596   1.613   6.656   8.941  0.0506 -1.2933  2.4232
  142SAPE  H14Y15597   1.775   6.635   8.982 -0.3381 -0.2080 -0.6417
  142SAPE  C31515598   1.747   6.827   8.880 -0.0688  0.9339  0.5520
  142SAPE  H15X15599   1.837   6.880   8.918  0.2737 -0.4969  1.8529
  142SAPE  H15Y15600   1.671   6.900   8.847 -0.2669  0.1232 -0.8560
  142SAPE  C31615601   1.783   6.751   8.751 -0.9123  0.3130  0.1576
  142SAPE  H16X15602   1.872   6.687   8.769  0.4768  1.7612 -1.3024
  142SAPE  H16Y15603   1.836   6.826   8.688 -1.5789  0.1318 -0.6247
  142SAPE  C31715604   1.667   6.682   8.673  0.0450 -0.2219 -0.7425
  142SAPE  H17X15605   1.586   6.754   8.652  0.7308 -0.0670 -3.1251
  142SAPE  H17Y15606   1.626   6.595   8.728 -0.2061  1.2699  1.5883
  142SAPE  C31815607   1.706   6.633   8.534 -0.5479 -0.1046 -0.8989
  142SAPE  H18X15608   1.745   6.714   8.469  3.2607  0.3443  1.6412
  142SAPE  H18Y15609   1.614   6.579   8.504 -1.9390  1.5009  0.3375
  142SAPE  H18Z15610   1.790   6.560   8.543  0.2017  0.9644  1.3802
  143SAPE     N15611   3.480   6.031  10.950 -0.0224 -0.0015 -0.0548
  143SAPE   HN115612   3.458   6.101  11.024  2.6627 -1.5076  2.3817
  143SAPE   HN215613   3.541   5.958  10.991 -1.8510 -0.9808  1.0700
  143SAPE   HN315614   3.524   6.080  10.870 -0.8066  2.5898  0.9838
  143SAPE   C1215615   3.349   5.959  10.916  0.3916 -0.3277 -0.1190
  143SAPE  H12A15616   3.372   5.877  10.845  2.1406  0.5376 -0.5962
  143SAPE  H12B15617   3.286   6.033  10.862  1.6899  1.3424  0.5766
  143SAPE   C1115618   3.283   5.914  11.042  0.1714 -0.4771 -0.2816
  143SAPE  H11A15619   3.178   5.880  11.033  1.2439 -4.2034 -0.5043
  143SAPE  H11B15620   3.281   6.007  11.103 -2.4424 -0.0091 -0.9960
  143SAPE     P15621   3.358   5.660  11.078 -0.5873 -0.3404  0.3173
  143SAPE   O1315622   3.499   5.623  11.064 -0.1409  0.1311 -0.0876
  143SAPE   O1415623   3.288   5.594  11.191 -0.6397 -0.7200 -0.4461
  143SAPE   O1215624   3.359   5.817  11.114  0.4137 -0.3604 -0.0605
  143SAPE   O1115625   3.283   5.657  10.940  0.3940  0.7114  0.5671
  143SAPE    C115626   3.309   5.560  10.849  0.2462  0.6686  0.5042
  143SAPE    HA15627   3.414   5.523  10.850 -0.4488 -1.6413 -1.4678
  143SAPE    HB15628   3.246   5.471  10.868  0.4635  0.2478 -0.6700
  143SAPE    C215629   3.273   5.616  10.707 -0.2306  0.2931 -0.4191
  143SAPE    HS15630   3.270   5.536  10.630 -1.4190 -0.2769  0.1918
  143SAPE   O2115631   3.373   5.722  10.671 -0.1736 -0.3476  0.4891
  143SAPE   C2115632   3.493   5.671  10.638  0.8425  0.1657 -0.7067
  143SAPE   O2215633   3.515   5.548  10.625 -0.2642 -0.7191 -0.1499
  143SAPE   C2215634   3.593   5.784  10.603 -0.0088  0.6795 -0.2782
  143SAPE   H2R15635   3.594   5.859  10.685  0.2216  0.1109  0.2485
  143SAPE   H2S15636   3.694   5.745  10.574 -1.0654 -1.3009 -1.5420
  143SAPE    C315637   3.126   5.670  10.711 -0.0536 -0.2109 -0.2883
  143SAPE    HX15638   3.126   5.762  10.773 -0.0301 -0.4643  0.0873
  143SAPE    HY15639   3.063   5.597  10.766 -0.5350  1.5401  1.6026
  143SAPE   O3115640   3.070   5.696  10.583  0.0506  0.0106  0.0956
  143SAPE   C3115641   3.092   5.810  10.518 -0.8487  0.1184 -0.3596
  143SAPE   O3215642   3.144   5.915  10.559  0.0447  0.3271  0.1191
  143SAPE   C3215643   3.031   5.808  10.384 -0.3057  0.4820 -0.1487
  143SAPE   H2X15644   2.932   5.855  10.403 -0.8035 -0.3012 -0.7477
  143SAPE   H2Y15645   3.040   5.704  10.347 -0.3176  0.1870  0.6552
  143SAPE   C2315646   3.540   5.871  10.484 -0.6056 -0.6006  0.5183
  143SAPE   H3R15647   3.626   5.935  10.455 -2.9863  0.6725 -5.0080
  143SAPE   H3S15648   3.457   5.938  10.514 -0.3179 -0.5018  1.1140
  143SAPE   C2415649   3.492   5.784  10.365 -0.4546  0.2904  0.3005
  143SAPE   H4R15650   3.385   5.754  10.376 -0.7705  1.5023  0.7536
  143SAPE   H4S15651   3.555   5.693  10.367  0.0996  0.6716  0.4007
  143SAPE   C2515652   3.519   5.873  10.243 -0.4457  0.4077 -0.0861
  143SAPE   H5R15653   3.525   5.980  10.268 -0.1444  0.3481  0.1020
  143SAPE   C2615654   3.541   5.835  10.112  0.3016 -0.4586 -0.5543
  143SAPE   H6R15655   3.565   5.918  10.044  0.1834  1.1203  1.2207
  143SAPE   C2715656   3.534   5.696  10.064 -1.1772  0.0550 -0.0885
  143SAPE   H7R15657   3.470   5.633  10.129  2.3365 -0.8724  2.7827
  143SAPE   H7S15658   3.635   5.650  10.077 -1.3508 -0.3939 -0.2976
  143SAPE   C2815659   3.488   5.707   9.924  0.1527  0.4538 -0.1051
  143SAPE   H8R15660   3.381   5.689   9.905  0.7636 -2.9279 -1.1327
  143SAPE   C2915661   3.557   5.739   9.813 -0.0481 -0.2957  0.4454
  143SAPE   H9R15662   3.505   5.753   9.717  2.4088 -1.9668 -1.2520
  143SAPE  C21015663   3.699   5.780   9.813 -0.5089 -0.0687 -0.8370
  143SAPE  H10R15664   3.777   5.701   9.811  1.0758  1.3433  1.5055
  143SAPE  H10S15665   3.726   5.823   9.912 -0.9960 -1.4011 -0.0980
  143SAPE  C21115666   3.733   5.877   9.709 -0.1123  0.9375 -0.0651
  143SAPE  H11R15667   3.769   5.974   9.746  1.6596  0.2713  0.0319
  143SAPE  C21215668   3.747   5.849   9.578 -0.0345 -0.0782  0.5085
  143SAPE  H12R15669   3.765   5.933   9.510 -1.7004 -1.0346 -1.1969
  143SAPE  C21315670   3.742   5.721   9.492 -0.1928  0.3989  0.3174
  143SAPE  H13R15671   3.755   5.630   9.554 -1.4448 -2.1245 -2.7898
  143SAPE  H13S15672   3.828   5.731   9.422 -0.4418  1.7463  0.1743
  143SAPE  C21415673   3.615   5.726   9.403 -0.6839 -0.3133 -0.0260
  143SAPE  H14R15674   3.526   5.778   9.441  1.5039  4.7904 -1.1629
  143SAPE  C21515675   3.603   5.660   9.290 -0.3555 -0.3712  0.8563
  143SAPE  H15R15676   3.506   5.669   9.240 -1.1430 -0.3045  2.3458
  143SAPE  C21615677   3.709   5.573   9.227  0.2661  0.0409 -0.5388
  143SAPE  H16R15678   3.748   5.496   9.298 -1.2338 -1.9597 -1.7728
  143SAPE  H16S15679   3.794   5.637   9.195  1.5090 -1.1377  0.2943
  143SAPE  C21715680   3.678   5.489   9.099 -0.2253 -0.1592 -0.0557
  143SAPE  H17R15681   3.639   5.561   9.023 -1.5899 -2.2491 -1.4514
  143SAPE  H17S15682   3.589   5.425   9.115 -1.0078  0.5556 -1.3466
  143SAPE  C21815683   3.804   5.419   9.032  0.2840  0.1481  0.2009
  143SAPE  H18R15684   3.833   5.340   9.105  0.2484  0.6796  0.8053
  143SAPE  H18S15685   3.892   5.484   9.014  0.4349 -0.4016 -1.1527
  143SAPE  C21915686   3.777   5.349   8.896  0.3523  0.2558 -0.1470
  143SAPE  H19R15687   3.676   5.303   8.899 -0.3894  1.6797  4.0510
  143SAPE  H19S15688   3.851   5.269   8.874 -0.5782 -0.5480 -0.4064
  143SAPE  C22015689   3.768   5.449   8.787  0.2090  0.1598  0.5160
  143SAPE  H20R15690   3.715   5.543   8.816  0.5790  0.6580 -0.3947
  143SAPE  H20S15691   3.704   5.413   8.704 -0.9320  0.2721  1.3241
  143SAPE  H20T15692   3.869   5.475   8.748  0.2445 -0.3650  0.2544
  143SAPE   C3315693   3.111   5.885  10.276  0.3055 -0.7504  0.0331
  143SAPE   H3X15694   3.216   5.848  10.279 -0.1653 -2.0949  2.2660
  143SAPE   H3Y15695   3.107   5.991  10.310 -0.5517 -0.3644 -1.2324
  143SAPE   C3415696   3.059   5.885  10.135 -0.1164 -0.2561 -0.4199
  143SAPE   H4X15697   2.953   5.920  10.143  0.4342  1.2088  1.5867
  143SAPE   H4Y15698   3.061   5.778  10.106  1.0334 -0.5597  0.6779
  143SAPE   C3515699   3.146   5.974  10.046  0.2281  0.3346 -0.7142
  143SAPE   H5X15700   3.253   5.950  10.063 -0.0769 -0.6887 -0.1875
  143SAPE   H5Y15701   3.124   6.079  10.076  3.2771  0.7897  0.3531
  143SAPE   C3615702   3.114   5.950   9.897 -0.6140  0.1915  0.0705
  143SAPE   H6X15703   3.009   5.976   9.874 -0.4843 -0.3145 -1.2252
  143SAPE   H6Y15704   3.141   5.845   9.869  0.1560  0.6222 -0.8878
  143SAPE   C3715705   3.207   6.033   9.803 -0.4267 -0.1304  0.0398
  143SAPE   H7X15706   3.312   5.998   9.814  0.0714 -0.2682 -3.7775
  143SAPE   H7Y15707   3.201   6.137   9.841 -1.2522 -0.0821 -0.1999
  143SAPE   C3815708   3.175   6.014   9.653  0.3537 -1.0310 -0.2176
  143SAPE   H8X15709   3.231   6.093   9.598 -0.2204  1.0739  2.0372
  143SAPE   H8Y15710   3.064   6.024   9.647  0.3117  0.7546  1.9964
  143SAPE   C3915711   3.208   5.872   9.607  0.5417  0.3732  0.9907
  143SAPE   H9X15712   3.139   5.806   9.663 -0.6510  0.6419 -0.1396
  143SAPE   H9Y15713   3.310   5.846   9.643  0.0177 -0.6705  1.7845
  143SAPE  C31015714   3.192   5.854   9.456  0.0012  0.1831  0.4600
  143SAPE  H10X15715   3.087   5.884   9.432  0.0336 -1.1918 -1.6107
  143SAPE  H10Y15716   3.217   5.747   9.440 -1.5564 -0.5625  2.5051
  143SAPE  C31115717   3.292   5.931   9.370  0.2067  0.3906 -0.0086
  143SAPE  H11X15718   3.390   5.919   9.422  0.5545  0.4593 -0.6360
  143SAPE  H11Y15719   3.249   6.034   9.364 -2.1954 -0.4694  1.1407
  143SAPE  C31215720   3.300   5.876   9.228 -0.3667 -0.1601  0.7150
  143SAPE  H12X15721   3.318   5.766   9.222 -2.7633 -0.5085 -3.0445
  143SAPE  H12Y15722   3.390   5.914   9.175 -1.5005 -0.9098 -1.8692
  143SAPE  C31315723   3.177   5.880   9.138  0.0344 -0.6093 -0.4372
  143SAPE  H13X15724   3.152   5.986   9.116  0.1683 -0.2051  1.1695
  143SAPE  H13Y15725   3.090   5.850   9.200 -0.5325  0.1806 -0.8199
  143SAPE  C31415726   3.175   5.805   9.003  0.5281 -0.3219 -0.6069
  143SAPE  H14X15727   3.133   5.705   9.030 -1.9757  1.0886  1.1926
  143SAPE  H14Y15728   3.276   5.792   8.958  0.1532 -2.1486 -1.0363
  143SAPE  C31515729   3.069   5.853   8.899  0.1236  0.6510  0.1982
  143SAPE  H15X15730   3.087   5.961   8.877 -0.7112  0.3636 -2.1635
  143SAPE  H15Y15731   2.966   5.855   8.941 -0.4874 -0.2285 -1.1886
  143SAPE  C31615732   3.058   5.760   8.781 -0.1010 -0.2824  0.5407
  143SAPE  H16X15733   3.048   5.656   8.818  0.1401 -0.3089  0.5304
  143SAPE  H16Y15734   3.153   5.763   8.725  0.2761 -0.4536  1.1629
  143SAPE  C31715735   2.932   5.775   8.695  0.6969 -0.3645  0.1802
  143SAPE  H17X15736   2.934   5.882   8.665 -1.0679  0.2120  1.9179
  143SAPE  H17Y15737   2.838   5.753   8.749  0.8908  0.7339  0.9999
  143SAPE  C31815738   2.936   5.679   8.570 -0.7157  0.8087  0.1987
  143SAPE  H18X15739   2.863   5.712   8.493 -0.5793 -0.1433 -0.3524
  143SAPE  H18Y15740   2.937   5.574   8.605  1.8317  1.1257  1.2923
  143SAPE  H18Z15741   3.033   5.701   8.522 -1.6528  2.9377 -0.8723
  144SAPE     N15742   6.347   3.502  10.916  0.4001  1.0564  0.3897
  144SAPE   HN115743   6.278   3.561  10.865 -0.2485 -0.4867 -0.6075
  144SAPE   HN215744   6.301   3.409  10.925  1.5782  0.5070  0.9179
  144SAPE   HN315745   6.375   3.554  11.002 -3.2549  2.8220  0.6918
  144SAPE   C1215746   6.460   3.455  10.821  0.1252 -0.3336  0.0938
  144SAPE  H12A15747   6.422   3.391  10.738 -1.3305 -0.4320  0.8130
  144SAPE  H12B15748   6.535   3.394  10.876  1.7001  0.5410 -1.0180
  144SAPE   C1115749   6.531   3.580  10.752  0.1683  0.0265  0.2861
  144SAPE  H11A15750   6.458   3.647  10.702  1.7489  0.8827 -0.9685
  144SAPE  H11B15751   6.608   3.538  10.684  0.8070  0.2445  0.8554
  144SAPE     P15752   6.630   3.804  10.858 -0.1992 -0.1330  0.4220
  144SAPE   O1315753   6.538   3.882  10.955  0.4404 -0.0574  0.0210
  144SAPE   O1415754   6.774   3.833  10.879 -0.0280 -0.5677 -0.1987
  144SAPE   O1215755   6.596   3.645  10.864  0.1050  0.0790  0.6561
  144SAPE   O1115756   6.591   3.835  10.707  0.0864  0.2823  0.1352
  144SAPE    C115757   6.698   3.829  10.609  0.0851 -0.1059 -0.3240
  144SAPE    HA15758   6.788   3.879  10.649 -1.8029  1.6689  1.9757
  144SAPE    HB15759   6.720   3.726  10.574 -2.5374 -0.3992 -1.3856
  144SAPE    C215760   6.653   3.910  10.488  1.0017 -0.1475  0.5509
  144SAPE    HS15761   6.629   4.008  10.534 -0.4001  0.2836 -1.0015
  144SAPE   O2115762   6.539   3.843  10.426 -0.5763  0.7359 -0.2780
  144SAPE   C2115763   6.431   3.920  10.398 -0.0015  0.3784 -0.3257
  144SAPE   O2215764   6.415   4.035  10.423  0.3288  0.0053 -0.6960
  144SAPE   C2215765   6.330   3.833  10.326  0.4224  0.0252 -0.7753
  144SAPE   H2R15766   6.378   3.771  10.247  2.1254  2.6840 -1.9433
  144SAPE   H2S15767   6.288   3.771  10.408 -0.6356  1.5144 -0.1674
  144SAPE    C315768   6.768   3.936  10.391 -0.0859 -0.0229 -0.1056
  144SAPE    HX15769   6.818   3.838  10.379 -0.5148 -0.4059  1.0937
  144SAPE    HY15770   6.843   4.008  10.429  0.2511 -0.0534 -0.7015
  144SAPE   O3115771   6.723   3.998  10.271  0.0759 -0.3510  0.1160
  144SAPE   C3115772   6.682   3.923  10.175 -0.3292 -0.0808  0.4670
  144SAPE   O3215773   6.706   3.803  10.171  0.4127  0.0719 -0.0890
  144SAPE   C3215774   6.615   4.003  10.058 -0.4450  0.2398  0.1848
  144SAPE   H2X15775   6.548   3.921  10.023  1.9275 -0.8527 -2.0878
  144SAPE   H2Y15776   6.692   4.019   9.980 -1.1310  0.4918 -0.4469
  144SAPE   C2315777   6.224   3.921  10.268  0.6085 -0.3431 -0.1039
  144SAPE   H3R15778   6.262   4.002  10.202 -0.8981  0.4865  0.0031
  144SAPE   H3S15779   6.163   3.971  10.345 -0.6978 -1.7765 -0.1464
  144SAPE   C2415780   6.135   3.835  10.179  0.0616  0.3471  0.1766
  144SAPE   H4R15781   6.103   3.742  10.230 -0.7188  0.6753  0.2995
  144SAPE   H4S15782   6.197   3.794  10.096 -0.4937  1.1445 -0.6603
  144SAPE   C2515783   6.020   3.916  10.140  0.2986 -0.2371  0.4838
  144SAPE   H5R15784   5.947   3.933  10.220 -0.0510  0.4204  0.0293
  144SAPE   C2615785   5.989   3.966  10.019 -1.1429  0.1374  0.5209
  144SAPE   H6R15786   5.901   4.030  10.002 -0.3768  1.2500  0.6168
  144SAPE   C2715787   6.076   3.953   9.892  0.0836 -0.1189 -0.1555
  144SAPE   H7R15788   6.183   3.935   9.917  0.0882  0.3506  0.1976
  144SAPE   H7S15789   6.076   4.053   9.843 -2.1262  0.2759  0.5362
  144SAPE   C2815790   6.019   3.845   9.805  0.2860  0.2264  0.0518
  144SAPE   H8R15791   6.052   3.743   9.829 -0.0738  0.0678 -0.1265
  144SAPE   C2915792   5.948   3.869   9.691  0.1496  0.3735 -0.8175
  144SAPE   H9R15793   5.922   3.773   9.644  3.9223 -0.4234 -1.6164
  144SAPE  C21015794   5.903   3.998   9.627 -0.0602 -0.1264 -0.0335
  144SAPE  H10R15795   5.979   4.018   9.548 -0.3945  0.2676 -0.2607
  144SAPE  H10S15796   5.906   4.081   9.700  0.7856 -1.2814  1.2802
  144SAPE  C21115797   5.769   3.987   9.555 -0.3096 -0.0017  0.1811
  144SAPE  H11R15798   5.678   3.975   9.616 -0.6924  0.9914 -0.1805
  144SAPE  C21215799   5.743   3.978   9.425  0.1272 -0.7140  0.7844
  144SAPE  H12R15800   5.642   3.977   9.381  1.3705 -1.7704 -2.3424
  144SAPE  C21315801   5.848   3.975   9.321 -0.2442  0.7317  0.4313
  144SAPE  H13R15802   5.946   3.939   9.361  0.3233  0.4441 -1.1567
  144SAPE  H13S15803   5.876   4.081   9.301  1.5643  0.4689  1.3426
  144SAPE  C21415804   5.820   3.895   9.203 -0.1488  0.2713  0.2157
  144SAPE  H14R15805   5.892   3.813   9.186 -2.0198 -1.0997 -1.6272
  144SAPE  C21515806   5.725   3.923   9.109 -0.6588  0.0972 -0.4161
  144SAPE  H15R15807   5.729   3.867   9.015 -0.4794 -0.1040 -0.2893
  144SAPE  C21615808   5.622   4.035   9.110 -0.5147  0.3597  0.2213
  144SAPE  H16R15809   5.666   4.122   9.165 -0.7244 -0.0603  1.0726
  144SAPE  H16S15810   5.526   4.007   9.158 -0.9560 -1.8291 -1.7730
  144SAPE  C21715811   5.585   4.101   8.975  0.1773 -0.3618  0.2663
  144SAPE  H17R15812   5.680   4.130   8.925 -0.9323 -1.9530 -3.0369
  144SAPE  H17S15813   5.526   4.194   8.989  0.6035 -0.0044 -0.2606
  144SAPE  C21815814   5.508   4.010   8.874  0.0006 -0.5593  0.7584
  144SAPE  H18R15815   5.414   3.980   8.924 -0.2461 -0.7997  0.1576
  144SAPE  H18S15816   5.570   3.920   8.854  0.4593  0.1378 -1.3001
  144SAPE  C21915817   5.485   4.085   8.742  0.0516 -0.5572 -0.1202
  144SAPE  H19R15818   5.578   4.094   8.682 -0.3933 -1.1874 -0.9368
  144SAPE  H19S15819   5.432   4.182   8.749 -0.3827 -0.6860 -1.2914
  144SAPE  C22015820   5.382   3.999   8.663 -0.4276  0.7129  0.0140
  144SAPE  H20R15821   5.411   3.892   8.664 -0.3852  0.7252  0.3534
  144SAPE  H20S15822   5.354   4.033   8.561 -0.3203 -1.7273 -0.8906
  144SAPE  H20T15823   5.292   3.993   8.729 -0.2984  0.4858  0.1691
  144SAPE   C3315824   6.542   4.123  10.110  0.3255  0.4960 -0.0538
  144SAPE   H3X15825   6.602   4.214  10.127 -0.7277  0.9504  1.5309
  144SAPE   H3Y15826   6.486   4.116  10.206 -0.2969  0.9887 -0.3730
  144SAPE   C3415827   6.428   4.167  10.012 -0.3208  0.0498  1.0894
  144SAPE   H4X15828   6.368   4.074  10.015  2.1193 -1.6403  3.8665
  144SAPE   H4Y15829   6.461   4.176   9.907 -0.6916  3.4681  1.1595
  144SAPE   C3515830   6.339   4.278  10.062 -0.0313  0.6638 -0.7280
  144SAPE   H5X15831   6.396   4.374  10.065 -0.1214  0.9575 -3.9962
  144SAPE   H5Y15832   6.311   4.260  10.167  2.2889 -1.1538 -0.3258
  144SAPE   C3615833   6.215   4.303   9.971  0.0904  1.0840  0.3779
  144SAPE   H6X15834   6.184   4.409   9.978 -0.8835  1.1645 -3.1762
  144SAPE   H6Y15835   6.128   4.242  10.001 -1.2424  2.5267 -0.3848
  144SAPE   C3715836   6.241   4.297   9.818 -0.1382 -0.5293  0.5970
  144SAPE   H7X15837   6.293   4.202   9.793 -1.1199 -0.7815 -0.5454
  144SAPE   H7Y15838   6.317   4.372   9.790 -0.3929 -0.6096 -0.3420
  144SAPE   C3815839   6.120   4.324   9.722 -0.5336 -0.6094 -0.0979
  144SAPE   H8X15840   6.096   4.433   9.732 -0.8332 -0.7342  0.5867
  144SAPE   H8Y15841   6.034   4.266   9.760  0.4981 -0.2447  3.0404
  144SAPE   C3915842   6.164   4.286   9.584  0.9584  0.1851  0.3975
  144SAPE   H9X15843   6.200   4.181   9.592  2.0429  0.2550 -2.5343
  144SAPE   H9Y15844   6.258   4.339   9.560  0.5904  1.4141  1.5201
  144SAPE  C31015845   6.057   4.312   9.475  0.6782 -0.0104 -0.4516
  144SAPE  H10X15846   6.003   4.409   9.487 -0.6237 -0.5912 -1.4247
  144SAPE  H10Y15847   5.981   4.232   9.472 -0.6303  1.2024 -1.0167
  144SAPE  C31115848   6.116   4.321   9.334 -0.5832 -0.5450 -0.0411
  144SAPE  H11X15849   6.167   4.225   9.312  1.5008  0.0993  1.6521
  144SAPE  H11Y15850   6.186   4.407   9.339 -0.8494 -0.4036  1.8482
  144SAPE  C31215851   6.011   4.342   9.221  0.2526 -0.0673  0.1697
  144SAPE  H12X15852   5.914   4.294   9.246  1.4215 -2.2530  0.8056
  144SAPE  H12Y15853   6.046   4.294   9.127  0.7389  2.7901 -1.2144
  144SAPE  C31315854   5.984   4.489   9.177 -0.5814 -0.0772 -0.3152
  144SAPE  H13X15855   5.950   4.556   9.259  1.1134 -0.6011  0.8712
  144SAPE  H13Y15856   5.903   4.479   9.101 -1.0921 -1.1924  0.3444
  144SAPE  C31415857   6.112   4.554   9.120  0.7405  0.4983 -0.7368
  144SAPE  H14X15858   6.181   4.468   9.104  1.1053  0.4272  1.0109
  144SAPE  H14Y15859   6.141   4.626   9.200 -0.0706  0.6490 -0.5704
  144SAPE  C31515860   6.089   4.634   8.987  1.0753  0.6297 -0.2718
  144SAPE  H15X15861   5.988   4.678   8.994  0.8840  0.1775 -0.1478
  144SAPE  H15Y15862   6.097   4.551   8.913  2.8725  1.2991 -0.8991
  144SAPE  C31615863   6.188   4.741   8.962 -0.4565 -0.0485 -0.0065
  144SAPE  H16X15864   6.286   4.692   8.947 -1.0472 -0.9019 -1.2999
  144SAPE  H16Y15865   6.212   4.796   9.055  1.6116 -1.7801  0.5404
  144SAPE  C31715866   6.163   4.834   8.842 -1.1201  0.6273  0.4175
  144SAPE  H17X15867   6.070   4.894   8.849 -1.3384  0.4553 -0.7276
  144SAPE  H17Y15868   6.147   4.763   8.758 -1.8169  1.1152  0.1276
  144SAPE  C31815869   6.275   4.925   8.793  0.8206  0.4350  0.4417
  144SAPE  H18X15870   6.232   5.000   8.723 -3.6945 -3.9526 -2.0788
  144SAPE  H18Y15871   6.352   4.871   8.735 -1.0034 -0.2414 -1.4448
  144SAPE  H18Z15872   6.315   4.995   8.871 -3.2616  2.5101  0.9346
  145SAPE     N15873   3.618   5.390  11.105  0.1362  0.3548 -0.1482
  145SAPE   HN115874   3.580   5.485  11.089 -2.0425 -0.3358  0.5737
  145SAPE   HN215875   3.709   5.405  11.154  0.5338 -0.0174 -0.7503
  145SAPE   HN315876   3.633   5.337  11.016  0.9640  0.8979 -0.3401
  145SAPE   C1215877   3.535   5.308  11.190 -0.1907  0.2153 -0.3489
  145SAPE  H12A15878   3.430   5.324  11.156 -0.4357 -3.5936 -1.8285
  145SAPE  H12B15879   3.553   5.348  11.292 -1.9690 -0.6443  0.3451
  145SAPE   C1115880   3.572   5.159  11.200  0.3137  0.7418 -0.1312
  145SAPE  H11A15881   3.559   5.120  11.097  0.9921 -2.6694  0.9227
  145SAPE  H11B15882   3.511   5.111  11.279  0.1973 -0.7459 -1.0865
  145SAPE     P15883   3.786   5.014  11.205  0.0112 -0.2980  0.3800
  145SAPE   O1315884   3.930   5.044  11.215  0.0029  0.6266 -0.9808
  145SAPE   O1415885   3.728   4.900  11.279 -0.2496  0.0588 -0.2258
  145SAPE   O1215886   3.710   5.147  11.240 -0.0108 -0.5759  0.3205
  145SAPE   O1115887   3.769   5.006  11.043  0.3998 -0.1468  0.5616
  145SAPE    C115888   3.797   4.884  10.981  0.0099 -0.4889 -0.0845
  145SAPE    HA15889   3.897   4.845  11.009  0.0483  1.3135  2.6441
  145SAPE    HB15890   3.728   4.801  11.008  0.5514 -0.2172  2.3124
  145SAPE    C215891   3.798   4.897  10.825 -0.3302 -0.3110 -0.0868
  145SAPE    HS15892   3.814   4.797  10.777 -0.0549 -1.2564  1.8682
  145SAPE   O2115893   3.906   4.981  10.786 -0.1995  1.0322 -0.3675
  145SAPE   C2115894   3.968   4.969  10.674 -0.3636 -0.5780 -0.7729
  145SAPE   O2215895   3.958   4.877  10.590  0.7669 -0.6997  0.0282
  145SAPE   C2215896   4.061   5.096  10.662 -0.5498  0.7364  0.5106
  145SAPE   H2R15897   4.023   5.197  10.689 -1.3572  0.7371 -0.5501
  145SAPE   H2S15898   4.152   5.073  10.720 -0.5885 -0.8763 -0.0138
  145SAPE    C315899   3.666   4.964  10.772 -0.2163  0.0336 -0.1469
  145SAPE    HX15900   3.660   5.054  10.835  1.2590  0.3794 -0.4627
  145SAPE    HY15901   3.577   4.899  10.790 -0.9412  0.7292 -1.1343
  145SAPE   O3115902   3.673   5.005  10.630  0.5050 -0.1883 -0.0892
  145SAPE   C3115903   3.638   4.905  10.544 -0.5172  0.0800  0.7547
  145SAPE   O3215904   3.619   4.786  10.574 -0.2845 -0.3797 -0.0322
  145SAPE   C3215905   3.633   4.951  10.395  0.3193 -0.1617 -0.1463
  145SAPE   H2X15906   3.741   4.957  10.370  0.7829 -1.1043  1.4493
  145SAPE   H2Y15907   3.584   5.051  10.387  0.8590 -0.0058 -1.8590
  145SAPE   C2315908   4.109   5.106  10.516 -0.4102  1.1144 -0.0674
  145SAPE   H3R15909   4.019   5.101  10.450 -1.3769  1.5283  1.1782
  145SAPE   H3S15910   4.168   5.013  10.500 -4.7769 -2.5798  2.6674
  145SAPE   C2415911   4.189   5.233  10.486  0.4738  0.1094 -0.9944
  145SAPE   H4R15912   4.134   5.324  10.518  0.9444 -0.0184  0.2095
  145SAPE   H4S15913   4.198   5.245  10.376  0.9678  0.6118 -0.9030
  145SAPE   C2515914   4.325   5.235  10.543  0.5000 -0.4045 -0.0714
  145SAPE   H5R15915   4.344   5.305  10.626  0.2921  0.4210 -0.7080
  145SAPE   C2615916   4.430   5.167  10.498  0.3034 -0.3501  0.5174
  145SAPE   H6R15917   4.516   5.169  10.566  0.1097 -0.8284  0.7777
  145SAPE   C2715918   4.441   5.075  10.378 -0.2855  0.7810  0.4415
  145SAPE   H7R15919   4.394   5.133  10.296 -0.6573  1.0774  0.8591
  145SAPE   H7S15920   4.373   4.988  10.373  1.5599 -0.8618  2.0522
  145SAPE   C2815921   4.573   5.009  10.343 -0.4602 -0.5662  0.0005
  145SAPE   H8R15922   4.650   5.019  10.421  1.6579 -0.1421 -2.0159
  145SAPE   C2915923   4.605   4.955  10.223  0.8443 -0.3527  0.2977
  145SAPE   H9R15924   4.708   4.917  10.211  1.3954  0.9317  0.7782
  145SAPE  C21015925   4.494   4.949  10.112 -0.1856 -0.5294 -0.1366
  145SAPE  H10R15926   4.390   4.958  10.152  0.1963 -1.0357  1.0068
  145SAPE  H10S15927   4.494   4.846  10.070  0.9280 -0.6959  0.2568
  145SAPE  C21115928   4.519   5.059  10.008  0.0830  0.7253  0.6943
  145SAPE  H11R15929   4.593   5.135  10.038  3.6514 -1.2521 -2.2231
  145SAPE  C21215930   4.468   5.055   9.886  0.7127 -0.1478 -0.5067
  145SAPE  H12R15931   4.483   5.142   9.820  0.5136 -0.8483 -1.5124
  145SAPE  C21315932   4.358   4.957   9.839 -0.4512  0.3970 -0.0049
  145SAPE  H13R15933   4.328   4.886   9.920  2.3031 -1.5070 -0.4965
  145SAPE  H13S15934   4.412   4.891   9.768 -0.4806  1.3028 -0.8955
  145SAPE  C21415935   4.247   5.032   9.779  0.3500 -0.3540 -0.5429
  145SAPE  H14R15936   4.166   5.062   9.847 -0.2726  1.4640 -1.9856
  145SAPE  C21515937   4.240   5.063   9.652 -0.0317  0.0961  0.8908
  145SAPE  H15R15938   4.161   5.132   9.619  1.6818  2.7830  2.0072
  145SAPE  C21615939   4.343   5.037   9.547 -0.0166  0.5881 -0.5531
  145SAPE  H16R15940   4.422   4.973   9.592  0.2116  2.1562  1.4116
  145SAPE  H16S15941   4.401   5.127   9.515 -0.6686  1.2933  0.2329
  145SAPE  C21715942   4.297   4.965   9.420 -0.0089 -0.6316  0.7706
  145SAPE  H17R15943   4.227   5.036   9.372 -0.9963 -1.2699  1.2453
  145SAPE  H17S15944   4.234   4.882   9.457 -0.4801 -1.6930 -2.1007
  145SAPE  C21815945   4.417   4.930   9.333  0.1950 -0.7124 -0.0573
  145SAPE  H18R15946   4.483   4.886   9.411 -0.0906  0.4083  0.8591
  145SAPE  H18S15947   4.469   5.019   9.290  0.1882 -0.9867 -0.6449
  145SAPE  C21915948   4.412   4.833   9.216  1.1797 -0.5596 -0.1488
  145SAPE  H19R15949   4.372   4.739   9.257  0.2360 -0.7988 -1.5497
  145SAPE  H19S15950   4.511   4.802   9.176  1.0557  0.7468 -1.5743
  145SAPE  C22015951   4.332   4.881   9.095 -0.0226  0.3716  0.6568
  145SAPE  H20R15952   4.227   4.910   9.117  0.2868  1.3494  0.9163
  145SAPE  H20S15953   4.340   4.810   9.010 -3.1522  1.0619 -0.3733
  145SAPE  H20T15954   4.376   4.975   9.054 -1.7850  1.0889  0.3047
  145SAPE   C3315955   3.563   4.851  10.292  0.2281 -0.3641 -0.5487
  145SAPE   H3X15956   3.470   4.808  10.335  1.1216 -1.4037  0.3966
  145SAPE   H3Y15957   3.631   4.765  10.276  1.0044 -0.2648  1.7797
  145SAPE   C3415958   3.529   4.919  10.164 -1.0752 -0.0805  0.0054
  145SAPE   H4X15959   3.623   4.954  10.117 -2.1754  2.3049 -0.5444
  145SAPE   H4Y15960   3.470   5.011  10.183  1.9208  2.0565 -0.3595
  145SAPE   C3515961   3.462   4.831  10.058  0.0682  0.2664 -0.4792
  145SAPE   H5X15962   3.357   4.809  10.085  0.4276  0.6794  1.4479
  145SAPE   H5Y15963   3.519   4.735  10.052 -0.8625 -0.3220 -0.1588
  145SAPE   C3615964   3.459   4.889   9.923  0.3709  0.2893  0.1101
  145SAPE   H6X15965   3.565   4.918   9.904 -0.4939  1.9513 -2.7374
  145SAPE   H6Y15966   3.396   4.980   9.921 -1.8526 -1.0734  1.9657
  145SAPE   C3715967   3.406   4.795   9.814 -0.2574 -0.2112  0.1523
  145SAPE   H7X15968   3.302   4.773   9.849 -0.4090 -0.4413 -0.4415
  145SAPE   H7Y15969   3.468   4.704   9.805  0.0679  0.0922 -0.7267
  145SAPE   C3815970   3.396   4.872   9.676 -0.2929  0.2005 -0.6887
  145SAPE   H8X15971   3.337   4.964   9.697 -0.4218 -0.1926  0.8386
  145SAPE   H8Y15972   3.338   4.800   9.615  0.1986 -0.1310 -0.7726
  145SAPE   C3915973   3.531   4.904   9.614  0.8346 -0.2095 -1.0406
  145SAPE   H9X15974   3.589   4.814   9.584  1.5094  0.7167 -2.6462
  145SAPE   H9Y15975   3.592   4.965   9.685 -0.5828 -0.4679  0.4522
  145SAPE  C31015976   3.515   5.008   9.498 -0.4731  0.2638 -0.2572
  145SAPE  H10X15977   3.504   5.108   9.544 -3.8212  0.3873 -1.1029
  145SAPE  H10Y15978   3.420   4.983   9.447 -0.8110  0.7700  0.1245
  145SAPE  C31115979   3.626   4.999   9.397 -0.0685  0.1249 -0.0043
  145SAPE  H11X15980   3.650   4.893   9.371  0.9962  0.3476  0.0129
  145SAPE  H11Y15981   3.712   5.044   9.451 -0.8678  2.7686 -0.8160
  145SAPE  C31215982   3.591   5.072   9.268  0.2945 -0.3788 -0.4049
  145SAPE  H12X15983   3.588   5.181   9.286  1.9221 -0.2372 -0.8318
  145SAPE  H12Y15984   3.494   5.034   9.229 -0.4283 -1.4801  2.1902
  145SAPE  C31315985   3.705   5.057   9.172  0.7928  0.4370 -0.9203
  145SAPE  H13X15986   3.806   5.092   9.204 -0.0952  0.8114  1.6807
  145SAPE  H13Y15987   3.674   5.115   9.083 -1.0513  2.7920  1.1118
  145SAPE  C31415988   3.708   4.915   9.115 -0.2260  0.1142  0.5411
  145SAPE  H14X15989   3.609   4.869   9.096  0.5903 -1.4503 -0.1400
  145SAPE  H14Y15990   3.760   4.843   9.182 -1.3823 -0.7413  0.5469
  145SAPE  C31515991   3.779   4.905   8.978  0.9387 -0.2713  0.7911
  145SAPE  H15X15992   3.741   4.981   8.906 -0.7547 -1.7250  0.0754
  145SAPE  H15Y15993   3.754   4.809   8.927 -1.1190  1.0823 -0.9122
  145SAPE  C31615994   3.932   4.930   8.992 -0.0843  0.3123  0.3184
  145SAPE  H16X15995   3.959   4.845   9.059  1.3161 -0.8159 -1.5908
  145SAPE  H16Y15996   3.960   5.030   9.030 -0.2756  0.6158 -0.3207
  145SAPE  C31715997   4.014   4.899   8.860  0.1263  0.2174  0.1758
  145SAPE  H17X15998   3.992   4.796   8.826 -1.3714  0.9811 -1.3686
  145SAPE  H17Y15999   4.122   4.912   8.882  0.0672 -1.6362  1.8303
  145SAPE  C31816000   3.980   4.986   8.734 -0.1271 -0.2576 -0.2821
  145SAPE  H18X16001   4.057   4.960   8.659 -0.6490  0.0405 -0.9346
  145SAPE  H18Y16002   3.976   5.095   8.752  2.2551 -0.1371 -0.1800
  145SAPE  H18Z16003   3.881   4.955   8.692 -1.6522 -0.2134  2.9761
  146SAPE     N16004   1.933   3.665  10.665  0.3644  0.2032 -0.1978
  146SAPE   HN116005   1.861   3.738  10.683  1.3445  1.1337  0.0458
  146SAPE   HN216006   2.030   3.697  10.681  1.3025 -2.9576  1.2183
  146SAPE   HN316007   1.926   3.641  10.564  2.5254  1.8638 -0.7911
  146SAPE   C1216008   1.906   3.540  10.747 -0.1122 -0.5169  0.0573
  146SAPE  H12A16009   1.814   3.489  10.712 -0.5686  0.0800  0.3704
  146SAPE  H12B16010   1.880   3.569  10.851 -0.3933  1.6303 -0.5448
  146SAPE   C1116011   2.035   3.448  10.751  0.6375  0.1010 -0.5559
  146SAPE  H11A16012   2.067   3.429  10.646  0.8378 -0.4357 -0.4035
  146SAPE  H11B16013   2.017   3.346  10.792  2.0857  0.8336  2.0640
  146SAPE     P16014   2.252   3.589  10.768 -0.2862  0.4522  0.0917
  146SAPE   O1316015   2.200   3.726  10.742 -0.2015 -0.6330  0.1732
  146SAPE   O1416016   2.374   3.584  10.850 -0.3131 -0.2593 -0.6221
  146SAPE   O1216017   2.131   3.509  10.833 -0.1325 -0.9605  0.6293
  146SAPE   O1116018   2.277   3.503  10.638  0.8007 -0.5486 -0.0905
  146SAPE    C116019   2.383   3.519  10.549 -1.0460 -0.2350  0.3309
  146SAPE    HA16020   2.458   3.591  10.589  1.2099 -1.5864 -1.2211
  146SAPE    HB16021   2.446   3.427  10.553  1.8008  1.5593 -0.2018
  146SAPE    C216022   2.346   3.560  10.402 -0.1906  0.9831  0.7950
  146SAPE    HS16023   2.435   3.598  10.348 -0.3294 -0.9369 -0.8842
  146SAPE   O2116024   2.256   3.667  10.391 -0.0671 -0.0529 -0.2210
  146SAPE   C2116025   2.288   3.787  10.428  0.1192 -0.1130  0.6813
  146SAPE   O2216026   2.404   3.830  10.435 -0.3332  1.0383  0.2417
  146SAPE   C2216027   2.160   3.870  10.436  0.1647 -0.1230  0.9536
  146SAPE   H2R16028   2.071   3.807  10.416 -0.8244  1.9703 -1.8066
  146SAPE   H2S16029   2.155   3.904  10.542  0.0576  0.3768  0.7923
  146SAPE    C316030   2.285   3.442  10.324  0.1281  0.1905  0.0377
  146SAPE    HX16031   2.181   3.437  10.364 -0.0689  2.6668 -0.0084
  146SAPE    HY16032   2.339   3.348  10.350 -1.7127 -0.7541  0.6650
  146SAPE   O3116033   2.303   3.458  10.182  0.6804 -0.7119 -0.0449
  146SAPE   C3116034   2.198   3.504  10.120 -0.0632  0.2816  0.0347
  146SAPE   O3216035   2.085   3.519  10.163 -0.2440  0.0942  0.5533
  146SAPE   C3216036   2.258   3.548   9.987  0.0305  0.0410  0.3123
  146SAPE   H2X16037   2.337   3.478   9.953 -1.3497 -1.5138  0.1450
  146SAPE   H2Y16038   2.300   3.650   9.999  1.9488 -0.3778 -2.1009
  146SAPE   C2316039   2.150   3.992  10.335 -0.1160  0.0617 -0.1794
  146SAPE   H3R16040   2.250   4.039  10.326 -0.0410 -0.1524 -0.5043
  146SAPE   H3S16041   2.082   4.070  10.375  0.2514  0.5683 -0.5308
  146SAPE   C2416042   2.091   3.957  10.200  0.0032 -0.0046 -0.4595
  146SAPE   H4R16043   1.981   3.946  10.210  0.2149  0.1561  3.2537
  146SAPE   H4S16044   2.125   3.854  10.173  0.0913 -0.4039  1.0756
  146SAPE   C2516045   2.126   4.067  10.102  0.3324 -0.0130  0.8044
  146SAPE   H5R16046   2.053   4.149  10.107  0.6090  0.2840  0.0906
  146SAPE   C2616047   2.227   4.069  10.010 -0.5701  0.5061 -0.3601
  146SAPE   H6R16048   2.243   4.156   9.944  0.0574  0.8759  0.2550
  146SAPE   C2716049   2.319   3.955   9.975 -0.1073  0.6185 -0.3099
  146SAPE   H7R16050   2.338   3.961   9.865  1.3297 -0.2647 -0.1317
  146SAPE   H7S16051   2.261   3.861   9.986  2.5410 -0.8638  2.5869
  146SAPE   C2816052   2.450   3.962  10.043 -0.5229  0.8056 -0.4295
  146SAPE   H8R16053   2.447   4.015  10.139  0.0096 -0.2094  0.1562
  146SAPE   C2916054   2.568   3.903  10.002  0.8031  0.0022 -0.3467
  146SAPE   H9R16055   2.649   3.910  10.076  1.2575  1.1173 -0.9280
  146SAPE  C21016056   2.584   3.819   9.878 -0.0931  0.0741  0.0687
  146SAPE  H10R16057   2.589   3.890   9.792 -0.3795 -0.3253 -0.2790
  146SAPE  H10S16058   2.496   3.753   9.862 -1.1820  1.8854 -2.0346
  146SAPE  C21116059   2.706   3.738   9.873  0.1457  0.4801 -0.1802
  146SAPE  H11R16060   2.697   3.637   9.917  1.9612 -0.9854 -2.8749
  146SAPE  C21216061   2.833   3.764   9.835  0.3209 -0.3567  0.2891
  146SAPE  H12R16062   2.912   3.694   9.866  0.1196 -1.2964 -1.2060
  146SAPE  C21316063   2.864   3.895   9.783 -0.0775 -0.5261  0.0651
  146SAPE  H13R16064   2.796   3.970   9.830 -1.7707 -2.2327  0.4352
  146SAPE  H13S16065   2.843   3.897   9.674  0.3970  3.6821 -0.1322
  146SAPE  C21416066   3.008   3.941   9.807  0.1926  0.0987 -0.1966
  146SAPE  H14R16067   3.015   4.007   9.895  1.2452 -1.8441  1.2700
  146SAPE  C21516068   3.112   3.928   9.719 -0.2717  0.1753 -0.1766
  146SAPE  H15R16069   3.214   3.957   9.749 -1.1457  1.1412  2.0756
  146SAPE  C21616070   3.103   3.852   9.589  0.5227 -0.1811  0.5684
  146SAPE  H16R16071   2.996   3.845   9.561  0.9295 -0.7314 -0.9550
  146SAPE  H16S16072   3.142   3.749   9.605  0.6516 -0.3406 -0.7062
  146SAPE  C21716073   3.166   3.914   9.464  0.2642 -0.6365 -0.3263
  146SAPE  H17R16074   3.273   3.886   9.475  0.0617 -0.5155  3.5050
  146SAPE  H17S16075   3.160   4.025   9.468  0.8019 -0.6246  2.4937
  146SAPE  C21816076   3.125   3.868   9.328  0.1647 -0.5651 -0.2342
  146SAPE  H18R16077   3.021   3.906   9.321 -0.5588 -2.4400 -0.2066
  146SAPE  H18S16078   3.108   3.758   9.319 -1.7001 -0.4732  1.5098
  146SAPE  C21916079   3.220   3.917   9.221  0.2033  0.3958 -0.5816
  146SAPE  H19R16080   3.325   3.881   9.226 -0.0144 -0.1906 -0.1237
  146SAPE  H19S16081   3.228   4.025   9.248 -3.0107  0.1187  2.1019
  146SAPE  C22016082   3.161   3.883   9.085  0.3192 -0.0862  0.2595
  146SAPE  H20R16083   3.217   3.941   9.009 -1.3846 -0.2775 -1.1928
  146SAPE  H20S16084   3.052   3.894   9.069  0.3161 -1.2602 -0.6578
  146SAPE  H20T16085   3.186   3.777   9.063  4.2069  0.8859 -0.9215
  146SAPE   C3316086   2.160   3.557   9.870  0.0563  0.3612 -0.1646
  146SAPE   H3X16087   2.064   3.601   9.904  0.8393  1.5486  0.5796
  146SAPE   H3Y16088   2.144   3.451   9.840 -2.7134  1.3489 -2.6294
  146SAPE   C3416089   2.210   3.632   9.752  0.3213  0.1695  0.8381
  146SAPE   H4X16090   2.242   3.732   9.790 -0.5742  0.9775 -0.4626
  146SAPE   H4Y16091   2.126   3.646   9.681  0.5515  1.3225  0.7673
  146SAPE   C3516092   2.323   3.563   9.670  0.2920 -0.3759 -0.3310
  146SAPE   H5X16093   2.294   3.461   9.636 -0.0278 -0.7505  1.0180
  146SAPE   H5Y16094   2.414   3.554   9.732 -1.6419 -1.1234  2.6129
  146SAPE   C3616095   2.369   3.649   9.551 -0.3866 -0.0096  0.6327
  146SAPE   H6X16096   2.358   3.758   9.573  0.0176  0.9155 -3.0522
  146SAPE   H6Y16097   2.299   3.627   9.467 -0.6189  0.9364  0.5673
  146SAPE   C3716098   2.515   3.623   9.513 -0.2655  1.0266  0.0281
  146SAPE   H7X16099   2.530   3.514   9.502  0.9710  1.1834 -0.0996
  146SAPE   H7Y16100   2.581   3.642   9.600  2.0573  1.4918 -1.7134
  146SAPE   C3816101   2.571   3.699   9.390  0.5506 -0.0495  0.3078
  146SAPE   H8X16102   2.517   3.689   9.293  0.5897  0.1870  0.2601
  146SAPE   H8Y16103   2.675   3.664   9.378  1.4323  1.8312  1.9692
  146SAPE   C3916104   2.600   3.849   9.415  0.5956 -0.4836  0.2385
  146SAPE   H9X16105   2.663   3.864   9.505 -0.3576  1.8072  0.5928
  146SAPE   H9Y16106   2.501   3.894   9.431  0.6495 -0.9365  2.0707
  146SAPE  C31016107   2.676   3.914   9.296 -0.5123  0.3325  0.4638
  146SAPE  H10X16108   2.627   3.897   9.197  1.5751  1.2093 -0.7886
  146SAPE  H10Y16109   2.772   3.858   9.298  0.3707  1.7621  3.5249
  146SAPE  C31116110   2.696   4.066   9.321  0.4943 -0.2358  0.2912
  146SAPE  H11X16111   2.601   4.117   9.298 -0.1560 -1.7756 -0.6207
  146SAPE  H11Y16112   2.766   4.092   9.239 -0.5450  2.6205  0.2105
  146SAPE  C31216113   2.761   4.105   9.454  0.8888 -0.0575  0.0580
  146SAPE  H12X16114   2.862   4.058   9.446  0.2682 -1.2820 -1.2607
  146SAPE  H12Y16115   2.709   4.064   9.543 -0.1685  0.5767 -0.2460
  146SAPE  C31316116   2.774   4.253   9.479  0.0992 -0.0509  0.2558
  146SAPE  H13X16117   2.671   4.291   9.491 -0.0405 -0.6359  0.9540
  146SAPE  H13Y16118   2.823   4.305   9.393  0.3485 -0.6951 -0.0079
  146SAPE  C31416119   2.853   4.277   9.607 -0.1874 -0.5290  0.5628
  146SAPE  H14X16120   2.957   4.248   9.584 -0.5339 -0.5233 -1.1902
  146SAPE  H14Y16121   2.820   4.216   9.693  0.1165 -1.6036 -0.0653
  146SAPE  C31516122   2.853   4.422   9.639 -0.3351  0.3324 -0.7541
  146SAPE  H15X16123   2.759   4.477   9.615 -0.1430  1.3066  0.5790
  146SAPE  H15Y16124   2.933   4.477   9.587  0.0582  0.0048 -0.5051
  146SAPE  C31616125   2.879   4.460   9.787  0.1581 -0.1851 -0.2841
  146SAPE  H16X16126   2.968   4.401   9.817  0.3277  0.2847  0.1482
  146SAPE  H16Y16127   2.799   4.409   9.845 -3.3342  2.3367 -2.4462
  146SAPE  C31716128   2.869   4.608   9.820  0.6781  0.2252  0.7817
  146SAPE  H17X16129   2.762   4.638   9.822  0.4162 -0.6256 -0.0266
  146SAPE  H17Y16130   2.921   4.669   9.744 -0.3860 -0.6081 -0.6542
  146SAPE  C31816131   2.916   4.631   9.965 -0.2621  1.1681  0.8519
  146SAPE  H18X16132   2.885   4.544  10.027  1.4638 -1.4322 -1.6395
  146SAPE  H18Y16133   2.874   4.722  10.013 -1.0871  0.0245  2.3989
  146SAPE  H18Z16134   3.025   4.648   9.970 -0.4682  3.4232 -0.8086
  147SAPE     N16135   5.058   2.207   6.208 -0.1325  0.3019  0.1088
  147SAPE   HN116136   4.995   2.193   6.127  1.8420  0.9175 -1.6221
  147SAPE   HN216137   5.049   2.309   6.227  0.4792  0.7436 -1.7593
  147SAPE   HN316138   5.158   2.188   6.186 -0.5878  1.0511 -2.9787
  147SAPE   C1216139   5.010   2.112   6.319 -0.3652 -0.3646 -0.1423
  147SAPE  H12A16140   5.079   2.109   6.406 -0.6036 -0.1351  0.0548
  147SAPE  H12B16141   4.992   2.009   6.281 -1.2159 -0.4069  0.3631
  147SAPE   C1116142   4.871   2.178   6.366 -0.3582  1.0989  0.0994
  147SAPE  H11A16143   4.895   2.283   6.396 -0.0455  0.7027  1.3187
  147SAPE  H11B16144   4.840   2.131   6.462 -1.0261  0.1863 -0.5522
  147SAPE     P16145   4.700   2.038   6.230 -0.4466 -0.2958  0.1303
  147SAPE   O1316146   4.600   2.068   6.125 -0.8440  0.8329 -0.0661
  147SAPE   O1416147   4.802   1.933   6.209 -0.5208  0.3382 -0.3321
  147SAPE   O1216148   4.776   2.171   6.266  0.0420 -0.2778  0.0291
  147SAPE   O1116149   4.629   2.002   6.370 -0.1600  0.1679 -0.0747
  147SAPE    C116150   4.522   2.077   6.424 -0.5076  0.7902 -0.5200
  147SAPE    HA16151   4.543   2.186   6.429  2.3175  0.2584  1.3871
  147SAPE    HB16152   4.427   2.056   6.371 -0.0383 -1.6043 -0.5309
  147SAPE    C216153   4.492   2.022   6.569  1.6929 -0.5286  0.5327
  147SAPE    HS16154   4.400   2.070   6.607  1.4894  1.7619 -2.4361
  147SAPE   O2116155   4.611   2.042   6.649  0.2974 -0.1637  0.0467
  147SAPE   C2116156   4.631   2.164   6.699  0.3559  0.4241  0.2641
  147SAPE   O2216157   4.566   2.260   6.666 -0.5866 -0.3468  0.3676
  147SAPE   C2216158   4.742   2.167   6.803  0.3321  0.2379  0.0817
  147SAPE   H2R16159   4.839   2.162   6.749  0.1539  0.4466 -0.2655
  147SAPE   H2S16160   4.742   2.263   6.859 -0.9758  0.2289  0.1302
  147SAPE    C316161   4.478   1.867   6.569 -0.5654  0.1626 -0.5765
  147SAPE    HX16162   4.573   1.824   6.531 -0.6114  0.3230 -0.8770
  147SAPE    HY16163   4.406   1.829   6.493  1.1292  1.8394 -3.1638
  147SAPE   O3116164   4.439   1.818   6.702  0.2635 -0.1942 -0.1748
  147SAPE   C3116165   4.514   1.717   6.754 -0.1828 -0.2701 -0.5402
  147SAPE   O3216166   4.614   1.662   6.708 -0.0881  0.4909 -0.0982
  147SAPE   C3216167   4.455   1.679   6.881 -0.5229 -0.3879  0.1476
  147SAPE   H2X16168   4.361   1.629   6.849 -2.0783  1.4783  1.5836
  147SAPE   H2Y16169   4.423   1.767   6.940  2.3412 -1.0130  2.8906
  147SAPE   C2316170   4.737   2.051   6.911 -0.5959 -0.7976  0.6840
  147SAPE   H3R16171   4.835   2.061   6.964  0.7437  2.5732 -2.0290
  147SAPE   H3S16172   4.735   1.957   6.852 -2.6366 -1.9243  2.3983
  147SAPE   C2416173   4.620   2.059   7.011  0.3084  0.2012  0.2749
  147SAPE   H4R16174   4.639   1.975   7.081  0.9371  1.0230  1.1138
  147SAPE   H4S16175   4.525   2.048   6.955 -0.0902 -0.6184  1.0935
  147SAPE   C2516176   4.630   2.194   7.080 -0.5204 -0.3950 -0.9532
  147SAPE   H5R16177   4.594   2.283   7.027  1.8226  1.6416  0.6227
  147SAPE   C2616178   4.658   2.209   7.211  0.3795  0.7322  0.1076
  147SAPE   H6R16179   4.668   2.312   7.250 -1.7982  0.9335  0.2224
  147SAPE   C2716180   4.701   2.108   7.311 -0.3184  0.3914  0.5120
  147SAPE   H7R16181   4.671   2.006   7.280  1.0250  0.0114  0.4097
  147SAPE   H7S16182   4.638   2.115   7.402 -0.6102 -0.6417  0.3957
  147SAPE   C2816183   4.849   2.119   7.326 -0.2507 -0.5325  0.5116
  147SAPE   H8R16184   4.899   2.172   7.244 -1.5657  1.4106  0.8901
  147SAPE   C2916185   4.914   2.091   7.445  0.5539  0.4416  0.2189
  147SAPE   H9R16186   5.023   2.100   7.448  0.6496  0.4599 -1.8775
  147SAPE  C21016187   4.857   2.027   7.570 -0.1533  0.5218 -0.2252
  147SAPE  H10R16188   4.937   1.960   7.608  0.5642  1.8245  0.6523
  147SAPE  H10S16189   4.759   1.976   7.554 -0.7533  1.4928  0.2124
  147SAPE  C21116190   4.837   2.143   7.667  0.1991  0.0524 -0.1107
  147SAPE  H11R16191   4.735   2.184   7.663  0.6155  1.2308  0.6707
  147SAPE  C21216192   4.917   2.169   7.773 -0.0475 -0.3069  0.0379
  147SAPE  H12R16193   4.893   2.244   7.851 -1.4597  0.9834 -1.5464
  147SAPE  C21316194   5.046   2.102   7.821 -0.2088 -0.3857  0.6188
  147SAPE  H13R16195   5.086   2.175   7.894 -1.0643 -0.8102  1.5240
  147SAPE  H13S16196   5.123   2.104   7.741  1.6332  1.9098  2.3279
  147SAPE  C21416197   5.021   1.971   7.901 -0.3878  0.4705  0.5199
  147SAPE  H14R16198   5.004   1.881   7.840  0.3157 -0.3823  1.5497
  147SAPE  C21516199   5.010   1.951   8.034  0.6455 -0.2168 -0.8895
  147SAPE  H15R16200   4.999   1.849   8.075 -2.5599  0.3742  0.0267
  147SAPE  C21616201   5.029   2.052   8.149  0.4774 -0.1175  1.1005
  147SAPE  H16R16202   4.943   2.044   8.218 -1.3006 -0.3573 -1.0308
  147SAPE  H16S16203   5.024   2.157   8.115  1.4796 -0.2849  0.3710
  147SAPE  C21716204   5.157   2.037   8.224 -0.4118  0.2024 -0.1888
  147SAPE  H17R16205   5.239   2.041   8.150 -0.7674 -1.9577 -0.7733
  147SAPE  H17S16206   5.151   1.936   8.271  1.1857  1.0547  1.9933
  147SAPE  C21816207   5.170   2.146   8.334  0.7083  0.3928 -0.0978
  147SAPE  H18R16208   5.094   2.135   8.415  2.1088  1.5320  1.4471
  147SAPE  H18S16209   5.139   2.246   8.298  2.1010  0.5959 -0.7875
  147SAPE  C21916210   5.305   2.151   8.402  1.0890  0.1585 -0.1896
  147SAPE  H19R16211   5.294   2.237   8.471  2.8989  0.4969 -0.2821
  147SAPE  H19S16212   5.385   2.184   8.333  0.6346 -4.3069 -3.2574
  147SAPE  C22016213   5.350   2.027   8.477  0.4643  0.2168 -0.4048
  147SAPE  H20R16214   5.413   2.051   8.565  0.3937  1.7672 -0.7453
  147SAPE  H20S16215   5.397   1.946   8.416  0.2643 -0.7296  0.6741
  147SAPE  H20T16216   5.267   1.971   8.526  0.7898 -0.8741 -1.0495
  147SAPE   C3316217   4.545   1.582   6.969 -0.5269 -0.9392  0.0643
  147SAPE   H3X16218   4.585   1.502   6.904  0.0927  0.2209 -1.0195
  147SAPE   H3Y16219   4.471   1.533   7.036 -2.8693  1.0643 -0.8940
  147SAPE   C3416220   4.656   1.646   7.050  0.0474 -0.5383 -0.5255
  147SAPE   H4X16221   4.607   1.692   7.138  1.7928 -2.4975  1.6014
  147SAPE   H4Y16222   4.706   1.721   6.985  1.5133 -0.0525  1.0883
  147SAPE   C3516223   4.777   1.549   7.084  0.0984 -0.3687 -0.4693
  147SAPE   H5X16224   4.861   1.616   7.109 -1.3004  1.3880 -0.3252
  147SAPE   H5Y16225   4.784   1.486   6.992  0.7679 -0.8547 -0.0946
  147SAPE   C3616226   4.754   1.454   7.201  0.1049  0.5521 -0.5385
  147SAPE   H6X16227   4.828   1.372   7.191 -0.8982 -0.9620  3.0322
  147SAPE   H6Y16228   4.646   1.429   7.198 -0.0333  0.8442  1.2671
  147SAPE   C3716229   4.785   1.510   7.340  0.5094 -0.3828  0.3245
  147SAPE   H7X16230   4.890   1.545   7.333  1.1038 -2.3858 -2.6754
  147SAPE   H7Y16231   4.775   1.428   7.414 -0.7633 -0.8285 -0.3215
  147SAPE   C3816232   4.703   1.638   7.382 -0.0971 -0.1088 -0.5331
  147SAPE   H8X16233   4.598   1.618   7.352 -0.0775  1.3938 -1.7685
  147SAPE   H8Y16234   4.740   1.722   7.319  3.3014  0.0017  1.3317
  147SAPE   C3916235   4.704   1.673   7.534  0.4620  1.3896  0.0627
  147SAPE   H9X16236   4.664   1.774   7.559 -2.1032  0.5822 -0.4472
  147SAPE   H9Y16237   4.812   1.659   7.558  0.4136  0.8637 -0.0159
  147SAPE  C31016238   4.613   1.568   7.606 -0.0290 -0.2365 -0.7905
  147SAPE  H10X16239   4.630   1.469   7.559 -1.9775 -0.0108 -2.1347
  147SAPE  H10Y16240   4.505   1.597   7.606  0.4954  1.9695 -2.1181
  147SAPE  C31116241   4.656   1.552   7.755 -0.3884  1.1828  0.2916
  147SAPE  H11X16242   4.766   1.566   7.752 -0.3196  0.5474 -1.3269
  147SAPE  H11Y16243   4.630   1.447   7.779 -0.2494  0.5934 -1.9272
  147SAPE  C31216244   4.584   1.630   7.858 -0.3826 -0.3637  0.4142
  147SAPE  H12X16245   4.484   1.583   7.876 -0.4603  0.2065  1.6109
  147SAPE  H12Y16246   4.570   1.736   7.829  2.2837 -0.3384 -1.0418
  147SAPE  C31316247   4.666   1.628   7.984 -0.1196 -0.1006 -0.5100
  147SAPE  H13X16248   4.771   1.662   7.971 -0.4171  1.1995  0.2113
  147SAPE  H13Y16249   4.668   1.525   8.024 -3.5864 -0.8115 -1.8049
  147SAPE  C31416250   4.597   1.707   8.100  0.0447 -0.3159 -0.8950
  147SAPE  H14X16251   4.498   1.662   8.124  0.1970 -0.2661 -0.1533
  147SAPE  H14Y16252   4.572   1.809   8.062 -0.5633 -1.0532 -2.5194
  147SAPE  C31516253   4.684   1.694   8.231 -0.2763 -0.5968  0.9833
  147SAPE  H15X16254   4.642   1.770   8.300 -0.4533  0.6986 -0.4823
  147SAPE  H15Y16255   4.783   1.738   8.209 -2.5171  3.4519 -2.6085
  147SAPE  C31616256   4.681   1.552   8.293 -0.5993 -0.3154 -0.3084
  147SAPE  H16X16257   4.763   1.506   8.234 -0.8411 -1.4886  0.2387
  147SAPE  H16Y16258   4.584   1.502   8.270 -0.9436  0.5159 -0.6847
  147SAPE  C31716259   4.722   1.553   8.446  0.0669 -0.3179 -0.4929
  147SAPE  H17X16260   4.728   1.447   8.481  1.9968  0.0008  0.2854
  147SAPE  H17Y16261   4.634   1.597   8.498 -0.4117 -0.9780 -0.7312
  147SAPE  C31816262   4.847   1.627   8.488  0.2565  0.3282  0.1770
  147SAPE  H18X16263   4.858   1.630   8.598  0.4594  0.8292  0.1461
  147SAPE  H18Y16264   4.845   1.734   8.458  2.5385  0.2415 -0.4727
  147SAPE  H18Z16265   4.943   1.585   8.450 -1.1994 -1.6536 -1.5332
  148SAPE     N16266   4.278   0.632   6.342 -0.1234  0.4190  0.2136
  148SAPE   HN116267   4.195   0.693   6.330 -1.5651 -1.3678  0.5679
  148SAPE   HN216268   4.331   0.689   6.411  2.8909  2.1642 -3.2322
  148SAPE   HN316269   4.328   0.633   6.251  0.8625  0.8412  0.7470
  148SAPE   C1216270   4.239   0.501   6.396 -0.2187 -0.7249  0.6648
  148SAPE  H12A16271   4.324   0.432   6.378 -0.6251 -1.0791  0.0528
  148SAPE  H12B16272   4.148   0.464   6.344 -0.1031 -0.4635  0.2795
  148SAPE   C1116273   4.221   0.513   6.548 -0.0746 -0.0924  0.5471
  148SAPE  H11A16274   4.303   0.567   6.599 -1.2320  1.7640  0.5580
  148SAPE  H11B16275   4.211   0.408   6.584  0.2391 -0.6362 -0.9017
  148SAPE     P16276   3.961   0.539   6.593  0.0181 -0.0578  0.1524
  148SAPE   O1316277   3.865   0.643   6.628 -0.1640 -0.0903  0.0190
  148SAPE   O1416278   3.943   0.465   6.470  0.6371  0.4168  0.2572
  148SAPE   O1216279   4.111   0.593   6.581  0.4457 -0.0071  0.2607
  148SAPE   O1116280   3.954   0.434   6.706 -0.2002 -0.1245 -0.2469
  148SAPE    C116281   3.983   0.463   6.837  0.0913  0.2077  0.2346
  148SAPE    HA16282   4.006   0.569   6.863 -2.8233  1.0629 -0.3472
  148SAPE    HB16283   3.892   0.454   6.899  0.2876  0.0822  0.5077
  148SAPE    C216284   4.084   0.369   6.894 -0.4118  0.2987  0.1004
  148SAPE    HS16285   4.174   0.384   6.831 -1.5854  0.6831 -1.5542
  148SAPE   O2116286   4.024   0.238   6.882 -0.2661  0.0616 -0.5150
  148SAPE   C2116287   4.109   0.136   6.905  0.1111 -0.0847  0.3261
  148SAPE   O2216288   4.225   0.151   6.947 -0.1323  0.1632  0.1620
  148SAPE   C2216289   4.024  -0.003   6.892  0.2615  0.3739 -0.1516
  148SAPE   H2R16290   3.935  -0.001   6.957 -1.4515 -0.5423 -2.3355
  148SAPE   H2S16291   3.997   0.020   6.787  3.7627  1.1478 -1.0264
  148SAPE    C316292   4.103   0.403   7.045  0.6959 -0.4500  0.0166
  148SAPE    HX16293   4.175   0.335   7.095  0.9207  0.8414  1.5026
  148SAPE    HY16294   4.003   0.378   7.088  1.0032 -2.0230 -0.1154
  148SAPE   O3116295   4.138   0.538   7.075 -0.1873  0.1658 -0.3750
  148SAPE   C3116296   4.054   0.616   7.136 -0.0960  1.5305  0.7229
  148SAPE   O3216297   3.935   0.601   7.135  0.5175  0.0046 -0.5082
  148SAPE   C3216298   4.131   0.731   7.195  0.2027  0.4173  1.1703
  148SAPE   H2X16299   4.105   0.813   7.124 -0.7554  0.5342  1.6367
  148SAPE   H2Y16300   4.240   0.711   7.182 -0.0750 -0.8678  0.6804
  148SAPE   C2316301   4.099  -0.140   6.891  0.3779  0.0166  0.3597
  148SAPE   H3R16302   4.183  -0.124   6.821 -0.2129  0.3683 -0.2888
  148SAPE   H3S16303   4.021  -0.206   6.847 -2.4864  3.4329 -0.1737
  148SAPE   C2416304   4.139  -0.189   7.035  0.1973  0.0222 -0.1473
  148SAPE   H4R16305   4.235  -0.136   7.057  1.2200 -2.1280  0.8459
  148SAPE   H4S16306   4.166  -0.293   7.009 -1.6728 -0.2950 -0.9718
  148SAPE   C2516307   4.029  -0.190   7.143  0.4223 -0.3599  0.5905
  148SAPE   H5R16308   3.947  -0.261   7.124  0.8190 -0.5684 -0.3919
  148SAPE   C2616309   4.013  -0.108   7.253  0.4171  0.5986  0.4628
  148SAPE   H6R16310   3.939  -0.130   7.332  0.2961 -2.1467 -0.3221
  148SAPE   C2716311   4.110   0.006   7.275 -0.1806 -0.8136 -0.5548
  148SAPE   H7R16312   4.051   0.093   7.311 -0.8500 -1.5657  0.2077
  148SAPE   H7S16313   4.163   0.041   7.184  2.2754  1.0884  1.4747
  148SAPE   C2816314   4.213  -0.023   7.374  0.0554 -0.3091 -0.5782
  148SAPE   H8R16315   4.282  -0.099   7.333  1.4632  0.6664 -0.1087
  148SAPE   C2916316   4.223   0.010   7.501 -0.0334 -0.5638 -0.3473
  148SAPE   H9R16317   4.309  -0.029   7.557 -0.5705 -2.5693 -0.8240
  148SAPE  C21016318   4.143   0.105   7.591  0.0381 -0.6356 -0.0830
  148SAPE  H10R16319   4.069   0.148   7.519  1.4537  3.5292  0.6928
  148SAPE  H10S16320   4.198   0.193   7.630 -2.2250  0.1845  1.4703
  148SAPE  C21116321   4.076   0.041   7.712  0.5419  0.2502 -0.8127
  148SAPE  H11R16322   3.987  -0.018   7.686  1.9385 -2.6381  0.4588
  148SAPE  C21216323   4.106   0.042   7.845  0.8505 -1.2331 -0.9353
  148SAPE  H12R16324   4.039  -0.006   7.918 -1.2713  2.1890 -0.4092
  148SAPE  C21316325   4.224   0.115   7.910  0.4465  0.0560  0.2041
  148SAPE  H13R16326   4.207   0.225   7.905  1.2680  0.1896  0.1214
  148SAPE  H13S16327   4.313   0.089   7.849  1.3145 -0.0948  1.5022
  148SAPE  C21416328   4.248   0.079   8.055 -0.4797 -0.3218  0.1097
  148SAPE  H14R16329   4.315  -0.008   8.069 -0.8198 -0.4353  1.1116
  148SAPE  C21516330   4.174   0.116   8.162  0.8805  0.1856 -0.0184
  148SAPE  H15R16331   4.212   0.080   8.259  0.9107  2.2882  0.8020
  148SAPE  C21616332   4.063   0.214   8.164  0.1872  0.4953  0.2477
  148SAPE  H16R16333   3.985   0.191   8.240  0.9000  1.1561  1.1997
  148SAPE  H16S16334   4.018   0.221   8.062  1.9117  0.2073 -0.5758
  148SAPE  C21716335   4.111   0.358   8.187 -0.1970 -0.5364  0.0129
  148SAPE  H17R16336   4.023   0.425   8.177  0.0770 -0.4322 -2.2106
  148SAPE  H17S16337   4.183   0.389   8.108 -1.9067 -0.2659 -1.5317
  148SAPE  C21816338   4.174   0.381   8.321 -0.6811 -0.5422  0.3665
  148SAPE  H18R16339   4.273   0.333   8.336  1.0312  2.4525 -0.3086
  148SAPE  H18S16340   4.101   0.332   8.388  0.9157 -2.7750  0.5772
  148SAPE  C21916341   4.189   0.537   8.359  0.0460 -0.1098  0.4934
  148SAPE  H19R16342   4.120   0.596   8.295  0.2769 -0.3868 -0.0127
  148SAPE  H19S16343   4.286   0.580   8.327  0.5960 -0.9969  0.9366
  148SAPE  C22016344   4.173   0.551   8.505  0.3702  0.1701  0.2044
  148SAPE  H20R16345   4.074   0.514   8.539 -2.3567  2.6186 -4.1238
  148SAPE  H20S16346   4.194   0.656   8.537 -1.5911  0.6749 -0.0315
  148SAPE  H20T16347   4.254   0.499   8.559 -1.3097 -2.2067  0.6007
  148SAPE   C3316348   4.076   0.772   7.340 -0.1405  0.3686  0.8959
  148SAPE   H3X16349   4.101   0.686   7.406  1.5012 -0.9736 -1.3557
  148SAPE   H3Y16350   3.965   0.776   7.341 -0.2134 -0.8756  0.3468
  148SAPE   C3416351   4.135   0.912   7.375 -0.1918  0.0376  0.0600
  148SAPE   H4X16352   4.116   0.979   7.288  0.1898 -0.2370 -0.2435
  148SAPE   H4Y16353   4.245   0.897   7.384 -0.2681 -2.1522 -1.6019
  148SAPE   C3516354   4.072   0.968   7.501 -0.3053  0.5091  0.2148
  148SAPE   H5X16355   3.962   0.969   7.486 -0.2498 -0.7347 -0.3582
  148SAPE   H5Y16356   4.114   1.070   7.517  0.6016 -0.1739  2.6361
  148SAPE   C3616357   4.106   0.884   7.619  0.0932 -0.6573  0.5669
  148SAPE   H6X16358   4.215   0.869   7.632  0.0608 -0.8952  0.5778
  148SAPE   H6Y16359   4.064   0.781   7.614 -1.5509  0.0185 -0.5521
  148SAPE   C3716360   4.045   0.959   7.747 -0.1868  0.1932 -0.3374
  148SAPE   H7X16361   3.943   1.001   7.733  0.3081  2.2350  1.6019
  148SAPE   H7Y16362   4.114   1.044   7.765  0.8640 -0.6559 -0.2429
  148SAPE   C3816363   4.054   0.856   7.863  0.4442  0.1558 -0.2704
  148SAPE   H8X16364   4.163   0.838   7.870  0.5863  1.1625  0.4220
  148SAPE   H8Y16365   4.002   0.766   7.824 -0.5167  1.3358 -1.8394
  148SAPE   C3916366   3.993   0.922   7.987 -0.0241  0.4238  0.0026
  148SAPE   H9X16367   3.883   0.934   7.992  0.0243  1.6755 -1.3688
  148SAPE   H9Y16368   4.024   1.028   7.982 -1.6762  0.8721 -1.4298
  148SAPE  C31016369   4.035   0.838   8.114  0.3361  0.3042 -0.0845
  148SAPE  H10X16370   4.142   0.816   8.091 -0.1285 -1.0868 -1.0833
  148SAPE  H10Y16371   3.993   0.735   8.109 -0.4169  0.6469 -1.5630
  148SAPE  C31116372   4.029   0.904   8.252 -0.0951 -0.3607 -0.0299
  148SAPE  H11X16373   4.095   0.993   8.240 -0.8925  0.0010 -2.1024
  148SAPE  H11Y16374   4.075   0.829   8.319  1.1058 -0.1859 -0.6307
  148SAPE  C31216375   3.895   0.940   8.315 -0.0119  0.3728  0.4407
  148SAPE  H12X16376   3.832   1.005   8.250 -0.9016 -1.0518 -0.1611
  148SAPE  H12Y16377   3.918   1.013   8.395  1.4265 -1.4348  1.7445
  148SAPE  C31316378   3.803   0.832   8.378 -0.0854 -0.1305  0.0360
  148SAPE  H13X16379   3.867   0.763   8.437 -0.9444 -0.0157  1.1352
  148SAPE  H13Y16380   3.749   0.779   8.296  0.1428 -0.5776  0.1711
  148SAPE  C31416381   3.695   0.901   8.470 -0.0586 -0.5499  0.2333
  148SAPE  H14X16382   3.627   0.961   8.407  0.0332  0.9942  1.5361
  148SAPE  H14Y16383   3.740   0.983   8.531  0.5777 -0.1116 -0.7989
  148SAPE  C31516384   3.610   0.797   8.556 -0.6012  0.0636  0.1728
  148SAPE  H15X16385   3.559   0.721   8.493  0.4403 -0.8128  0.3693
  148SAPE  H15Y16386   3.521   0.855   8.591 -0.0857  0.4859  0.8006
  148SAPE  C31616387   3.689   0.723   8.659 -0.3618 -0.1643  0.4713
  148SAPE  H16X16388   3.790   0.708   8.616 -0.2396  0.3552  0.5742
  148SAPE  H16Y16389   3.644   0.623   8.676  0.1255 -0.5760 -0.6133
  148SAPE  C31716390   3.696   0.790   8.803 -0.1904  0.4764  1.1564
  148SAPE  H17X16391   3.591   0.795   8.840 -0.0985  0.1141  1.4638
  148SAPE  H17Y16392   3.734   0.893   8.786 -0.2360  0.2048 -0.7503
  148SAPE  C31816393   3.802   0.738   8.904  0.1934 -0.8237  0.5377
  148SAPE  H18X16394   3.822   0.629   8.904  2.3792 -0.4767  0.9224
  148SAPE  H18Y16395   3.788   0.777   9.008 -1.1069 -0.0270  0.0841
  148SAPE  H18Z16396   3.896   0.787   8.869 -0.3308  0.5950  1.0141
  149SAPE     N16397   5.753   6.400   6.494  0.3597  0.0560  0.2268
  149SAPE   HN116398   5.794   6.364   6.405 -0.4554  1.8570 -0.9527
  149SAPE   HN216399   5.719   6.329   6.562  3.0570 -1.6690 -0.0841
  149SAPE   HN316400   5.682   6.471   6.468 -0.3632 -1.3960 -2.1842
  149SAPE   C1216401   5.877   6.464   6.558  0.5222 -0.2384 -0.6245
  149SAPE  H12A16402   5.944   6.378   6.580 -2.0197 -1.3398  4.2205
  149SAPE  H12B16403   5.845   6.511   6.654  0.7536  1.0989 -1.1804
  149SAPE   C1116404   5.944   6.564   6.464  0.9421  0.3361  0.0972
  149SAPE  H11A16405   5.953   6.513   6.366  1.3478  0.5481  0.0196
  149SAPE  H11B16406   6.045   6.597   6.497  1.6822 -0.1243 -1.6266
  149SAPE     P16407   5.903   6.812   6.391 -0.1160 -0.0620  0.3519
  149SAPE   O1316408   6.022   6.807   6.301 -0.0940  0.2745 -0.1083
  149SAPE   O1416409   5.779   6.877   6.337 -0.1705  0.6943 -0.2343
  149SAPE   O1216410   5.854   6.671   6.436  0.2029 -0.2252 -0.2514
  149SAPE   O1116411   5.943   6.869   6.526  0.2479 -0.0467  0.0359
  149SAPE    C116412   5.855   6.848   6.639  0.1932  0.1485  0.1587
  149SAPE    HA16413   5.748   6.850   6.610  0.6875  1.2430 -1.7525
  149SAPE    HB16414   5.875   6.753   6.692  0.5207 -0.1986 -0.5853
  149SAPE    C216415   5.873   6.966   6.742  0.1379  0.1984  0.9289
  149SAPE    HS16416   5.837   7.055   6.685 -0.6350 -0.7714 -0.1564
  149SAPE   O2116417   6.015   6.974   6.767  0.1706  0.4044  0.7230
  149SAPE   C2116418   6.053   7.083   6.827 -0.4022  0.3935  0.6481
  149SAPE   O2216419   5.974   7.174   6.858  0.1693 -0.4011  0.2037
  149SAPE   C2216420   6.200   7.060   6.865 -0.3484  0.0055 -0.2171
  149SAPE   H2R16421   6.218   6.956   6.900  1.4233  0.6711  0.9840
  149SAPE   H2S16422   6.264   7.076   6.776 -0.5840 -1.9020 -0.7892
  149SAPE    C316423   5.790   6.939   6.867  0.7253  0.0744  0.0122
  149SAPE    HX16424   5.686   6.936   6.828  0.0401  2.2874  1.4535
  149SAPE    HY16425   5.789   7.025   6.937 -1.0467  0.7242 -0.7532
  149SAPE   O3116426   5.833   6.812   6.923 -0.4389 -0.6953  0.0263
  149SAPE   C3116427   5.905   6.834   7.037 -0.3450  0.3647 -0.1507
  149SAPE   O3216428   5.927   6.942   7.088 -0.5021  0.6436 -0.1935
  149SAPE   C3216429   5.972   6.706   7.087 -0.2756  0.4261 -0.3098
  149SAPE   H2X16430   6.082   6.708   7.071 -0.0219  0.0500  1.2467
  149SAPE   H2Y16431   5.930   6.618   7.034  1.8716 -1.5014  0.9873
  149SAPE   C2316432   6.230   7.150   6.989 -0.0974 -0.0457  0.7141
  149SAPE   H3R16433   6.171   7.129   7.081 -2.2950  1.2745 -0.3033
  149SAPE   H3S16434   6.189   7.252   6.971  0.4441  0.1807  0.7429
  149SAPE   C2416435   6.383   7.172   7.015  0.7047  0.0850 -0.1980
  149SAPE   H4R16436   6.435   7.199   6.921 -1.1654  0.0970 -1.2815
  149SAPE   H4S16437   6.419   7.069   7.035 -1.7196 -1.7823 -4.1579
  149SAPE   C2516438   6.406   7.262   7.133 -0.5114  0.8598  0.4265
  149SAPE   H5R16439   6.387   7.370   7.122 -0.8541  0.7880  0.3218
  149SAPE   C2616440   6.446   7.224   7.260  0.0772 -0.6592  0.1029
  149SAPE   H6R16441   6.435   7.307   7.331 -0.6469  0.5976 -1.4188
  149SAPE   C2716442   6.473   7.088   7.318 -0.0937  0.1207 -0.8448
  149SAPE   H7R16443   6.550   7.097   7.398 -2.1789  0.5497  1.2136
  149SAPE   H7S16444   6.519   7.023   7.240  0.8901 -1.6408  1.0838
  149SAPE   C2816445   6.352   7.023   7.378  0.0404 -0.6366  0.2202
  149SAPE   H8R16446   6.273   7.013   7.302  0.2088  0.2460 -0.0876
  149SAPE   C2916447   6.330   6.986   7.505  0.3450 -0.1012  0.1282
  149SAPE   H9R16448   6.229   6.953   7.533 -0.5502  2.4142  0.1537
  149SAPE  C21016449   6.411   7.002   7.627  0.6433 -0.1526 -0.1209
  149SAPE  H10R16450   6.358   7.053   7.710  0.3619 -0.9537  0.1991
  149SAPE  H10S16451   6.494   7.072   7.605  0.1516  0.1212 -1.1783
  149SAPE  C21116452   6.459   6.865   7.676 -0.0285 -0.2253 -0.2977
  149SAPE  H11R16453   6.382   6.802   7.722 -0.7889 -0.2812 -1.6018
  149SAPE  C21216454   6.587   6.819   7.671 -0.1720 -0.2843 -0.2146
  149SAPE  H12R16455   6.615   6.723   7.718 -0.7962 -1.1793 -1.6132
  149SAPE  C21316456   6.711   6.892   7.620  0.0573 -0.3679  0.0880
  149SAPE  H13R16457   6.695   6.927   7.516  0.4952  3.8412  1.2306
  149SAPE  H13S16458   6.796   6.822   7.605  0.4782  0.4444 -1.4697
  149SAPE  C21416459   6.752   7.016   7.694  0.1357 -0.0601  0.5974
  149SAPE  H14R16460   6.744   7.112   7.641  2.0300  0.0689  0.4691
  149SAPE  C21516461   6.819   7.023   7.811 -0.1909 -0.3457 -0.6163
  149SAPE  H15R16462   6.836   7.126   7.848  1.2638 -0.6518 -0.3656
  149SAPE  C21616463   6.855   6.908   7.895  0.0021 -0.2006 -0.5543
  149SAPE  H16R16464   6.890   6.824   7.831 -1.1251 -0.0052 -1.4592
  149SAPE  H16S16465   6.762   6.874   7.945 -0.8385 -1.7779 -3.0080
  149SAPE  C21716466   6.966   6.926   7.999 -1.0109 -0.9915 -0.7430
  149SAPE  H17R16467   7.064   6.947   7.951 -1.0514 -0.4157 -0.5820
  149SAPE  H17S16468   6.983   6.827   8.045 -2.6255 -1.5572 -1.2840
  149SAPE  C21816469   6.942   7.027   8.109 -0.3673 -0.2697 -0.2561
  149SAPE  H18R16470   6.877   6.978   8.184  0.9196 -1.8000 -0.0882
  149SAPE  H18S16471   6.880   7.113   8.076 -0.6517  1.2688  3.7339
  149SAPE  C21916472   7.067   7.090   8.163  0.0932 -0.0653  0.2384
  149SAPE  H19R16473   7.126   7.139   8.083  0.4671  1.8787  1.6354
  149SAPE  H19S16474   7.138   7.013   8.202  0.3905 -0.9763 -1.9326
  149SAPE  C22016475   7.042   7.198   8.268 -0.1280 -0.1551  0.2579
  149SAPE  H20R16476   6.969   7.275   8.235 -0.6412 -0.2071  1.2413
  149SAPE  H20S16477   7.133   7.256   8.292  0.7126 -2.2933  2.6179
  149SAPE  H20T16478   7.014   7.143   8.361 -1.0710 -0.4602 -0.1880
  149SAPE   C3316479   5.966   6.680   7.243  0.5386 -0.8193 -0.0600
  149SAPE   H3X16480   5.867   6.636   7.268 -0.0745  0.0416 -0.8997
  149SAPE   H3Y16481   5.968   6.784   7.281  0.5866 -1.1000  0.7191
  149SAPE   C3416482   6.078   6.610   7.306  0.0079 -0.2579 -0.1955
  149SAPE   H4X16483   6.169   6.598   7.243  1.1692 -2.2343  1.6963
  149SAPE   H4Y16484   6.043   6.506   7.325 -1.8544 -0.0993 -2.4101
  149SAPE   C3516485   6.119   6.665   7.444 -0.5050 -0.2684 -0.0546
  149SAPE   H5X16486   6.136   6.774   7.433  0.0074 -0.5877 -3.9374
  149SAPE   H5Y16487   6.216   6.618   7.471 -0.1090  0.8600  0.5257
  149SAPE   C3616488   6.022   6.634   7.559 -1.1508 -0.3128  0.0485
  149SAPE   H6X16489   6.005   6.525   7.562  0.4108 -0.5535  1.8031
  149SAPE   H6Y16490   5.925   6.681   7.532 -0.7780  1.2894  1.3524
  149SAPE   C3716491   6.084   6.684   7.688  0.1944  0.0107 -0.5220
  149SAPE   H7X16492   6.063   6.792   7.676  0.0536 -0.0322 -0.6632
  149SAPE   H7Y16493   6.195   6.673   7.687  0.3921  1.5765 -3.1241
  149SAPE   C3816494   6.019   6.628   7.823  0.9642  0.3741  0.7431
  149SAPE   H8X16495   6.088   6.558   7.874  0.4157 -0.3700  0.4755
  149SAPE   H8Y16496   5.924   6.575   7.805  0.2924  1.0313  2.2171
  149SAPE   C3916497   5.990   6.744   7.917 -1.0593  0.1281 -0.2351
  149SAPE   H9X16498   5.910   6.715   7.989 -0.8585  2.0010  0.8188
  149SAPE   H9Y16499   5.954   6.834   7.863  1.8083  1.3026 -0.3800
  149SAPE  C31016500   6.103   6.803   8.009 -0.0504  0.6000 -1.1373
  149SAPE  H10X16501   6.112   6.738   8.099  0.7251  0.8710 -1.0079
  149SAPE  H10Y16502   6.078   6.904   8.049  0.6554  0.6216 -0.7219
  149SAPE  C31116503   6.235   6.803   7.945  0.2430  0.0995  0.5671
  149SAPE  H11X16504   6.231   6.880   7.865 -1.2385  0.6812  1.1772
  149SAPE  H11Y16505   6.258   6.706   7.896 -0.9496  0.3076 -0.4444
  149SAPE  C31216506   6.343   6.832   8.042 -0.4927 -0.6305  0.1665
  149SAPE  H12X16507   6.443   6.798   8.005 -0.8799 -2.1169  0.4414
  149SAPE  H12Y16508   6.325   6.775   8.135 -2.3643  1.4014  1.1267
  149SAPE  C31316509   6.359   6.987   8.068  0.3811  0.6181 -0.0187
  149SAPE  H13X16510   6.266   7.025   8.116 -0.2675 -1.2401  0.2942
  149SAPE  H13Y16511   6.368   7.023   7.963  0.4540  1.0597  0.1400
  149SAPE  C31416512   6.485   7.015   8.150  0.8128 -0.4478 -0.5772
  149SAPE  H14X16513   6.495   7.125   8.143 -2.2582 -0.1207 -1.4680
  149SAPE  H14Y16514   6.576   6.967   8.109  1.0608  0.0544 -0.6234
  149SAPE  C31516515   6.475   6.976   8.304 -0.0018 -0.4472 -0.2219
  149SAPE  H15X16516   6.452   6.869   8.321 -1.5214  0.0879  1.4395
  149SAPE  H15Y16517   6.390   7.033   8.346  0.0381 -2.2341  2.5525
  149SAPE  C31616518   6.604   7.015   8.383  0.2760 -0.0348  0.6337
  149SAPE  H16X16519   6.626   7.123   8.365  0.6054 -0.4499 -1.8597
  149SAPE  H16Y16520   6.695   6.965   8.343 -0.0524 -1.3191  1.4413
  149SAPE  C31716521   6.593   6.994   8.536 -0.3361 -0.0050  0.7785
  149SAPE  H17X16522   6.569   6.889   8.563 -3.1514 -0.1116 -1.6907
  149SAPE  H17Y16523   6.504   7.051   8.570 -0.0646  2.4223 -2.1460
  149SAPE  C31816524   6.721   7.049   8.611 -0.3105 -0.7719 -0.0340
  149SAPE  H18X16525   6.712   7.028   8.719  1.1072 -0.6396  0.1227
  149SAPE  H18Y16526   6.727   7.158   8.589  2.6296 -0.3970  2.1503
  149SAPE  H18Z16527   6.816   7.004   8.576 -0.2847 -1.4381  0.8797
  150SAPE     N16528   1.701   3.451   6.404  0.3935  0.0338 -0.1389
  150SAPE   HN116529   1.740   3.399   6.484 -0.4533  0.8158  0.8171
  150SAPE   HN216530   1.665   3.539   6.447  1.5520 -0.4032  1.8482
  150SAPE   HN316531   1.624   3.391   6.369  0.8431 -0.9212  0.4886
  150SAPE   C1216532   1.798   3.486   6.305 -0.1223  0.3655 -0.2287
  150SAPE  H12A16533   1.873   3.556   6.346 -1.0530  0.8264  0.7308
  150SAPE  H12B16534   1.745   3.533   6.218 -1.4688 -1.4580 -0.4553
  150SAPE   C1116535   1.857   3.354   6.247 -0.7172 -0.2935 -0.4414
  150SAPE  H11A16536   1.928   3.316   6.323  1.3005  0.9249 -1.6368
  150SAPE  H11B16537   1.894   3.383   6.146 -1.7237 -0.9866 -1.0435
  150SAPE     P16538   1.780   3.102   6.247 -0.2489 -0.2622 -0.0133
  150SAPE   O1316539   1.729   3.068   6.381 -0.3584 -0.1975 -0.0066
  150SAPE   O1416540   1.725   3.028   6.127 -0.5065 -0.0180 -0.1001
  150SAPE   O1216541   1.758   3.257   6.222 -0.3721 -0.1467 -0.3368
  150SAPE   O1116542   1.940   3.085   6.244  0.1248  0.4085 -0.3869
  150SAPE    C116543   2.006   2.964   6.279  0.6897  0.3726 -0.0192
  150SAPE    HA16544   1.928   2.886   6.285  0.6696  0.3730 -0.2647
  150SAPE    HB16545   2.068   2.920   6.198 -0.2187  0.5488 -0.8344
  150SAPE    C216546   2.082   2.958   6.421 -0.8292  0.8197 -0.1669
  150SAPE    HS16547   2.124   2.855   6.426  1.5049  1.7421  0.2982
  150SAPE   O2116548   1.985   2.980   6.529 -0.1983  0.0126  0.6992
  150SAPE   C2116549   1.916   2.873   6.576  0.1229 -0.5030 -0.0782
  150SAPE   O2216550   1.924   2.757   6.534  0.2177 -0.4195  0.1214
  150SAPE   C2216551   1.832   2.906   6.693  0.3649 -0.6322  0.1738
  150SAPE   H2R16552   1.861   3.005   6.734  0.3271 -0.3551 -0.4495
  150SAPE   H2S16553   1.726   2.913   6.659  0.1259  0.7448  1.1139
  150SAPE    C316554   2.201   3.056   6.430  0.5444  0.0197 -0.1281
  150SAPE    HX16555   2.155   3.155   6.452  1.4899  0.3697  0.3223
  150SAPE    HY16556   2.256   3.067   6.335  1.3841 -1.2579  0.1850
  150SAPE   O3116557   2.291   3.024   6.542  0.3139 -0.0580  0.9221
  150SAPE   C3116558   2.383   2.933   6.508  0.1429 -0.0767  0.3770
  150SAPE   O3216559   2.392   2.887   6.394 -0.7711 -0.0041 -0.2244
  150SAPE   C3216560   2.472   2.909   6.630 -0.1283  0.5427 -0.4392
  150SAPE   H2X16561   2.569   2.963   6.621  0.4584 -0.6081 -1.1575
  150SAPE   H2Y16562   2.503   2.803   6.632  0.7585  0.8052  0.8394
  150SAPE   C2316563   1.824   2.799   6.803 -0.3136  0.5384 -0.7124
  150SAPE   H3R16564   1.772   2.711   6.758 -0.1913  0.6984 -1.1801
  150SAPE   H3S16565   1.762   2.817   6.893 -0.4342 -1.8908 -0.2339
  150SAPE   C2416566   1.966   2.749   6.864  0.2328 -0.0768 -0.3861
  150SAPE   H4R16567   2.033   2.705   6.787  0.7125 -0.1247  0.0497
  150SAPE   H4S16568   1.944   2.671   6.939  0.7214  0.6763  0.5700
  150SAPE   C2516569   2.044   2.865   6.916  0.6208 -0.4493 -0.1442
  150SAPE   H5R16570   2.113   2.902   6.839  2.4430  1.7392  2.3525
  150SAPE   C2616571   2.057   2.917   7.035 -0.1359 -0.7375 -0.0197
  150SAPE   H6R16572   2.118   3.008   7.041 -0.0887 -0.6606 -1.3838
  150SAPE   C2716573   1.994   2.871   7.159  0.4834 -0.2776 -0.3040
  150SAPE   H7R16574   2.069   2.861   7.240  0.2476  2.9897  0.4822
  150SAPE   H7S16575   1.943   2.774   7.143  1.0817 -0.5707 -0.4602
  150SAPE   C2816576   1.893   2.973   7.222  0.6371 -0.1919  0.5797
  150SAPE   H8R16577   1.847   3.046   7.154 -1.7958 -2.8043 -0.7941
  150SAPE   C2916578   1.851   2.973   7.355 -0.3763  0.3497  0.5514
  150SAPE   H9R16579   1.777   3.048   7.389  1.0018  1.8970  0.2738
  150SAPE  C21016580   1.897   2.877   7.455  0.2649  0.1828 -0.7785
  150SAPE  H10R16581   1.938   2.785   7.409  1.1639 -1.1271  2.3324
  150SAPE  H10S16582   1.814   2.840   7.519 -0.8203  1.7693 -1.1896
  150SAPE  C21116583   1.992   2.938   7.550 -0.2598 -0.1276 -0.2832
  150SAPE  H11R16584   2.093   2.948   7.506 -0.8655  0.5196 -1.6132
  150SAPE  C21216585   1.967   2.990   7.670 -0.0395  0.2142 -0.1169
  150SAPE  H12R16586   2.052   3.021   7.733 -0.1363 -0.2517  0.2516
  150SAPE  C21316587   1.831   2.988   7.746 -0.6961 -0.6698 -0.5382
  150SAPE  H13R16588   1.751   2.938   7.687 -1.7123  0.1394  0.1143
  150SAPE  H13S16589   1.805   3.095   7.763  0.2588 -0.8942  2.9736
  150SAPE  C21416590   1.852   2.914   7.874 -0.2520  0.2061  0.6018
  150SAPE  H14R16591   1.890   2.811   7.869 -0.3330 -0.1900  4.7616
  150SAPE  C21516592   1.840   2.953   8.001  0.0691 -0.4887 -0.4496
  150SAPE  H15R16593   1.862   2.879   8.079  1.7352 -0.4656 -0.8640
  150SAPE  C21616594   1.803   3.090   8.052 -0.6314 -0.0991 -0.0324
  150SAPE  H16R16595   1.765   3.148   7.966  0.0545  0.7414  0.2130
  150SAPE  H16S16596   1.887   3.148   8.098 -1.0416 -0.9892  1.9437
  150SAPE  C21716597   1.691   3.085   8.156 -0.3542 -0.0723  0.4936
  150SAPE  H17R16598   1.722   3.026   8.245  0.3099 -1.7508 -0.7934
  150SAPE  H17S16599   1.602   3.031   8.117 -0.3251 -0.2003  0.6043
  150SAPE  C21816600   1.651   3.223   8.210 -0.5040  1.3080  0.0039
  150SAPE  H18R16601   1.624   3.286   8.123 -1.3403 -0.0860 -0.7915
  150SAPE  H18S16602   1.730   3.280   8.262  1.3647 -1.1956  0.1016
  150SAPE  C21916603   1.548   3.217   8.320 -0.3701 -0.0876  0.5045
  150SAPE  H19R16604   1.583   3.152   8.403 -0.5713 -1.9290 -0.7762
  150SAPE  H19S16605   1.463   3.159   8.277  0.7610 -1.3170 -0.1515
  150SAPE  C22016606   1.503   3.353   8.370  0.3486  0.1003 -0.0310
  150SAPE  H20R16607   1.595   3.414   8.384  1.8186 -2.1947  0.9645
  150SAPE  H20S16608   1.465   3.343   8.474 -0.9486  3.7493 -0.0185
  150SAPE  H20T16609   1.425   3.413   8.318  1.4319  1.3803 -0.2346
  150SAPE   C3316610   2.406   2.954   6.764  0.2191  0.0032 -0.2291
  150SAPE   H3X16611   2.314   2.902   6.799  0.2730 -1.0103 -1.4819
  150SAPE   H3Y16612   2.388   3.063   6.768  1.1926  0.1446  0.4554
  150SAPE   C3416613   2.485   2.904   6.883 -0.0068 -0.1768  0.3619
  150SAPE   H4X16614   2.593   2.928   6.871  0.3041 -1.1953  0.9858
  150SAPE   H4Y16615   2.490   2.793   6.879  3.4519 -0.1231  0.3133
  150SAPE   C3516616   2.439   2.943   7.025 -0.3558 -0.0887 -0.1175
  150SAPE   H5X16617   2.334   2.909   7.036 -0.4079 -0.9632 -2.7867
  150SAPE   H5Y16618   2.445   3.054   7.036  0.7966 -0.1380 -0.1294
  150SAPE   C3616619   2.530   2.870   7.140 -0.3644 -0.5513  0.7141
  150SAPE   H6X16620   2.627   2.923   7.150 -1.0912  0.8504  0.5848
  150SAPE   H6Y16621   2.553   2.767   7.107 -0.0178 -0.2627  0.0286
  150SAPE   C3716622   2.460   2.861   7.279 -0.1331  0.1602 -0.2932
  150SAPE   H7X16623   2.355   2.828   7.261 -0.5820  2.7397 -3.0716
  150SAPE   H7Y16624   2.452   2.965   7.316  2.0399  0.5378 -0.7356
  150SAPE   C3816625   2.538   2.783   7.377  0.3577 -0.5569  0.1863
  150SAPE   H8X16626   2.646   2.811   7.378  0.8335 -2.1182 -1.1740
  150SAPE   H8Y16627   2.549   2.674   7.355 -1.1410 -0.9923  1.3782
  150SAPE   C3916628   2.474   2.796   7.519  0.2607  0.4907 -1.0243
  150SAPE   H9X16629   2.366   2.776   7.500  0.9835 -2.7479 -2.5186
  150SAPE   H9Y16630   2.492   2.899   7.554  0.0797 -0.3994  1.8926
  150SAPE  C31016631   2.524   2.694   7.620  0.8169 -0.4350  0.0931
  150SAPE  H10X16632   2.633   2.685   7.636  0.2685 -3.4219  3.0779
  150SAPE  H10Y16633   2.491   2.594   7.585  1.4833 -1.0039  1.0676
  150SAPE  C31116634   2.453   2.726   7.755  0.2836 -0.2476  0.2025
  150SAPE  H11X16635   2.344   2.725   7.734 -0.0021 -3.0303  1.3001
  150SAPE  H11Y16636   2.471   2.831   7.785 -1.3343  0.7425 -2.0009
  150SAPE  C31216637   2.492   2.638   7.866  0.3194  0.0601 -0.5106
  150SAPE  H12X16638   2.601   2.645   7.889 -0.2604  1.3326  2.1969
  150SAPE  H12Y16639   2.464   2.533   7.846 -1.2122  0.0921  1.2701
  150SAPE  C31316640   2.427   2.682   7.996  0.0330 -0.4387  0.1345
  150SAPE  H13X16641   2.317   2.694   7.987 -0.0585 -0.9862  0.4722
  150SAPE  H13Y16642   2.471   2.775   8.039 -0.0562 -1.2099  2.0020
  150SAPE  C31416643   2.448   2.575   8.112  0.4920 -0.0574  0.0945
  150SAPE  H14X16644   2.559   2.566   8.115  0.4460 -0.3683  1.8056
  150SAPE  H14Y16645   2.408   2.478   8.077  0.9556 -0.3772  0.4522
  150SAPE  C31516646   2.390   2.602   8.248 -0.0042 -0.3448  0.8557
  150SAPE  H15X16647   2.400   2.514   8.315 -0.1987  0.8346  2.4684
  150SAPE  H15Y16648   2.281   2.619   8.237 -0.0569  0.0089  1.8224
  150SAPE  C31616649   2.446   2.725   8.309  0.2738 -0.1070  0.3984
  150SAPE  H16X16650   2.404   2.803   8.242  0.6798  0.0773  0.3560
  150SAPE  H16Y16651   2.556   2.722   8.321  0.4170 -2.3909 -0.8845
  150SAPE  C31716652   2.395   2.738   8.449  0.4325  0.3454 -0.1272
  150SAPE  H17X16653   2.431   2.656   8.514  0.8473  0.3979 -0.2867
  150SAPE  H17Y16654   2.286   2.722   8.436  0.2703  0.6102  0.8561
  150SAPE  C31816655   2.428   2.873   8.524 -0.1128  0.7639 -0.2736
  150SAPE  H18X16656   2.369   2.963   8.495 -0.1762  1.2480  1.2619
  150SAPE  H18Y16657   2.536   2.884   8.503  0.0793  1.5504  0.9646
  150SAPE  H18Z16658   2.418   2.859   8.634  0.8677 -1.0637 -0.3821
  151SAPE     N16659   1.905   0.220   5.872 -0.3870 -0.2945 -0.3696
  151SAPE   HN116660   1.955   0.180   5.790  0.3877 -0.9899  0.4306
  151SAPE   HN216661   1.807   0.251   5.853 -0.4789 -0.3221  0.0446
  151SAPE   HN316662   1.956   0.300   5.913 -1.0875 -0.2645  0.4753
  151SAPE   C1216663   1.888   0.117   5.969  0.6002 -0.4276  0.3186
  151SAPE  H12A16664   1.949   0.030   5.937 -0.9241  0.0147 -4.6487
  151SAPE  H12B16665   1.780   0.090   5.968  0.8524 -1.4966  0.4306
  151SAPE   C1116666   1.910   0.175   6.108  0.3230  0.2742  0.3720
  151SAPE  H11A16667   2.014   0.215   6.107  0.3579  0.2572  1.6167
  151SAPE  H11B16668   1.898   0.098   6.187  1.2111 -1.3390 -0.9957
  151SAPE     P16669   1.682   0.288   6.200  0.3195 -0.0662  0.2241
  151SAPE   O1316670   1.618   0.420   6.170 -0.2964 -0.3674  0.0445
  151SAPE   O1416671   1.609   0.158   6.170 -0.3027 -0.0790 -0.1202
  151SAPE   O1216672   1.825   0.288   6.129 -0.1081 -0.0755  0.1932
  151SAPE   O1116673   1.739   0.280   6.344  0.1039  0.1871  0.5166
  151SAPE    C116674   1.828   0.361   6.417  0.2967  0.0314 -0.7416
  151SAPE    HA16675   1.930   0.339   6.378  0.1338 -0.8236 -0.7066
  151SAPE    HB16676   1.814   0.470   6.401  0.4745  0.2675  0.5926
  151SAPE    C216677   1.818   0.333   6.567  0.0664  0.0590  0.4146
  151SAPE    HS16678   1.834   0.225   6.588 -1.5921 -0.0644  1.1984
  151SAPE   O2116679   1.692   0.373   6.622  0.2742 -0.2632 -0.1582
  151SAPE   C2116680   1.616   0.284   6.678 -1.0236  0.7903 -0.6787
  151SAPE   O2216681   1.633   0.166   6.673 -0.0741  0.3764  0.0116
  151SAPE   C2216682   1.503   0.348   6.755  0.1318  0.4595  0.5457
  151SAPE   H2R16683   1.455   0.417   6.682 -0.6705 -0.0346  0.6000
  151SAPE   H2S16684   1.421   0.276   6.770 -0.2747  1.0549  1.2103
  151SAPE    C316685   1.932   0.419   6.644  0.4448 -0.2464 -0.3636
  151SAPE    HX16686   1.890   0.522   6.642  0.0359 -0.3719  0.9271
  151SAPE    HY16687   2.021   0.420   6.577  0.6077  0.1487 -0.1517
  151SAPE   O3116688   1.969   0.364   6.774 -0.0117  0.1629 -0.5173
  151SAPE   C3116689   2.004   0.466   6.855  0.8890  1.0287 -1.0272
  151SAPE   O3216690   2.037   0.577   6.824  0.2905 -0.1821 -0.4931
  151SAPE   C3216691   1.991   0.414   6.998  0.6812  0.2152  0.5353
  151SAPE   H2X16692   2.080   0.348   7.013  1.9349  1.7942  0.2856
  151SAPE   H2Y16693   1.899   0.353   7.003  2.1253 -2.4954 -2.3924
  151SAPE   C2316694   1.544   0.429   6.882  0.1453 -0.2164  0.0963
  151SAPE   H3R16695   1.455   0.486   6.915 -0.2718 -1.7717  1.8148
  151SAPE   H3S16696   1.615   0.509   6.851 -0.3981  0.9387  1.7261
  151SAPE   C2416697   1.606   0.360   7.004  0.2532 -0.7282 -0.4355
  151SAPE   H4R16698   1.639   0.444   7.068  1.0168  0.0130 -1.7599
  151SAPE   H4S16699   1.697   0.301   6.978  0.5318  0.2462 -1.7369
  151SAPE   C2516700   1.506   0.272   7.065  0.2149 -0.4374 -0.0161
  151SAPE   H5R16701   1.483   0.194   6.991 -1.0924  0.0877 -0.2040
  151SAPE   C2616702   1.443   0.274   7.189 -0.4569 -0.2929 -0.0704
  151SAPE   H6R16703   1.379   0.191   7.224  0.7522 -1.3950 -0.3995
  151SAPE   C2716704   1.480   0.388   7.284 -0.7975 -0.3761  0.2138
  151SAPE   H7R16705   1.405   0.469   7.277  1.0746  1.4675  0.4666
  151SAPE   H7S16706   1.572   0.441   7.252  0.4467 -0.3664  3.4304
  151SAPE   C2816707   1.513   0.323   7.414  0.1542  0.5118 -0.4295
  151SAPE   H8R16708   1.587   0.241   7.410 -0.2539  0.0995  0.2307
  151SAPE   C2916709   1.451   0.348   7.527  0.2163  0.8629 -0.3253
  151SAPE   H9R16710   1.492   0.312   7.623 -0.7219  1.0815  0.1634
  151SAPE  C21016711   1.343   0.450   7.559  0.1647 -0.5344 -0.5985
  151SAPE  H10R16712   1.329   0.525   7.478 -0.7594  1.9212  1.6801
  151SAPE  H10S16713   1.385   0.519   7.635  0.6081  2.6707 -3.5021
  151SAPE  C21116714   1.217   0.386   7.600  0.3736  0.0575 -0.3906
  151SAPE  H11R16715   1.155   0.351   7.517  1.7320 -1.4548 -0.8350
  151SAPE  C21216716   1.173   0.359   7.725  0.1293  0.3792  0.3223
  151SAPE  H12R16717   1.084   0.295   7.733 -0.1512 -0.2356 -4.8768
  151SAPE  C21316718   1.252   0.399   7.846 -0.2517 -0.5864 -0.0807
  151SAPE  H13R16719   1.186   0.465   7.906 -2.3131  0.5167 -3.3392
  151SAPE  H13S16720   1.333   0.467   7.812  1.0630 -2.3480 -0.6363
  151SAPE  C21416721   1.295   0.282   7.929 -0.1897 -0.2665  1.0773
  151SAPE  H14R16722   1.259   0.186   7.890  1.6798 -0.2908 -0.7846
  151SAPE  C21516723   1.398   0.275   8.015 -0.4735 -0.4322  0.1956
  151SAPE  H15R16724   1.425   0.174   8.050 -2.0004 -0.4237  1.5473
  151SAPE  C21616725   1.483   0.393   8.046  1.1018  0.3237  0.1308
  151SAPE  H16R16726   1.419   0.477   8.081  0.2794 -0.9028  1.7206
  151SAPE  H16S16727   1.549   0.419   7.961 -0.1456  1.0235 -0.6496
  151SAPE  C21716728   1.581   0.360   8.160 -0.3821  0.6951  0.2032
  151SAPE  H17R16729   1.654   0.443   8.171  2.3125 -1.0829 -2.6006
  151SAPE  H17S16730   1.635   0.270   8.123 -0.5251  0.9245 -0.5733
  151SAPE  C21816731   1.518   0.313   8.292  0.7762  0.0259  0.0591
  151SAPE  H18R16732   1.434   0.244   8.273 -0.5534  0.9297  2.2567
  151SAPE  H18S16733   1.476   0.405   8.337 -1.6517 -0.2716 -1.4599
  151SAPE  C21916734   1.625   0.258   8.392 -0.0238  0.2734  0.0561
  151SAPE  H19R16735   1.708   0.329   8.409  1.2249 -0.6082 -2.0567
  151SAPE  H19S16736   1.663   0.168   8.340 -4.5517 -0.8937 -1.7195
  151SAPE  C22016737   1.568   0.225   8.526  0.1670 -0.1649  0.2083
  151SAPE  H20R16738   1.520   0.312   8.577  0.5926 -0.3795  0.9922
  151SAPE  H20S16739   1.499   0.140   8.510 -0.6093 -0.4189  3.9956
  151SAPE  H20T16740   1.652   0.187   8.588 -1.0892  0.1888  2.2164
  151SAPE   C3316741   1.991   0.520   7.112  0.5502 -0.2589  0.4691
  151SAPE   H3X16742   1.949   0.620   7.087  0.0259 -0.1705  1.6500
  151SAPE   H3Y16743   2.096   0.552   7.130  0.0794  2.1413 -0.6157
  151SAPE   C3416744   1.930   0.471   7.245  0.0812  0.7592  0.0473
  151SAPE   H4X16745   1.995   0.401   7.302  0.2324  1.5731  0.9146
  151SAPE   H4Y16746   1.838   0.415   7.219  0.9442  1.1460 -4.5263
  151SAPE   C3516747   1.893   0.584   7.338 -0.2870  0.3454  0.3238
  151SAPE   H5X16748   1.834   0.664   7.288 -2.6910 -1.3331  0.3035
  151SAPE   H5Y16749   1.989   0.634   7.365  0.8624 -2.5316  2.0804
  151SAPE   C3616750   1.816   0.545   7.464 -0.4224  0.2247 -0.0072
  151SAPE   H6X16751   1.711   0.512   7.444 -0.3733 -0.2069  0.4415
  151SAPE   H6Y16752   1.809   0.637   7.526 -0.5758  0.1000  0.1612
  151SAPE   C3716753   1.865   0.422   7.547 -0.6783  0.4446  0.2503
  151SAPE   H7X16754   1.976   0.428   7.548 -0.5687 -1.2288  0.9182
  151SAPE   H7Y16755   1.846   0.329   7.489  1.8248 -2.0986  3.1931
  151SAPE   C3816756   1.794   0.419   7.687  0.1488  0.0184  0.4083
  151SAPE   H8X16757   1.783   0.319   7.735  0.9703 -1.2193 -1.8394
  151SAPE   H8Y16758   1.687   0.445   7.677  0.0190 -0.4090  0.6318
  151SAPE   C3916759   1.871   0.507   7.779 -0.1891  0.4287 -0.1760
  151SAPE   H9X16760   1.884   0.609   7.738  0.7064  0.0990 -0.7268
  151SAPE   H9Y16761   1.972   0.470   7.804 -0.4503  1.1098  2.1289
  151SAPE  C31016762   1.812   0.531   7.921  0.5262 -0.1856  0.0089
  151SAPE  H10X16763   1.797   0.439   7.982 -0.9653 -1.6184 -2.3510
  151SAPE  H10Y16764   1.712   0.574   7.903  0.4911 -0.4562 -0.4408
  151SAPE  C31116765   1.886   0.636   7.996 -0.0154  0.0596  0.7854
  151SAPE  H11X16766   1.847   0.740   7.987 -3.3703 -1.1351 -0.0170
  151SAPE  H11Y16767   1.988   0.640   7.952 -0.0120 -0.7025  0.7191
  151SAPE  C31216768   1.898   0.610   8.142 -0.3704  0.0237 -0.2366
  151SAPE  H12X16769   1.939   0.510   8.165 -3.2375 -1.3240 -0.4785
  151SAPE  H12Y16770   1.796   0.601   8.186 -0.5025 -1.1452 -0.7352
  151SAPE  C31316771   1.976   0.723   8.204  0.0883  0.4645 -0.0841
  151SAPE  H13X16772   1.928   0.820   8.179 -1.7785 -0.1103  1.0475
  151SAPE  H13Y16773   2.079   0.749   8.171  0.8650 -0.4875  1.4847
  151SAPE  C31416774   1.998   0.703   8.361 -0.1034  0.2876 -0.0524
  151SAPE  H14X16775   2.035   0.802   8.395 -1.2904  0.3931  0.9753
  151SAPE  H14Y16776   2.070   0.619   8.374 -2.7388 -1.7831  2.7034
  151SAPE  C31516777   1.880   0.649   8.448 -0.7651 -0.0650 -0.5975
  151SAPE  H15X16778   1.842   0.552   8.408  2.2681 -1.5480 -0.1948
  151SAPE  H15Y16779   1.798   0.724   8.448 -2.7782 -2.1090 -0.1680
  151SAPE  C31616780   1.916   0.628   8.593 -0.4026  0.1481  0.0023
  151SAPE  H16X16781   1.895   0.725   8.642  0.6010 -0.2255  1.2291
  151SAPE  H16Y16782   2.024   0.619   8.619 -0.1047  1.9841 -0.5044
  151SAPE  C31716783   1.815   0.547   8.674 -0.4440 -0.4743 -0.1720
  151SAPE  H17X16784   1.842   0.440   8.681  0.5908 -0.2191 -0.0953
  151SAPE  H17Y16785   1.719   0.552   8.618 -2.0500  0.8576  2.5172
  151SAPE  C31816786   1.784   0.594   8.817  0.0761  1.0352  0.3073
  151SAPE  H18X16787   1.700   0.542   8.866  0.2885 -0.3828 -0.7445
  151SAPE  H18Y16788   1.764   0.703   8.827  2.5492  1.3896  2.5170
  151SAPE  H18Z16789   1.873   0.585   8.883  0.4959  3.8687  0.2435
  152SAPE     N16790   3.506   4.055   5.928  0.2842  0.2385 -0.9747
  152SAPE   HN116791   3.574   4.035   5.852 -0.1144 -0.0849 -1.2496
  152SAPE   HN216792   3.457   3.963   5.936  0.1805  0.0079 -3.4693
  152SAPE   HN316793   3.438   4.123   5.888 -2.3863 -1.4651  0.3606
  152SAPE   C1216794   3.575   4.107   6.051  0.2536  0.5302 -0.2540
  152SAPE  H12A16795   3.604   4.212   6.030 -2.0954  0.9693 -1.6617
  152SAPE  H12B16796   3.660   4.036   6.062 -0.3357 -0.1119  0.3073
  152SAPE   C1116797   3.487   4.108   6.178  0.3115 -0.1758 -0.9398
  152SAPE  H11A16798   3.402   4.177   6.158 -0.2186 -0.8974 -1.2327
  152SAPE  H11B16799   3.540   4.154   6.264 -0.8590  1.2665 -0.9504
  152SAPE     P16800   3.499   3.876   6.300 -0.0276 -0.0848  0.2218
  152SAPE   O1316801   3.456   3.736   6.271  0.5288 -0.6190  0.6079
  152SAPE   O1416802   3.644   3.899   6.293 -0.0476  0.0102  0.2786
  152SAPE   O1216803   3.430   3.983   6.205 -0.0956 -0.4572  0.0790
  152SAPE   O1116804   3.450   3.908   6.448 -0.8174  0.0412  0.5136
  152SAPE    C116805   3.310   3.920   6.470 -0.3374 -0.3328 -0.5006
  152SAPE    HA16806   3.280   4.027   6.463  1.1055  0.3378  2.0655
  152SAPE    HB16807   3.249   3.862   6.397 -0.5676  1.5992 -1.9294
  152SAPE    C216808   3.271   3.877   6.608 -0.2218  0.6699 -0.1246
  152SAPE    HS16809   3.161   3.886   6.627 -0.3618  0.1875 -0.6675
  152SAPE   O2116810   3.341   3.948   6.706  0.0177  0.3786  0.0323
  152SAPE   C2116811   3.292   4.063   6.744  0.0005 -0.4523 -0.3504
  152SAPE   O2216812   3.192   4.119   6.693 -0.2190 -0.0314 -0.0876
  152SAPE   C2216813   3.369   4.115   6.862  0.2869  0.0065 -0.2102
  152SAPE   H2R16814   3.454   4.045   6.879 -1.7469 -2.1794  1.6755
  152SAPE   H2S16815   3.413   4.216   6.845 -1.4537  0.8156 -0.1477
  152SAPE    C316816   3.307   3.726   6.623 -0.1529  0.5520 -0.1595
  152SAPE    HX16817   3.409   3.717   6.580 -0.1464  0.7587 -0.1904
  152SAPE    HY16818   3.236   3.677   6.553 -0.3450  1.4914 -0.6402
  152SAPE   O3116819   3.306   3.673   6.753 -0.1676 -0.3936 -0.1214
  152SAPE   C3116820   3.299   3.539   6.751  0.0215  0.5298  0.8914
  152SAPE   O3216821   3.301   3.468   6.651 -0.6240  0.3913  0.8484
  152SAPE   C3216822   3.283   3.489   6.897  0.2420 -0.4756  1.0413
  152SAPE   H2X16823   3.185   3.437   6.902 -1.6016  2.8375  3.2108
  152SAPE   H2Y16824   3.278   3.585   6.953 -2.7864  0.4877 -0.6602
  152SAPE   C2316825   3.275   4.122   6.983  1.0069 -0.1690  0.4369
  152SAPE   H3R16826   3.286   4.030   7.045  1.8514 -1.0858 -1.0221
  152SAPE   H3S16827   3.166   4.118   6.962  0.9192 -3.0863  0.9811
  152SAPE   C2416828   3.299   4.241   7.076  0.3004  0.1999 -0.2094
  152SAPE   H4R16829   3.398   4.253   7.125 -0.6098  2.6124  1.2365
  152SAPE   H4S16830   3.229   4.226   7.160 -0.1402  1.7334 -0.2580
  152SAPE   C2516831   3.269   4.376   7.010  0.5653  0.0538 -0.1841
  152SAPE   H5R16832   3.217   4.371   6.914  0.1372 -1.1280  0.1021
  152SAPE   C2616833   3.280   4.493   7.072 -0.1280 -0.3191  0.3712
  152SAPE   H6R16834   3.251   4.580   7.011  0.2003  0.0981  0.7930
  152SAPE   C2716835   3.331   4.522   7.205  0.3827 -0.1139  0.4410
  152SAPE   H7R16836   3.415   4.594   7.199  0.8441 -0.6992 -0.4856
  152SAPE   H7S16837   3.382   4.426   7.230  0.2993 -0.9880 -2.3855
  152SAPE   C2816838   3.228   4.565   7.304  0.2262  0.9866 -0.6512
  152SAPE   H8R16839   3.170   4.476   7.335  0.0884  0.7117 -1.6548
  152SAPE   C2916840   3.212   4.694   7.338 -0.6366 -0.0693  0.2876
  152SAPE   H9R16841   3.142   4.716   7.420  0.2078  0.9382  0.7608
  152SAPE  C21016842   3.292   4.811   7.287  0.4135  0.3478 -0.6046
  152SAPE  H10R16843   3.303   4.811   7.177 -0.4585  1.8949 -0.7117
  152SAPE  H10S16844   3.394   4.797   7.330  0.5172 -1.9499 -1.4669
  152SAPE  C21116845   3.234   4.944   7.327  0.6280 -0.5658  0.8869
  152SAPE  H11R16846   3.183   4.999   7.247  0.6477 -0.3393  1.0280
  152SAPE  C21216847   3.233   4.994   7.452 -0.6741  0.2904 -1.1568
  152SAPE  H12R16848   3.183   5.089   7.477  1.1756  1.3698 -1.4277
  152SAPE  C21316849   3.297   4.921   7.576 -0.0002 -0.7628  0.3472
  152SAPE  H13R16850   3.369   4.844   7.542  0.5062  0.4325 -1.4139
  152SAPE  H13S16851   3.213   4.885   7.639 -1.0512 -0.7997 -1.0150
  152SAPE  C21416852   3.378   5.026   7.659 -0.5644 -0.5672 -0.1520
  152SAPE  H14R16853   3.420   5.106   7.596 -0.2909 -3.4527 -4.0269
  152SAPE  C21516854   3.384   5.021   7.791 -0.5714  0.4002 -0.0878
  152SAPE  H15R16855   3.448   5.088   7.850  1.0819 -0.4772 -0.8217
  152SAPE  C21616856   3.333   4.908   7.877 -0.1093  0.5424  0.3747
  152SAPE  H16R16857   3.415   4.849   7.921  1.2562  2.8522  1.0958
  152SAPE  H16S16858   3.261   4.836   7.832  0.4756 -1.1232  1.9903
  152SAPE  C21716859   3.270   4.978   7.998 -0.4523  0.5058 -0.3711
  152SAPE  H17R16860   3.190   5.052   7.977  0.7710  2.2122  0.7652
  152SAPE  H17S16861   3.343   5.008   8.077 -1.8002 -1.0366  1.5645
  152SAPE  C21816862   3.202   4.863   8.076  0.7462  0.3970  1.1307
  152SAPE  H18R16863   3.277   4.783   8.093  0.0824 -0.5441 -0.1209
  152SAPE  H18S16864   3.122   4.811   8.017  0.5615  1.5228  0.3591
  152SAPE  C21916865   3.134   4.909   8.202  0.0620  0.0864  0.5538
  152SAPE  H19R16866   3.026   4.924   8.180  0.1696  1.4940  0.9336
  152SAPE  H19S16867   3.190   5.000   8.230  1.3623 -0.2371 -0.8273
  152SAPE  C22016868   3.140   4.808   8.323 -0.8933 -0.0038 -0.6850
  152SAPE  H20R16869   3.096   4.708   8.302  0.8736 -0.3746 -3.0716
  152SAPE  H20S16870   3.078   4.853   8.403  1.7967  1.7308  0.6145
  152SAPE  H20T16871   3.244   4.808   8.365 -1.1110  1.4925 -0.0513
  152SAPE   C3316872   3.400   3.396   6.931  0.9656 -0.2618  0.3353
  152SAPE   H3X16873   3.498   3.447   6.924  0.4974  0.4530 -2.0082
  152SAPE   H3Y16874   3.424   3.322   6.851  1.1468  1.4509 -1.2617
  152SAPE   C3416875   3.392   3.332   7.072 -0.0277  0.2908  0.8431
  152SAPE   H4X16876   3.470   3.256   7.096  0.9008  1.4021  1.4465
  152SAPE   H4Y16877   3.301   3.270   7.081  0.2879  0.0533  2.7249
  152SAPE   C3516878   3.399   3.434   7.184  0.1057 -0.3627  0.0671
  152SAPE   H5X16879   3.337   3.525   7.173 -0.2261 -0.5578  0.2887
  152SAPE   H5Y16880   3.506   3.455   7.203 -0.3028  2.5472 -0.4913
  152SAPE   C3616881   3.359   3.380   7.324 -0.0188  0.3161 -0.3015
  152SAPE   H6X16882   3.379   3.272   7.336 -3.7636 -0.6304 -1.1702
  152SAPE   H6Y16883   3.248   3.386   7.323 -0.0811 -0.0796  1.5527
  152SAPE   C3716884   3.406   3.467   7.441 -0.2110 -0.2589  0.4850
  152SAPE   H7X16885   3.345   3.559   7.429 -0.0344 -0.5295 -3.9952
  152SAPE   H7Y16886   3.511   3.498   7.423  0.6255 -2.6129  0.9924
  152SAPE   C3816887   3.398   3.398   7.576  0.0688  0.3133  0.5401
  152SAPE   H8X16888   3.440   3.296   7.568 -0.2885  0.2564 -0.9414
  152SAPE   H8Y16889   3.290   3.391   7.602 -0.3911  2.1973 -0.6473
  152SAPE   C3916890   3.474   3.471   7.691  0.5613  0.0934  0.5536
  152SAPE   H9X16891   3.432   3.574   7.700  0.6195  0.2009 -0.3573
  152SAPE   H9Y16892   3.579   3.481   7.656 -0.7612  1.0409 -3.6261
  152SAPE  C31016893   3.469   3.393   7.827 -0.3671  0.1630 -0.8512
  152SAPE  H10X16894   3.543   3.448   7.889 -0.1766 -1.0175 -0.0180
  152SAPE  H10Y16895   3.510   3.292   7.810 -0.3810 -0.1674  0.8568
  152SAPE  C31116896   3.330   3.385   7.894  0.2187  0.8920 -0.5509
  152SAPE  H11X16897   3.275   3.320   7.823 -0.3747  0.6259  0.1453
  152SAPE  H11Y16898   3.264   3.473   7.907 -1.1758 -0.3483  1.1636
  152SAPE  C31216899   3.324   3.310   8.033 -0.8280  0.0595  0.6541
  152SAPE  H12X16900   3.388   3.357   8.111  0.6646 -2.8858  1.3751
  152SAPE  H12Y16901   3.365   3.207   8.028 -0.6683  0.1739 -0.8570
  152SAPE  C31316902   3.188   3.309   8.097  0.2279 -0.1261  0.2662
  152SAPE  H13X16903   3.121   3.257   8.025  0.0736  1.1562 -0.5574
  152SAPE  H13Y16904   3.154   3.414   8.081  0.0850 -0.4699 -2.0157
  152SAPE  C31416905   3.192   3.258   8.238 -0.4354 -0.0341  0.1357
  152SAPE  H14X16906   3.254   3.321   8.305 -0.2767  1.2499 -1.1700
  152SAPE  H14Y16907   3.238   3.157   8.235 -0.2663  0.0472 -0.0554
  152SAPE  C31516908   3.041   3.258   8.292 -0.2113  0.1838 -0.0395
  152SAPE  H15X16909   2.983   3.195   8.221 -1.1621 -1.9692  2.4771
  152SAPE  H15Y16910   3.005   3.362   8.277  2.4755  1.1550 -0.2809
  152SAPE  C31616911   3.038   3.194   8.429 -0.0737 -0.8599  0.4907
  152SAPE  H16X16912   3.117   3.248   8.485  1.2311  0.9082 -2.7599
  152SAPE  H16Y16913   3.060   3.085   8.427  0.0634 -0.8488 -1.6644
  152SAPE  C31716914   2.904   3.221   8.485  0.4018  0.0342  0.0342
  152SAPE  H17X16915   2.828   3.176   8.419  1.5956 -1.3341 -0.4518
  152SAPE  H17Y16916   2.893   3.330   8.469  3.9910  0.2535 -1.9355
  152SAPE  C31816917   2.889   3.170   8.633  0.3679 -0.3255  0.2687
  152SAPE  H18X16918   2.889   3.059   8.629  0.0637 -0.3404  0.6253
  152SAPE  H18Y16919   2.794   3.199   8.682  0.1247  1.5070 -1.1669
  152SAPE  H18Z16920   2.968   3.215   8.696 -0.8189  0.4539  1.2388
  153SAPE     N16921   0.564   2.841   6.061 -0.0440 -0.8936 -0.3338
  153SAPE   HN116922   0.599   2.820   5.965 -1.1712 -0.2222 -0.9186
  153SAPE   HN216923   0.576   2.755   6.119 -1.8886 -1.8535 -1.3038
  153SAPE   HN316924   0.462   2.857   6.055 -0.4858 -2.5529  1.6564
  153SAPE   C1216925   0.626   2.962   6.130 -0.0757 -0.0050  0.0343
  153SAPE  H12A16926   0.696   3.012   6.059 -1.2001 -0.4142 -1.4102
  153SAPE  H12B16927   0.673   2.919   6.221 -0.9085 -0.1339  0.4076
  153SAPE   C1116928   0.512   3.065   6.166 -0.4886  0.1592  0.3510
  153SAPE  H11A16929   0.449   3.073   6.075 -1.7347  0.0173  1.1823
  153SAPE  H11B16930   0.569   3.159   6.180  0.9485 -0.4633 -1.0297
  153SAPE     P16931   0.268   3.062   6.285 -0.0235 -0.1171  0.4007
  153SAPE   O1316932   0.204   3.015   6.161  0.1699 -0.2893 -0.2051
  153SAPE   O1416933   0.212   3.008   6.413 -0.0296  0.0363  0.2416
  153SAPE   O1216934   0.430   3.030   6.275  0.8699 -0.1887  0.0890
  153SAPE   O1116935   0.254   3.219   6.289  0.3356 -0.5181  0.2239
  153SAPE    C116936   0.344   3.322   6.319  0.2743  0.1897 -0.3900
  153SAPE    HA16937   0.431   3.283   6.375  0.9877  1.6042 -0.4480
  153SAPE    HB16938   0.381   3.370   6.226  2.9756  0.1389  0.5693
  153SAPE    C216939   0.270   3.438   6.412  0.2203  0.3835  1.2969
  153SAPE    HS16940   0.346   3.516   6.438  1.1512  0.1623 -0.5787
  153SAPE   O2116941   0.208   3.395   6.531  0.0112  0.3845  0.1697
  153SAPE   C2116942   0.293   3.369   6.630  1.0940 -0.6119 -0.1452
  153SAPE   O2216943   0.412   3.371   6.624 -0.3891  1.0915  0.2601
  153SAPE   C2216944   0.209   3.338   6.756  0.5774  0.7800  0.3700
  153SAPE   H2R16945   0.114   3.393   6.741  0.6500  0.8977  0.3417
  153SAPE   H2S16946   0.189   3.230   6.774  0.7605  0.4243 -1.3687
  153SAPE    C316947   0.175   3.513   6.311  0.2552  0.3601  0.2228
  153SAPE    HX16948   0.109   3.437   6.262 -0.0651  1.2838 -0.8220
  153SAPE    HY16949   0.250   3.549   6.238 -0.5084 -0.7024 -1.1462
  153SAPE   O3116950   0.105   3.622   6.381 -0.8827  0.2999  0.0960
  153SAPE   C3116951  -0.009   3.586   6.439  0.2130  0.0638  0.7580
  153SAPE   O3216952  -0.062   3.478   6.421 -0.3455  0.4985 -0.2035
  153SAPE   C3216953  -0.051   3.693   6.541 -0.6894  0.5050  0.3129
  153SAPE   H2X16954  -0.139   3.753   6.511 -0.0956  2.9277  2.9807
  153SAPE   H2Y16955   0.032   3.766   6.526 -0.0266  0.0491  1.5852
  153SAPE   C2316956   0.262   3.401   6.882 -0.2238 -0.0204 -0.2558
  153SAPE   H3R16957   0.281   3.511   6.875 -0.2118 -0.0220 -0.2494
  153SAPE   H3S16958   0.358   3.352   6.908 -1.3850 -1.9578  0.5312
  153SAPE   C2416959   0.160   3.386   7.000 -0.4824 -0.0389 -0.7805
  153SAPE   H4R16960   0.123   3.281   7.001 -1.5100  0.2620 -2.6088
  153SAPE   H4S16961   0.066   3.442   6.977 -2.0863 -2.1203  0.3432
  153SAPE   C2516962   0.227   3.428   7.125  0.3981 -0.0173 -0.1615
  153SAPE   H5R16963   0.296   3.351   7.163  0.8113  0.4226 -0.0005
  153SAPE   C2616964   0.230   3.555   7.181  0.0685  0.1749  0.2471
  153SAPE   H6R16965   0.284   3.568   7.275 -0.8699 -0.9866  0.9825
  153SAPE   C2716966   0.155   3.676   7.136 -0.4353  1.2732  0.0411
  153SAPE   H7R16967   0.068   3.690   7.205  0.5847  0.3595  1.5834
  153SAPE   H7S16968   0.135   3.666   7.027 -0.0156  1.7932 -0.0842
  153SAPE   C2816969   0.232   3.800   7.148 -0.4933 -0.0916 -0.7997
  153SAPE   H8R16970   0.292   3.824   7.059 -0.7807  0.2522 -0.9088
  153SAPE   C2916971   0.244   3.879   7.257  0.3000  0.0870  0.3477
  153SAPE   H9R16972   0.290   3.979   7.256 -0.8714  0.6356 -0.0447
  153SAPE  C21016973   0.187   3.844   7.390 -0.4957 -0.3001  0.0371
  153SAPE  H10R16974   0.109   3.765   7.393 -2.3879  1.4474 -0.6848
  153SAPE  H10S16975   0.124   3.928   7.423 -0.3970  0.7999 -2.3677
  153SAPE  C21116976   0.278   3.821   7.506 -0.1227 -0.4293 -0.2411
  153SAPE  H11R16977   0.364   3.886   7.525 -0.0558 -0.4108 -0.6062
  153SAPE  C21216978   0.280   3.709   7.581  0.3289  0.4836  0.0927
  153SAPE  H12R16979   0.337   3.705   7.675  0.9108  0.1756 -0.2635
  153SAPE  C21316980   0.187   3.588   7.576 -0.3709 -0.3760 -0.3323
  153SAPE  H13R16981   0.259   3.505   7.593  0.8010  1.0913  2.5009
  153SAPE  H13S16982   0.129   3.570   7.483 -2.3730 -0.4208  0.8390
  153SAPE  C21416983   0.090   3.603   7.688  0.3802 -0.7306  0.4411
  153SAPE  H14R16984   0.018   3.686   7.678  0.1855 -0.7060  1.8119
  153SAPE  C21516985   0.070   3.534   7.802  0.1683  0.2306  1.1168
  153SAPE  H15R16986  -0.007   3.574   7.869 -1.9968  3.0842 -2.6663
  153SAPE  C21616987   0.134   3.410   7.848 -0.4345  0.5661 -0.3431
  153SAPE  H16R16988   0.219   3.382   7.782  0.7377  1.0939  0.8848
  153SAPE  H16S16989   0.064   3.324   7.855 -0.5930  0.6695 -0.6406
  153SAPE  C21716990   0.204   3.426   7.986 -0.4409 -0.3129  0.8641
  153SAPE  H17R16991   0.267   3.517   7.981 -1.8876  0.6641 -0.9470
  153SAPE  H17S16992   0.282   3.347   7.993 -1.4291 -1.2785  1.3016
  153SAPE  C21816993   0.109   3.438   8.104 -0.4001 -0.6581 -0.6783
  153SAPE  H18R16994   0.036   3.358   8.081  0.5032 -1.0260 -2.4304
  153SAPE  H18S16995   0.049   3.532   8.104 -0.2745 -0.5380 -2.3981
  153SAPE  C21916996   0.176   3.425   8.235  0.6961  0.6885 -0.4552
  153SAPE  H19R16997   0.103   3.466   8.308  2.6002  0.7332  1.5671
  153SAPE  H19S16998   0.270   3.483   8.247  0.2994  1.3065 -0.3476
  153SAPE  C22016999   0.214   3.278   8.273 -0.1787  0.6188  0.6610
  153SAPE  H20R17000   0.249   3.265   8.378 -3.1015  0.3666  1.6818
  153SAPE  H20S17001   0.302   3.253   8.209  1.4242  2.3212  2.0504
  153SAPE  H20T17002   0.137   3.200   8.264 -0.0768  0.6430 -0.5007
  153SAPE   C3317003  -0.045   3.649   6.692  1.0408 -0.0437 -0.4440
  153SAPE   H3X17004   0.061   3.633   6.720  0.7264 -0.6033  0.4649
  153SAPE   H3Y17005  -0.112   3.560   6.698  0.7248  0.2559  0.7890
  153SAPE   C3417006  -0.103   3.745   6.791  0.1029  0.1920 -0.3852
  153SAPE   H4X17007  -0.134   3.682   6.877  1.1228 -0.8388 -0.7329
  153SAPE   H4Y17008  -0.196   3.789   6.750 -0.5802  0.4477  1.3472
  153SAPE   C3517009  -0.007   3.857   6.829  0.4621  0.4779 -0.3095
  153SAPE   H5X17010  -0.006   3.923   6.739  1.4569  0.8645 -0.0224
  153SAPE   H5Y17011   0.098   3.823   6.838 -0.7933 -4.8179 -2.1032
  153SAPE   C3617012  -0.058   3.952   6.938 -0.2207 -0.0820 -0.1163
  153SAPE   H6X17013  -0.080   3.892   7.028 -3.6396  0.8878 -0.1564
  153SAPE   H6Y17014  -0.158   3.992   6.908  0.0491  0.5359 -0.2125
  153SAPE   C3717015   0.045   4.059   6.969 -0.4161  0.3026 -0.1217
  153SAPE   H7X17016   0.047   4.124   6.879  2.3833  0.5560  0.0380
  153SAPE   H7Y17017   0.145   4.012   6.978 -0.6224  0.1194  1.3550
  153SAPE   C3817018   0.016   4.135   7.097 -0.4064 -0.8597 -0.1231
  153SAPE   H8X17019  -0.002   4.064   7.181  1.0943 -0.2995  0.7270
  153SAPE   H8Y17020  -0.070   4.203   7.082  1.2650  1.6286  0.9138
  153SAPE   C3917021   0.125   4.239   7.128 -0.8472  0.0564 -0.4883
  153SAPE   H9X17022   0.122   4.316   7.048  3.2138  3.0592  1.8377
  153SAPE   H9Y17023   0.227   4.196   7.119 -0.5678  0.6685 -0.3370
  153SAPE  C31017024   0.095   4.324   7.261 -0.2002  0.4169  0.4463
  153SAPE  H10X17025  -0.010   4.350   7.235 -0.2455 -1.3326 -1.4216
  153SAPE  H10Y17026   0.158   4.416   7.258  1.0616 -0.4499 -0.5206
  153SAPE  C31117027   0.106   4.249   7.392  0.1643 -0.0603 -0.0806
  153SAPE  H11X17028   0.202   4.193   7.390  0.7080  0.8347  0.3680
  153SAPE  H11Y17029   0.027   4.172   7.406 -0.0963 -0.0336 -1.2678
  153SAPE  C31217030   0.118   4.336   7.516 -0.3759  0.0929  0.1105
  153SAPE  H12X17031   0.072   4.435   7.494 -2.7079 -0.7067  1.0786
  153SAPE  H12Y17032   0.226   4.348   7.537 -0.8833  1.7090  2.2427
  153SAPE  C31317033   0.052   4.270   7.646 -0.2483 -0.7317 -0.0224
  153SAPE  H13X17034  -0.041   4.224   7.605 -2.6335  3.1873  0.5205
  153SAPE  H13Y17035   0.023   4.339   7.727 -2.2194  0.1047 -1.3757
  153SAPE  C31417036   0.153   4.165   7.708 -0.3435  0.5042 -0.2486
  153SAPE  H14X17037   0.235   4.225   7.753 -2.3848  2.7142  0.7339
  153SAPE  H14Y17038   0.199   4.106   7.625  1.8334  0.7721  0.7149
  153SAPE  C31517039   0.097   4.083   7.817 -0.5754 -0.2012  0.0160
  153SAPE  H15X17040   0.176   4.012   7.850 -0.1839  0.5704  0.7988
  153SAPE  H15Y17041   0.010   4.020   7.790 -1.7609 -0.4058  3.7296
  153SAPE  C31617042   0.056   4.182   7.941  0.3670  0.2121  0.1270
  153SAPE  H16X17043  -0.026   4.251   7.912  1.6116  1.4515 -0.5331
  153SAPE  H16Y17044   0.137   4.253   7.967 -1.0477  1.7971  0.3956
  153SAPE  C31717045   0.026   4.115   8.077 -0.4498  0.0614  0.6657
  153SAPE  H17X17046  -0.016   4.188   8.150  0.5653 -1.3569  2.8007
  153SAPE  H17Y17047   0.118   4.090   8.135  1.4677  2.3935 -1.1228
  153SAPE  C31817048  -0.080   4.006   8.064 -0.1542  0.3338  0.0690
  153SAPE  H18X17049  -0.086   3.950   8.160 -1.6587 -0.4428 -0.4314
  153SAPE  H18Y17050  -0.045   3.928   7.993  0.3616 -0.5371  1.2603
  153SAPE  H18Z17051  -0.188   4.030   8.050 -0.5690 -1.2087  0.3735
  154SAPE     N17052   3.009   4.166   6.219  1.2358  0.0838  0.3542
  154SAPE   HN117053   3.053   4.259   6.215  1.8881 -0.2722 -2.1386
  154SAPE   HN217054   2.940   4.160   6.141  0.6186  1.9666  0.7228
  154SAPE   HN317055   2.961   4.152   6.311  2.2548 -1.7734  0.6653
  154SAPE   C1217056   3.103   4.060   6.190 -0.2007 -0.3374  0.1434
  154SAPE  H12A17057   3.194   4.067   6.253 -0.4546 -1.8390  0.7123
  154SAPE  H12B17058   3.116   4.071   6.080  0.6548  2.0054  0.4250
  154SAPE   C1117059   3.042   3.927   6.223 -0.3682  0.1086 -0.3965
  154SAPE  H11A17060   3.011   3.933   6.329  0.9288 -1.1410  0.0729
  154SAPE  H11B17061   3.108   3.838   6.222 -0.5406 -0.0405 -2.2341
  154SAPE     P17062   2.794   3.878   6.157 -0.2843 -0.2540 -0.0855
  154SAPE   O1317063   2.739   4.009   6.200  0.5356 -0.5947  0.9687
  154SAPE   O1417064   2.726   3.798   6.056 -0.0369  0.1377  0.3009
  154SAPE   O1217065   2.944   3.896   6.116  0.2962  0.3079 -0.6138
  154SAPE   O1117066   2.798   3.789   6.288  0.2978 -0.2754  0.1332
  154SAPE    C117067   2.706   3.814   6.395 -0.4634  0.3197  0.6239
  154SAPE    HA17068   2.733   3.909   6.445 -3.0107  0.6044  1.6046
  154SAPE    HB17069   2.604   3.832   6.355 -0.9371 -1.0302  1.1605
  154SAPE    C217070   2.705   3.686   6.488  0.2434  0.1098 -0.4659
  154SAPE    HS17071   2.617   3.700   6.555  1.8664 -1.1085  2.0756
  154SAPE   O2117072   2.828   3.673   6.561  0.1714 -0.4028  0.6885
  154SAPE   C2117073   2.820   3.730   6.677  0.7200 -0.6628 -1.2526
  154SAPE   O2217074   2.733   3.804   6.722  0.1785  0.3955 -0.0797
  154SAPE   C2217075   2.949   3.701   6.745 -0.5905  0.2088  0.0182
  154SAPE   H2R17076   2.932   3.601   6.789  0.2685 -0.6476 -1.4908
  154SAPE   H2S17077   3.035   3.690   6.675  0.8564  0.4129  1.6939
  154SAPE    C317078   2.682   3.560   6.400 -0.0710  0.1089  0.0024
  154SAPE    HX17079   2.775   3.545   6.340 -0.1284  1.2466 -0.3944
  154SAPE    HY17080   2.605   3.598   6.330 -0.7184 -0.1961  0.5421
  154SAPE   O3117081   2.651   3.433   6.466  0.2356  0.3680  0.6981
  154SAPE   C3117082   2.515   3.426   6.501 -0.4171 -0.1867  0.3059
  154SAPE   O3217083   2.426   3.488   6.449  0.3034  0.0640 -0.0015
  154SAPE   C3217084   2.488   3.325   6.611  0.3460  0.4766 -0.2493
  154SAPE   H2X17085   2.567   3.246   6.607 -0.8379 -1.2156  3.7722
  154SAPE   H2Y17086   2.386   3.286   6.592  0.2437  0.5669  0.0980
  154SAPE   C2317087   2.990   3.792   6.860 -1.1990  0.1883 -0.4338
  154SAPE   H3R17088   2.980   3.899   6.831  0.6078  0.3210 -0.6987
  154SAPE   H3S17089   3.098   3.777   6.882 -0.9602  3.0759  0.7893
  154SAPE   C2417090   2.920   3.761   6.989 -0.6065 -0.4395 -0.3727
  154SAPE   H4R17091   2.944   3.654   7.010  0.8415  0.0320  0.5587
  154SAPE   H4S17092   2.811   3.765   6.966 -0.4277  1.3688 -1.0627
  154SAPE   C2517093   2.955   3.850   7.103  0.3204 -1.1371 -0.2930
  154SAPE   H5R17094   2.982   3.955   7.084 -0.7206 -0.7253  0.3912
  154SAPE   C2617095   2.957   3.811   7.227  0.5248  0.7381 -0.2322
  154SAPE   H6R17096   2.989   3.878   7.307 -0.5888 -1.4188  2.1535
  154SAPE   C2717097   2.925   3.675   7.280  0.3487  0.1528 -0.7731
  154SAPE   H7R17098   2.902   3.595   7.206  0.6326 -0.9489  0.3057
  154SAPE   H7S17099   2.832   3.674   7.341  0.6375 -1.0016 -0.3251
  154SAPE   C2817100   3.044   3.615   7.355  0.0814  0.0051 -0.3092
  154SAPE   H8R17101   3.110   3.549   7.296 -0.0293  0.2494 -0.7129
  154SAPE   C2917102   3.068   3.623   7.485 -0.4245 -0.4087 -0.1203
  154SAPE   H9R17103   3.145   3.553   7.521  1.3768 -0.1073 -3.0253
  154SAPE  C21017104   2.984   3.687   7.592 -0.0364 -0.6718 -0.7188
  154SAPE  H10R17105   2.969   3.602   7.662 -0.4159 -0.8455 -1.0096
  154SAPE  H10S17106   2.881   3.710   7.557  0.4439  1.1431 -1.0342
  154SAPE  C21117107   3.040   3.813   7.659  0.4721  0.0971  0.0798
  154SAPE  H11R17108   3.066   3.892   7.588 -1.6577  1.5395  0.7964
  154SAPE  C21217109   3.074   3.825   7.790 -0.1976 -0.3344  0.0191
  154SAPE  H12R17110   3.109   3.922   7.829 -3.8910  1.0442  0.2714
  154SAPE  C21317111   3.061   3.711   7.893 -0.7405 -0.8608 -0.4051
  154SAPE  H13R17112   3.155   3.710   7.952 -0.2097 -2.4976 -1.2272
  154SAPE  H13S17113   3.063   3.612   7.842  1.8144 -0.4191 -1.3007
  154SAPE  C21417114   2.944   3.725   7.987  0.6538  0.0931 -0.3467
  154SAPE  H14R17115   2.849   3.705   7.936  0.5605  1.0261 -0.5616
  154SAPE  C21517116   2.939   3.734   8.125 -0.4382 -0.3823  0.4425
  154SAPE  H15R17117   2.839   3.742   8.169 -0.5732 -0.9768  0.2497
  154SAPE  C21617118   3.060   3.752   8.212 -0.5768 -0.1737 -0.7655
  154SAPE  H16R17119   3.149   3.765   8.146  1.2329 -1.1372  1.3348
  154SAPE  H16S17120   3.089   3.652   8.251  0.7530 -1.3423 -4.2822
  154SAPE  C21717121   3.046   3.857   8.320 -0.3361  0.9537 -0.0489
  154SAPE  H17R17122   3.008   3.945   8.263  1.8481  1.6247 -0.5523
  154SAPE  H17S17123   3.145   3.881   8.365 -0.1281 -1.3187  0.8004
  154SAPE  C21817124   2.953   3.811   8.442 -0.2686 -0.7446  0.3630
  154SAPE  H18R17125   2.852   3.785   8.402 -0.5860  1.2152 -0.2392
  154SAPE  H18S17126   2.938   3.896   8.513  2.8850 -0.1904  0.4989
  154SAPE  C21917127   3.013   3.697   8.525 -0.4212  0.3870  0.0577
  154SAPE  H19R17128   3.115   3.728   8.556  1.6355 -2.3044 -3.3386
  154SAPE  H19S17129   3.031   3.603   8.468  1.3160  0.4181  0.5017
  154SAPE  C22017130   2.928   3.673   8.655  0.4067  0.0759  0.0012
  154SAPE  H20R17131   2.821   3.650   8.640  0.7214 -2.2013  0.8459
  154SAPE  H20S17132   2.950   3.753   8.729 -0.2521  0.5782 -0.3350
  154SAPE  H20T17133   2.959   3.578   8.703 -1.6593  0.1569  1.6244
  154SAPE   C3317134   2.498   3.377   6.755  0.5559 -0.2298 -0.5234
  154SAPE   H3X17135   2.475   3.295   6.826  1.4990  0.0623  0.1332
  154SAPE   H3Y17136   2.413   3.443   6.783  2.3385  0.4005  4.3970
  154SAPE   C3417137   2.631   3.432   6.796  0.3965 -0.0648 -0.6338
  154SAPE   H4X17138   2.668   3.517   6.734  3.8763 -0.2280  1.0014
  154SAPE   H4Y17139   2.698   3.344   6.785  1.8707  0.9320  0.1320
  154SAPE   C3517140   2.641   3.476   6.949 -0.4687 -0.4582 -0.7515
  154SAPE   H5X17141   2.569   3.561   6.956 -1.4053 -1.2258 -0.9423
  154SAPE   H5Y17142   2.741   3.514   6.978 -1.7099  0.3538  3.0490
  154SAPE   C3617143   2.600   3.366   7.051 -0.4572  0.2801  0.0561
  154SAPE   H6X17144   2.671   3.287   7.017  0.6888  1.7118 -1.0300
  154SAPE   H6Y17145   2.493   3.342   7.032 -0.1529  0.2934 -1.8707
  154SAPE   C3717146   2.612   3.422   7.198  0.2461  0.3223 -0.2876
  154SAPE   H7X17147   2.543   3.509   7.204 -1.1325 -0.8300  1.8244
  154SAPE   H7Y17148   2.715   3.455   7.224  2.9566 -5.0247 -2.5688
  154SAPE   C3817149   2.561   3.327   7.305 -0.4020  0.7666  0.1096
  154SAPE   H8X17150   2.642   3.254   7.329 -1.2725 -1.1120 -2.3035
  154SAPE   H8Y17151   2.493   3.262   7.247  1.5231 -1.8063  0.5372
  154SAPE   C3917152   2.507   3.394   7.427  0.1441  0.3746 -0.3599
  154SAPE   H9X17153   2.423   3.464   7.408 -0.7839 -0.4526  0.5300
  154SAPE   H9Y17154   2.581   3.455   7.483  0.3161  2.4956 -2.7298
  154SAPE  C31017155   2.462   3.278   7.518  0.4754  0.2815  0.0009
  154SAPE  H10X17156   2.550   3.211   7.523  1.0268  1.0849  1.3988
  154SAPE  H10Y17157   2.379   3.220   7.472  0.9603  0.5943 -1.3164
  154SAPE  C31117158   2.426   3.311   7.661  0.4529  0.7914 -0.5202
  154SAPE  H11X17159   2.352   3.393   7.652 -0.3240  0.1144 -0.4476
  154SAPE  H11Y17160   2.511   3.356   7.717  0.8342  0.2725 -0.6653
  154SAPE  C31217161   2.378   3.189   7.737 -0.3522 -0.1505  0.7439
  154SAPE  H12X17162   2.457   3.112   7.729 -1.0355 -0.9063  1.1136
  154SAPE  H12Y17163   2.298   3.149   7.672  0.2448 -1.9650  1.0861
  154SAPE  C31317164   2.328   3.225   7.877  0.1877  0.0301  0.5675
  154SAPE  H13X17165   2.263   3.315   7.874  0.7060  0.3959 -1.9923
  154SAPE  H13Y17166   2.412   3.250   7.945  2.0765  1.5169 -2.1225
  154SAPE  C31417167   2.279   3.095   7.937  0.5863  0.4333 -0.6164
  154SAPE  H14X17168   2.363   3.026   7.961 -0.3922 -1.3099 -2.0360
  154SAPE  H14Y17169   2.202   3.055   7.868 -0.1969  0.6250  0.1288
  154SAPE  C31517170   2.210   3.120   8.078  0.4880 -0.3248  0.4104
  154SAPE  H15X17171   2.111   3.170   8.069  1.4049  1.6236  0.5675
  154SAPE  H15Y17172   2.275   3.190   8.134  0.4584 -0.0499  0.1091
  154SAPE  C31617173   2.211   3.000   8.164 -0.0289  0.4536 -0.4448
  154SAPE  H16X17174   2.317   2.995   8.196 -0.5371 -0.7697  1.1872
  154SAPE  H16Y17175   2.203   2.909   8.101  0.2607  0.4007 -0.4054
  154SAPE  C31717176   2.105   2.982   8.272 -0.7302 -0.0869  0.3201
  154SAPE  H17X17177   2.136   2.900   8.340 -0.5511 -0.4205 -0.1570
  154SAPE  H17Y17178   2.008   2.954   8.227 -1.1202  0.8947  0.5278
  154SAPE  C31817179   2.079   3.104   8.365  0.3561 -0.9977  0.2150
  154SAPE  H18X17180   2.171   3.129   8.422  0.0886  1.5021 -0.3476
  154SAPE  H18Y17181   1.995   3.084   8.435 -0.2011  0.2238 -0.0802
  154SAPE  H18Z17182   2.046   3.191   8.305  1.2141 -0.1097  1.0037
  155SAPE     N17183   5.010   3.502   6.424 -0.7896  0.1549  0.7074
  155SAPE   HN117184   4.956   3.476   6.509 -0.0734 -1.3248  0.7334
  155SAPE   HN217185   5.114   3.496   6.430 -0.9392 -2.2441  2.4007
  155SAPE   HN317186   4.986   3.603   6.413  1.1601  0.5843 -0.0522
  155SAPE   C1217187   4.951   3.439   6.303 -0.3084  0.2588 -0.5451
  155SAPE  H12A17188   4.954   3.329   6.320  1.0074  0.6592  2.5890
  155SAPE  H12B17189   5.008   3.466   6.212 -0.2181  2.2358  0.0536
  155SAPE   C1117190   4.805   3.494   6.281 -0.6091  0.0990  0.3493
  155SAPE  H11A17191   4.742   3.459   6.366 -0.8048  0.4610  0.3524
  155SAPE  H11B17192   4.773   3.448   6.185  2.3300  0.4946 -0.9340
  155SAPE     P17193   4.746   3.730   6.366 -0.2003 -0.0587 -0.1318
  155SAPE   O1317194   4.844   3.729   6.477  0.1136  0.1731 -0.1692
  155SAPE   O1417195   4.721   3.855   6.296 -0.3169 -0.3146 -0.0803
  155SAPE   O1217196   4.814   3.630   6.272 -0.4730 -0.4021  0.1515
  155SAPE   O1117197   4.611   3.656   6.406 -0.0486 -0.2327 -0.1826
  155SAPE    C117198   4.510   3.711   6.493  0.0564 -0.2987  0.0734
  155SAPE    HA17199   4.520   3.822   6.491  1.9589 -0.4232 -2.2507
  155SAPE    HB17200   4.413   3.689   6.445  1.4289 -1.7364 -2.1955
  155SAPE    C217201   4.528   3.660   6.643  0.9587 -0.6493  0.7639
  155SAPE    HS17202   4.453   3.719   6.700 -1.5743 -2.3818 -0.5987
  155SAPE   O2117203   4.660   3.674   6.698 -0.2191  0.0598  0.7562
  155SAPE   C2117204   4.693   3.801   6.741  0.4204 -0.4542 -0.3765
  155SAPE   O2217205   4.624   3.902   6.720  0.3791  0.0780 -0.7773
  155SAPE   C2217206   4.821   3.805   6.810  0.1544  0.2330 -0.4362
  155SAPE   H2R17207   4.851   3.705   6.847 -0.3050  0.3296  0.2212
  155SAPE   H2S17208   4.891   3.832   6.728  2.9842 -0.5262  1.5714
  155SAPE    C317209   4.476   3.517   6.669 -0.1616  0.6044 -0.1662
  155SAPE    HX17210   4.548   3.439   6.637  0.2840  1.2254 -0.7223
  155SAPE    HY17211   4.375   3.503   6.624 -2.1301 -1.1406  4.2337
  155SAPE   O3117212   4.450   3.506   6.806  0.2661 -0.0883 -0.2333
  155SAPE   C3117213   4.559   3.469   6.874  0.1443 -0.2430  0.4913
  155SAPE   O3217214   4.659   3.418   6.828 -0.0518 -0.3798  0.2058
  155SAPE   C3217215   4.542   3.496   7.024  0.6299  0.1576 -0.4602
  155SAPE   H2X17216   4.443   3.452   7.049  1.4957 -1.9757 -0.5260
  155SAPE   H2Y17217   4.541   3.606   7.036 -0.5536  0.4233 -2.5273
  155SAPE   C2317218   4.828   3.911   6.915 -0.4459  0.0919 -0.3056
  155SAPE   H3R17219   4.785   4.006   6.875 -2.4330 -1.4063 -1.9892
  155SAPE   H3S17220   4.933   3.928   6.946 -0.6957  0.9759  0.0742
  155SAPE   C2417221   4.757   3.875   7.050 -0.2107  0.1946  0.3980
  155SAPE   H4R17222   4.802   3.934   7.133  0.6198 -1.6399  1.2942
  155SAPE   H4S17223   4.773   3.767   7.070 -0.8321  0.4432  2.5386
  155SAPE   C2517224   4.611   3.888   7.039  0.6906 -0.6229  0.4806
  155SAPE   H5R17225   4.563   3.915   6.944  0.0649 -3.1704  0.0034
  155SAPE   C2617226   4.535   3.901   7.152 -0.0580  0.7104  0.2302
  155SAPE   H6R17227   4.426   3.911   7.136  0.0811  1.5598 -0.2449
  155SAPE   C2717228   4.588   3.901   7.299  0.6099 -0.0477 -0.2140
  155SAPE   H7R17229   4.695   3.874   7.308  1.1606  1.8100 -0.7393
  155SAPE   H7S17230   4.533   3.824   7.358 -1.0695  0.9763 -0.3601
  155SAPE   C2817231   4.590   4.030   7.374 -0.3292 -0.6432 -0.4676
  155SAPE   H8R17232   4.627   4.116   7.316 -3.5016  1.3947  0.3152
  155SAPE   C2917233   4.561   4.052   7.498  0.1120 -0.0862 -0.0376
  155SAPE   H9R17234   4.559   4.154   7.540 -1.9929 -0.7161  1.5262
  155SAPE  C21017235   4.517   3.944   7.595  0.4787 -0.3230 -0.0291
  155SAPE  H10R17236   4.536   3.984   7.697 -2.4075  0.7467  0.1626
  155SAPE  H10S17237   4.591   3.861   7.592  0.7050 -0.1147 -0.2690
  155SAPE  C21117238   4.370   3.907   7.584  0.7610 -1.0840  0.1114
  155SAPE  H11R17239   4.337   3.896   7.479 -0.9637  1.9753  0.2331
  155SAPE  C21217240   4.283   3.878   7.690  0.3166 -0.1561 -0.0128
  155SAPE  H12R17241   4.181   3.863   7.654  0.5547 -3.0003  0.3137
  155SAPE  C21317242   4.325   3.873   7.827  0.6610  0.5081 -0.2918
  155SAPE  H13R17243   4.330   3.980   7.858  0.8679  0.2903  0.4534
  155SAPE  H13S17244   4.428   3.832   7.838  0.0540 -1.5061 -1.6261
  155SAPE  C21417245   4.232   3.794   7.912 -0.0830 -0.3104  0.3942
  155SAPE  H14R17246   4.188   3.710   7.856  0.4873  0.8714 -1.9311
  155SAPE  C21517247   4.195   3.831   8.038 -0.5290 -0.3630  0.3881
  155SAPE  H15R17248   4.115   3.773   8.087 -0.1541 -1.2952 -0.0869
  155SAPE  C21617249   4.246   3.960   8.098 -0.3845  0.8825 -0.3017
  155SAPE  H16R17250   4.217   4.051   8.041 -0.3826  0.7875 -0.4553
  155SAPE  H16S17251   4.355   3.979   8.088 -0.2259  1.3229  1.8511
  155SAPE  C21717252   4.213   3.951   8.248  0.2560  0.9998 -0.1245
  155SAPE  H17R17253   4.276   3.872   8.294  0.5857  2.4796  2.1337
  155SAPE  H17S17254   4.106   3.926   8.268  0.1914  1.6483  0.3790
  155SAPE  C21817255   4.247   4.080   8.328 -0.2035 -0.6035 -0.2484
  155SAPE  H18R17256   4.182   4.168   8.313  0.1783 -0.1532  0.6767
  155SAPE  H18S17257   4.354   4.107   8.313 -0.7937  0.9123 -2.1563
  155SAPE  C21917258   4.234   4.046   8.479 -0.5333 -0.5341 -0.3753
  155SAPE  H19R17259   4.267   4.133   8.539  2.3259 -1.7095 -0.0998
  155SAPE  H19S17260   4.292   3.956   8.506 -1.2763 -1.2615 -1.1620
  155SAPE  C22017261   4.094   4.011   8.531 -0.5184  0.0587  0.3367
  155SAPE  H20R17262   4.099   4.012   8.642  2.0502  0.2225  0.2637
  155SAPE  H20S17263   4.064   3.917   8.480 -1.6021  1.3902 -1.6343
  155SAPE  H20T17264   4.023   4.093   8.507  0.8471  1.7931  1.9008
  155SAPE   C3317265   4.648   3.435   7.114  0.2218  0.2516 -0.0334
  155SAPE   H3X17266   4.742   3.494   7.099  0.5755 -0.8357 -2.7003
  155SAPE   H3Y17267   4.657   3.328   7.085 -1.3891 -0.2322  1.1579
  155SAPE   C3417268   4.609   3.435   7.261  0.1791 -1.0093  0.4786
  155SAPE   H4X17269   4.584   3.537   7.295 -0.3359 -1.1090  0.4034
  155SAPE   H4Y17270   4.702   3.403   7.313  1.6387 -1.2071 -2.0491
  155SAPE   C3517271   4.498   3.342   7.309 -0.3644  0.4369  0.4436
  155SAPE   H5X17272   4.509   3.250   7.247 -0.8055  0.6768 -0.0004
  155SAPE   H5Y17273   4.402   3.385   7.274 -0.1559  0.1824 -0.4740
  155SAPE   C3617274   4.504   3.319   7.463  0.0940 -0.2915  0.1042
  155SAPE   H6X17275   4.609   3.287   7.478  0.2981 -1.5222 -3.1497
  155SAPE   H6Y17276   4.425   3.243   7.481  1.3383 -1.5790  0.2961
  155SAPE   C3717277   4.465   3.443   7.547  0.0166 -0.2618  0.3034
  155SAPE   H7X17278   4.380   3.500   7.505 -1.6747 -2.0582  1.1221
  155SAPE   H7Y17279   4.546   3.519   7.537 -0.5132  0.3103  0.2928
  155SAPE   C3817280   4.445   3.421   7.693  0.2463  0.1878  0.0343
  155SAPE   H8X17281   4.429   3.513   7.752  0.8293  0.7581 -0.6755
  155SAPE   H8Y17282   4.535   3.364   7.726 -1.5587 -1.6486  2.1431
  155SAPE   C3917283   4.327   3.326   7.718 -0.0508  0.2679  0.0680
  155SAPE   H9X17284   4.332   3.223   7.677 -0.2218 -0.2421  1.2936
  155SAPE   H9Y17285   4.239   3.376   7.672  0.6652  2.9617  1.4157
  155SAPE  C31017286   4.303   3.309   7.870 -0.6129 -0.0257 -0.4731
  155SAPE  H10X17287   4.219   3.237   7.876 -2.0519  1.6391 -0.0648
  155SAPE  H10Y17288   4.265   3.404   7.911  1.3066  1.6221 -2.2528
  155SAPE  C31117289   4.428   3.262   7.952  0.3063  0.2192 -0.2278
  155SAPE  H11X17290   4.507   3.336   7.928  0.9754 -1.1752 -2.6039
  155SAPE  H11Y17291   4.459   3.160   7.920  0.2840  0.2719 -0.4194
  155SAPE  C31217292   4.391   3.264   8.102  0.3047  0.1186 -0.1418
  155SAPE  H12X17293   4.341   3.358   8.131 -0.4714 -0.5745  0.8491
  155SAPE  H12Y17294   4.490   3.249   8.151  1.0983 -0.7850 -1.9231
  155SAPE  C31317295   4.302   3.155   8.147 -0.5153 -0.5642 -0.1500
  155SAPE  H13X17296   4.332   3.060   8.098 -1.3488 -0.8035 -0.2212
  155SAPE  H13Y17297   4.206   3.184   8.099  1.4314  2.6613 -2.4654
  155SAPE  C31417298   4.284   3.140   8.304 -0.2331  0.2542  0.3967
  155SAPE  H14X17299   4.356   3.063   8.339 -0.6446 -1.1076 -1.5673
  155SAPE  H14Y17300   4.187   3.088   8.320 -0.7137  0.8330 -0.5260
  155SAPE  C31517301   4.298   3.265   8.389  0.3603 -0.2842  0.1430
  155SAPE  H15X17302   4.238   3.351   8.353  3.0168  2.9763  2.8110
  155SAPE  H15Y17303   4.407   3.287   8.385  0.5030 -0.9948 -0.0170
  155SAPE  C31617304   4.252   3.246   8.535 -0.2810  0.3580 -0.0330
  155SAPE  H16X17305   4.298   3.157   8.582  0.4871  1.7388  1.9861
  155SAPE  H16Y17306   4.141   3.247   8.543 -0.2783  2.9703  0.4818
  155SAPE  C31717307   4.294   3.358   8.634 -0.2202  0.5871  0.3414
  155SAPE  H17X17308   4.262   3.452   8.584  0.1076  0.5250  0.0148
  155SAPE  H17Y17309   4.403   3.377   8.626 -0.0904 -0.1841  0.2093
  155SAPE  C31817310   4.238   3.349   8.774 -0.5364  0.3358 -0.3414
  155SAPE  H18X17311   4.134   3.310   8.768 -0.2468 -0.7577  1.3272
  155SAPE  H18Y17312   4.250   3.448   8.823 -0.6605 -0.3089  1.0356
  155SAPE  H18Z17313   4.298   3.279   8.835  2.6783  3.1937  0.0566
  156SAPE     N17314   2.570   4.195   6.249 -0.9023 -0.4647 -0.0937
  156SAPE   HN117315   2.612   4.287   6.226  3.0268 -2.4941 -2.0617
  156SAPE   HN217316   2.630   4.111   6.234  1.8255  1.6223 -1.9067
  156SAPE   HN317317   2.501   4.177   6.173  0.5025  0.0371 -1.5536
  156SAPE   C1217318   2.496   4.206   6.377  0.2639 -1.5862 -0.1088
  156SAPE  H12A17319   2.447   4.107   6.394 -0.4549 -1.4193 -1.1372
  156SAPE  H12B17320   2.423   4.288   6.365  0.8218 -1.2671 -1.4375
  156SAPE   C1117321   2.594   4.236   6.493  0.2208  0.2763  0.9403
  156SAPE  H11A17322   2.643   4.140   6.523  0.4040  0.0594  0.0022
  156SAPE  H11B17323   2.526   4.267   6.575 -2.5554 -2.2934 -0.2073
  156SAPE     P17324   2.837   4.328   6.469 -0.2588  0.0671 -0.3542
  156SAPE   O1317325   2.875   4.181   6.454 -0.1681  0.4083  0.0414
  156SAPE   O1417326   2.905   4.421   6.375 -0.2414  0.1096  0.2813
  156SAPE   O1217327   2.684   4.339   6.453 -0.3287  0.4740 -0.7181
  156SAPE   O1117328   2.849   4.375   6.625 -0.3755  0.3485  0.7740
  156SAPE    C117329   2.787   4.494   6.676 -0.0182 -0.1243  0.6028
  156SAPE    HA17330   2.819   4.585   6.620  2.9030 -1.1489  0.4663
  156SAPE    HB17331   2.676   4.490   6.665  0.0606 -0.1596 -0.2378
  156SAPE    C217332   2.829   4.528   6.821  0.1387 -0.2637  0.1842
  156SAPE    HS17333   2.940   4.524   6.820  0.2415 -1.1810  3.3733
  156SAPE   O2117334   2.774   4.428   6.901  0.0859  0.5008  0.0061
  156SAPE   C2117335   2.847   4.320   6.931 -0.0380 -0.8659  0.5827
  156SAPE   O2217336   2.960   4.299   6.886 -0.2329 -0.1116  0.0293
  156SAPE   C2217337   2.778   4.248   7.047 -0.2096  0.3281 -0.3880
  156SAPE   H2R17338   2.708   4.317   7.099 -0.1015 -0.2567  0.5720
  156SAPE   H2S17339   2.728   4.160   7.003  1.4196 -0.7259 -0.2295
  156SAPE    C317340   2.786   4.668   6.874  0.0169  0.1524  0.3962
  156SAPE    HX17341   2.682   4.660   6.834  1.3879 -0.6799 -3.4113
  156SAPE    HY17342   2.836   4.745   6.812 -1.5855 -1.0682 -2.6489
  156SAPE   O3117343   2.784   4.691   7.013 -0.5573 -0.2187 -0.2110
  156SAPE   C3117344   2.899   4.675   7.078 -0.2618  0.2126 -0.0891
  156SAPE   O3217345   3.008   4.655   7.021  0.5401 -0.1053 -0.7279
  156SAPE   C3217346   2.871   4.698   7.225 -0.9368 -0.9245  0.5978
  156SAPE   H2X17347   2.926   4.789   7.256 -1.3197 -0.9431  1.3614
  156SAPE   H2Y17348   2.913   4.615   7.286  0.7724  0.2829  1.1226
  156SAPE   C2317349   2.889   4.197   7.140 -0.3761 -0.0878 -0.5266
  156SAPE   H3R17350   2.976   4.149   7.090 -0.8506 -0.8855 -0.6136
  156SAPE   H3S17351   2.834   4.111   7.185 -1.3217  1.3405  1.1711
  156SAPE   C2417352   2.923   4.294   7.260  0.3613 -0.1023  0.0948
  156SAPE   H4R17353   2.833   4.346   7.299  0.9486 -0.4191  2.0056
  156SAPE   H4S17354   2.981   4.378   7.217 -0.9170  1.1289  0.6751
  156SAPE   C2517355   2.995   4.229   7.374  0.1066 -0.0249  0.4326
  156SAPE   H5R17356   3.089   4.193   7.329 -0.6516  0.7315 -1.8682
  156SAPE   C2617357   2.960   4.202   7.497 -0.3728  0.2888  0.0156
  156SAPE   H6R17358   3.030   4.159   7.569 -1.0813  0.1334  0.6242
  156SAPE   C2717359   2.826   4.249   7.548  0.5753 -0.3548  0.0249
  156SAPE   H7R17360   2.800   4.348   7.504 -0.9482 -0.0546  1.5051
  156SAPE   H7S17361   2.833   4.271   7.656 -1.9898  2.7586 -0.2927
  156SAPE   C2817362   2.707   4.165   7.509 -0.7344  0.1618 -0.4277
  156SAPE   H8R17363   2.690   4.158   7.400  1.9676  1.3073 -1.0202
  156SAPE   C2917364   2.616   4.116   7.597 -0.4301 -0.6840 -0.3206
  156SAPE   H9R17365   2.537   4.050   7.559 -2.2407  0.6469  0.9793
  156SAPE  C21017366   2.612   4.136   7.746  0.1610  0.5241  0.4369
  156SAPE  H10R17367   2.512   4.099   7.778 -0.1120  1.3737  0.5750
  156SAPE  H10S17368   2.604   4.244   7.768  0.0485  0.5436  0.3043
  156SAPE  C21117369   2.719   4.049   7.809 -0.2306 -0.0408 -0.4711
  156SAPE  H11R17370   2.759   3.972   7.743 -0.4843  0.3656 -1.1050
  156SAPE  C21217371   2.761   4.054   7.932 -0.0301 -0.5329 -0.1399
  156SAPE  H12R17372   2.842   3.987   7.963 -0.3460 -1.3148 -0.9802
  156SAPE  C21317373   2.716   4.151   8.043  0.1285  0.2856  0.1140
  156SAPE  H13R17374   2.671   4.247   8.013  0.1246  0.3358  0.2794
  156SAPE  H13S17375   2.803   4.180   8.106  0.5450  3.0850 -1.6068
  156SAPE  C21417376   2.608   4.079   8.118  0.3532 -0.0166  0.1623
  156SAPE  H14R17377   2.528   4.046   8.052 -0.9741  3.3819 -0.1442
  156SAPE  C21517378   2.589   4.053   8.248  0.4304  0.0410 -0.9381
  156SAPE  H15R17379   2.499   3.994   8.272  0.1866  1.2402  1.3134
  156SAPE  C21617380   2.688   4.092   8.354  0.2490  0.5857  0.5982
  156SAPE  H16R17381   2.788   4.085   8.305  0.6724 -1.8748  1.7077
  156SAPE  H16S17382   2.672   4.021   8.438  0.2849  1.0513  1.0034
  156SAPE  C21717383   2.665   4.236   8.421  0.7703  0.6839  0.4630
  156SAPE  H17R17384   2.673   4.305   8.335  2.2323 -1.6321 -1.3870
  156SAPE  H17S17385   2.747   4.247   8.495 -0.8192  0.2792  2.3796
  156SAPE  C21817386   2.532   4.246   8.495  0.5564  0.0875 -0.1674
  156SAPE  H18R17387   2.493   4.144   8.512 -0.1172  0.6199  1.7353
  156SAPE  H18S17388   2.461   4.297   8.427  0.7780  0.7464  0.0822
  156SAPE  C21917389   2.546   4.314   8.635  0.6927 -0.5219 -0.1530
  156SAPE  H19R17390   2.609   4.248   8.698  2.4723 -0.5919 -1.8914
  156SAPE  H19S17391   2.448   4.304   8.686 -0.6450  0.8914 -2.2433
  156SAPE  C22017392   2.590   4.461   8.628  0.7862  0.8669 -0.6738
  156SAPE  H20R17393   2.528   4.519   8.557 -0.2280 -0.8376 -1.2515
  156SAPE  H20S17394   2.699   4.470   8.604  0.9470  0.5981 -0.0627
  156SAPE  H20T17395   2.586   4.510   8.727 -3.2726  0.1822 -0.3298
  156SAPE   C3317396   2.724   4.721   7.271 -0.0766  0.3509  0.4314
  156SAPE   H3X17397   2.661   4.630   7.264  0.7502 -0.4721  2.6351
  156SAPE   H3Y17398   2.693   4.800   7.200  1.6388  0.1737 -0.5717
  156SAPE   C3417399   2.720   4.774   7.413  0.1463  0.4987 -0.2157
  156SAPE   H4X17400   2.616   4.797   7.443 -0.5396 -0.2928 -1.8637
  156SAPE   H4Y17401   2.773   4.872   7.409  0.1940  0.4363 -1.2527
  156SAPE   C3517402   2.775   4.676   7.519  0.0041  0.4169 -0.1701
  156SAPE   H5X17403   2.883   4.661   7.496  1.2597  2.2179  3.7404
  156SAPE   H5Y17404   2.718   4.582   7.503 -0.0022  0.4630 -0.4314
  156SAPE   C3617405   2.780   4.736   7.661  0.2164  0.1171 -0.2393
  156SAPE   H6X17406   2.676   4.759   7.692 -0.4466 -1.0619 -1.4784
  156SAPE   H6Y17407   2.832   4.834   7.659  0.5014  0.1294  3.0683
  156SAPE   C3717408   2.838   4.645   7.769  0.0196  1.0996  0.0189
  156SAPE   H7X17409   2.946   4.633   7.747  0.2806  0.6043  1.4657
  156SAPE   H7Y17410   2.790   4.545   7.759 -0.0632  1.0898  0.4891
  156SAPE   C3817411   2.815   4.700   7.909  0.2339 -0.8223  0.4138
  156SAPE   H8X17412   2.716   4.750   7.904 -0.0314 -1.0923  2.1623
  156SAPE   H8Y17413   2.888   4.778   7.939 -0.1603 -0.3574  0.1971
  156SAPE   C3917414   2.795   4.586   8.009  0.3842  0.1984  0.7475
  156SAPE   H9X17415   2.861   4.501   7.983 -0.6213 -0.5558  0.6045
  156SAPE   H9Y17416   2.686   4.562   8.006 -0.2129  2.6933 -0.6076
  156SAPE  C31017417   2.843   4.616   8.153  0.4169  0.7307 -0.1537
  156SAPE  H10X17418   2.953   4.629   8.155  0.7157 -0.9401 -2.2602
  156SAPE  H10Y17419   2.823   4.533   8.224  0.8232  0.2971 -0.5453
  156SAPE  C31117420   2.766   4.742   8.205 -0.8878 -0.5715  0.5837
  156SAPE  H11X17421   2.659   4.754   8.177 -1.1579 -1.5761  1.1479
  156SAPE  H11Y17422   2.809   4.828   8.150  0.7304 -0.1701  2.3501
  156SAPE  C31217423   2.785   4.764   8.349 -0.2096  1.0969  0.2900
  156SAPE  H12X17424   2.876   4.824   8.370  1.5892 -2.0400  2.1443
  156SAPE  H12Y17425   2.795   4.669   8.406 -1.0558  0.4145 -0.6638
  156SAPE  C31317426   2.660   4.826   8.416  0.6157  0.0458  0.0861
  156SAPE  H13X17427   2.566   4.777   8.383  1.4842 -0.7065 -1.4040
  156SAPE  H13Y17428   2.649   4.932   8.386  1.6783  0.0715 -0.2521
  156SAPE  C31417429   2.673   4.813   8.571 -0.5102  0.6523  0.7646
  156SAPE  H14X17430   2.761   4.869   8.608  0.6886 -1.3289  1.0967
  156SAPE  H14Y17431   2.694   4.708   8.601 -1.6605  0.0895 -0.3122
  156SAPE  C31517432   2.546   4.856   8.642  0.5412  0.3639  0.1182
  156SAPE  H15X17433   2.455   4.803   8.608 -0.1880  1.5722  0.1537
  156SAPE  H15Y17434   2.524   4.965   8.639 -0.3975  0.2848  2.0942
  156SAPE  C31617435   2.552   4.823   8.799  0.1925  0.3106 -0.0372
  156SAPE  H16X17436   2.642   4.847   8.858 -0.2867  3.9118 -0.5719
  156SAPE  H16Y17437   2.534   4.714   8.811  0.1666  0.3974  0.7576
  156SAPE  C31717438   2.442   4.901   8.870  0.1204  0.0289 -0.3832
  156SAPE  H17X17439   2.344   4.875   8.826 -1.1644  1.6961  1.3663
  156SAPE  H17Y17440   2.459   5.008   8.847 -1.1708 -0.0867 -2.0707
  156SAPE  C31817441   2.433   4.896   9.020 -0.1044 -0.2126 -0.3979
  156SAPE  H18X17442   2.533   4.908   9.067  0.2138 -0.7573 -0.9189
  156SAPE  H18Y17443   2.394   4.797   9.052  0.5629 -0.5996 -0.7611
  156SAPE  H18Z17444   2.369   4.977   9.062  0.9096  0.6416 -0.4558
  157SAPE     N17445   0.944   0.046   6.151  0.4368  0.0854 -0.1889
  157SAPE   HN117446   1.011  -0.033   6.154  0.8156  0.3997 -0.3098
  157SAPE   HN217447   0.883   0.041   6.067  1.3499  0.7431 -0.9117
  157SAPE   HN317448   1.004   0.130   6.141  0.4938  0.0533 -0.1162
  157SAPE   C1217449   0.861   0.050   6.275  0.6173  0.2086 -0.1528
  157SAPE  H12A17450   0.918   0.057   6.370  1.3818 -0.1440 -0.5817
  157SAPE  H12B17451   0.795  -0.039   6.278 -2.6047  2.4183  0.1648
  157SAPE   C1117452   0.776   0.176   6.263 -0.1828  0.2062 -0.3111
  157SAPE  H11A17453   0.853   0.256   6.263  0.1768 -0.1323 -1.2568
  157SAPE  H11B17454   0.713   0.197   6.353 -0.4758 -1.4345 -0.1159
  157SAPE     P17455   0.550   0.116   6.147  0.0775 -0.0054 -0.0060
  157SAPE   O1317456   0.454   0.226   6.129  0.2397 -0.5172 -0.2316
  157SAPE   O1417457   0.549   0.010   6.044  0.3989 -0.7974  0.4146
  157SAPE   O1217458   0.700   0.173   6.145  0.1312 -0.3609  0.1254
  157SAPE   O1117459   0.534   0.053   6.291 -0.1758  0.7375  0.2145
  157SAPE    C117460   0.405   0.013   6.342 -0.0245  0.5827  0.1110
  157SAPE    HA17461   0.328   0.092   6.352 -0.0605  0.3227  2.5922
  157SAPE    HB17462   0.360  -0.056   6.267  1.0493  1.2872 -1.2329
  157SAPE    C217463   0.424  -0.018   6.489  0.1805  0.5482 -0.4683
  157SAPE    HS17464   0.509  -0.089   6.499  0.6364  0.9697 -1.2929
  157SAPE   O2117465   0.296  -0.077   6.537  0.7732 -0.2561 -0.2511
  157SAPE   C2117466   0.283  -0.195   6.494  0.3136  0.0697  1.2696
  157SAPE   O2217467   0.367  -0.263   6.439 -0.4299  0.2012  0.2896
  157SAPE   C2217468   0.133  -0.224   6.486  0.6190  0.6669  0.6093
  157SAPE   H2R17469   0.076  -0.175   6.569 -0.0813  0.6937  0.1183
  157SAPE   H2S17470   0.101  -0.182   6.389 -0.3684  0.1342  0.7013
  157SAPE    C317471   0.461   0.105   6.580  0.5159 -0.0051  0.0084
  157SAPE    HX17472   0.376   0.177   6.576  1.5978  1.4673  1.7185
  157SAPE    HY17473   0.551   0.152   6.535 -1.0492  1.8136 -1.4120
  157SAPE   O3117474   0.487   0.055   6.713 -0.0988 -0.6064  0.3492
  157SAPE   C3117475   0.496   0.160   6.795  0.2473  0.3670 -1.2121
  157SAPE   O3217476   0.490   0.277   6.760  0.1469  0.3556 -0.6002
  157SAPE   C3217477   0.476   0.101   6.933 -0.1044  0.0674  0.4472
  157SAPE   H2X17478   0.378   0.048   6.929 -0.7664  1.3148 -0.6473
  157SAPE   H2Y17479   0.467   0.186   7.004 -1.5251  0.6264 -0.3448
  157SAPE   C2317480   0.102  -0.372   6.499  0.7035  0.4812  0.1682
  157SAPE   H3R17481   0.191  -0.423   6.456  1.9139 -0.0242  3.0657
  157SAPE   H3S17482   0.008  -0.394   6.445 -0.7490  1.7695  2.0420
  157SAPE   C2417483   0.082  -0.433   6.643  0.5454  0.4357 -1.1753
  157SAPE   H4R17484   0.103  -0.542   6.642  1.0342  0.4921  0.4793
  157SAPE   H4S17485  -0.024  -0.431   6.675  0.7812  0.3717 -0.3606
  157SAPE   C2517486   0.179  -0.372   6.740  0.4309 -0.7191 -0.1264
  157SAPE   H5R17487   0.286  -0.399   6.733  1.2048  1.7848  0.9729
  157SAPE   C2617488   0.135  -0.300   6.849 -0.3013 -0.2110 -0.3216
  157SAPE   H6R17489   0.219  -0.249   6.899  0.6559 -0.8949 -1.1816
  157SAPE   C2717490   0.008  -0.262   6.906  0.7140 -0.1375  0.3578
  157SAPE   H7R17491  -0.064  -0.233   6.826  0.0819 -0.0803  0.9318
  157SAPE   H7S17492   0.025  -0.166   6.959  1.1000  0.0387 -0.0799
  157SAPE   C2817493  -0.050  -0.373   6.989 -0.2424 -0.4318 -0.5640
  157SAPE   H8R17494  -0.136  -0.424   6.945 -0.1695 -1.6837  0.6352
  157SAPE   C2917495  -0.018  -0.402   7.120 -0.1106  0.5965  0.1827
  157SAPE   H9R17496  -0.047  -0.497   7.167  0.8401 -0.4268 -1.2069
  157SAPE  C21017497   0.099  -0.330   7.198 -0.3934  0.9591  0.8076
  157SAPE  H10R17498   0.179  -0.295   7.129 -0.5538 -1.9680 -1.0391
  157SAPE  H10S17499   0.157  -0.401   7.260 -0.4765  0.6186  0.5024
  157SAPE  C21117500   0.052  -0.218   7.284  0.2673  0.3182 -0.4073
  157SAPE  H11R17501   0.042  -0.119   7.238  0.5357  0.9133  0.7819
  157SAPE  C21217502  -0.013  -0.238   7.400 -0.2466  0.1762 -0.2860
  157SAPE  H12R17503  -0.039  -0.149   7.460  1.6082  1.4925 -1.3174
  157SAPE  C21317504  -0.041  -0.362   7.470  0.1950  0.6671 -0.3064
  157SAPE  H13R17505  -0.092  -0.426   7.395 -2.1565  4.3598 -2.1323
  157SAPE  H13S17506  -0.117  -0.343   7.548  0.5868 -2.4107  0.9969
  157SAPE  C21417507   0.077  -0.424   7.539  0.8364 -0.0776  0.5221
  157SAPE  H14R17508   0.139  -0.484   7.472  2.3189  0.2943  1.5211
  157SAPE  C21517509   0.120  -0.398   7.662  0.3997  0.3300  1.1961
  157SAPE  H15R17510   0.198  -0.465   7.702  0.3594  0.1856  1.0327
  157SAPE  C21617511   0.053  -0.300   7.748 -0.4284 -0.7612 -0.4216
  157SAPE  H16R17512  -0.008  -0.231   7.685 -1.3757  1.1333  2.3723
  157SAPE  H16S17513   0.124  -0.232   7.800 -0.4005 -2.2330  1.6090
  157SAPE  C21717514  -0.027  -0.369   7.864  0.0557  0.0353 -0.5733
  157SAPE  H17R17515  -0.109  -0.422   7.811 -0.9490  1.5626 -0.5919
  157SAPE  H17S17516  -0.081  -0.295   7.927  0.6900 -0.8506  1.0511
  157SAPE  C21817517   0.058  -0.456   7.960  0.3333 -0.1480 -0.4922
  157SAPE  H18R17518   0.078  -0.551   7.906 -1.2505 -1.1386  0.5804
  157SAPE  H18S17519  -0.020  -0.480   8.035  0.7856  0.9498  0.3620
  157SAPE  C21917520   0.181  -0.391   8.018  0.2133 -0.9800  0.0017
  157SAPE  H19R17521   0.149  -0.300   8.073 -0.3483 -1.8548  1.1360
  157SAPE  H19S17522   0.250  -0.354   7.938  1.3549 -1.6970  0.6310
  157SAPE  C22017523   0.257  -0.467   8.124  0.2446 -0.3642  0.1697
  157SAPE  H20R17524   0.188  -0.485   8.210  0.2871  0.5679  0.4048
  157SAPE  H20S17525   0.337  -0.401   8.165 -1.0030  0.7133  0.9259
  157SAPE  H20T17526   0.295  -0.568   8.097  1.1318  0.4122 -1.6396
  157SAPE   C3317527   0.583  -0.004   6.967 -0.0434 -0.1599  0.1043
  157SAPE   H3X17528   0.658   0.056   7.022 -1.9609  0.9025  1.6597
  157SAPE   H3Y17529   0.638  -0.047   6.880  0.6859  1.4045 -0.2296
  157SAPE   C3417530   0.526  -0.113   7.059  0.2586  0.0538  0.1510
  157SAPE   H4X17531   0.469  -0.189   7.000 -0.1022 -1.4367  2.3191
  157SAPE   H4Y17532   0.463  -0.080   7.144  1.9882 -0.6264  1.7377
  157SAPE   C3517533   0.643  -0.186   7.135 -0.4663  0.1155  0.7176
  157SAPE   H5X17534   0.695  -0.116   7.204 -2.5234  2.0390  0.4337
  157SAPE   H5Y17535   0.707  -0.211   7.048  0.6469  3.5269  0.3928
  157SAPE   C3617536   0.588  -0.305   7.213 -0.8176 -0.3132  0.0378
  157SAPE   H6X17537   0.656  -0.392   7.200  0.1328  0.1162  1.7944
  157SAPE   H6Y17538   0.486  -0.335   7.181 -0.8806 -0.4643  0.3667
  157SAPE   C3717539   0.579  -0.281   7.370  0.1649  0.0360 -0.2645
  157SAPE   H7X17540   0.544  -0.376   7.415  0.2433  0.5578  0.9238
  157SAPE   H7Y17541   0.510  -0.196   7.388 -1.1419 -0.9521 -0.4749
  157SAPE   C3817542   0.714  -0.255   7.439  0.6549 -0.5314  0.1702
  157SAPE   H8X17543   0.752  -0.154   7.412  1.5242 -1.3243 -1.7958
  157SAPE   H8Y17544   0.783  -0.336   7.406 -1.2420 -1.7391 -0.9914
  157SAPE   C3917545   0.716  -0.253   7.592  0.2255  0.3270  0.0691
  157SAPE   H9X17546   0.615  -0.226   7.631 -0.5133 -1.9872 -0.0968
  157SAPE   H9Y17547   0.775  -0.166   7.630  0.3497 -0.3615  1.5522
  157SAPE  C31017548   0.766  -0.387   7.647 -0.1830 -0.2475 -0.2014
  157SAPE  H10X17549   0.871  -0.392   7.612 -0.0586  1.8052 -0.2092
  157SAPE  H10Y17550   0.718  -0.480   7.608  2.2834 -1.7112  0.1052
  157SAPE  C31117551   0.771  -0.384   7.800  0.6761  0.4036 -0.3374
  157SAPE  H11X17552   0.668  -0.357   7.831  0.9827  2.1180 -0.7295
  157SAPE  H11Y17553   0.835  -0.304   7.842 -0.3016 -0.0726  2.2120
  157SAPE  C31217554   0.790  -0.527   7.867 -0.5086  0.5704 -0.0471
  157SAPE  H12X17555   0.879  -0.581   7.829 -0.9344 -0.8788  0.9329
  157SAPE  H12Y17556   0.702  -0.590   7.843 -1.1902  0.4735  2.3726
  157SAPE  C31317557   0.787  -0.517   8.018 -0.1998 -0.5109 -1.1200
  157SAPE  H13X17558   0.710  -0.442   8.046 -1.4331 -0.8254 -3.4292
  157SAPE  H13Y17559   0.877  -0.471   8.063 -0.8443 -1.3984  1.1979
  157SAPE  C31417560   0.753  -0.647   8.095  0.0474 -0.0178 -0.0620
  157SAPE  H14X17561   0.795  -0.730   8.033 -0.4087  0.5820 -1.2061
  157SAPE  H14Y17562   0.642  -0.655   8.093  0.0061 -0.7986 -4.4762
  157SAPE  C31517563   0.813  -0.650   8.236 -0.1996  0.1284 -0.8249
  157SAPE  H15X17564   0.923  -0.652   8.226  0.3794 -2.2822  3.4957
  157SAPE  H15Y17565   0.793  -0.750   8.282  2.2145  0.3435  0.8778
  157SAPE  C31617566   0.753  -0.552   8.328 -0.3246 -0.7827 -0.5298
  157SAPE  H16X17567   0.644  -0.558   8.309 -0.7506  0.9328  1.0690
  157SAPE  H16Y17568   0.784  -0.447   8.309  0.6259 -1.1884 -1.3132
  157SAPE  C31717569   0.765  -0.578   8.482  0.2635 -0.0423  0.5503
  157SAPE  H17X17570   0.861  -0.625   8.512  0.3923  0.8040  1.5235
  157SAPE  H17Y17571   0.698  -0.663   8.510  2.7525 -1.5350  2.3614
  157SAPE  C31817572   0.734  -0.456   8.573 -0.0109  0.1035 -0.5015
  157SAPE  H18X17573   0.825  -0.394   8.579 -0.5844  0.8740  0.7817
  157SAPE  H18Y17574   0.724  -0.483   8.681 -1.5507  1.4622 -0.2618
  157SAPE  H18Z17575   0.655  -0.384   8.542  0.6693  0.9505 -0.2925
  158SAPE     N17576   1.656   4.763   6.037  0.4621  0.0219 -0.0890
  158SAPE   HN117577   1.743   4.755   5.981 -0.6532  0.3568 -1.9587
  158SAPE   HN217578   1.582   4.733   5.969 -0.1045 -0.6419  0.8000
  158SAPE   HN317579   1.639   4.863   6.055 -0.7269  0.3697 -2.7009
  158SAPE   C1217580   1.646   4.697   6.172 -0.1971 -0.0013  0.9748
  158SAPE  H12A17581   1.539   4.703   6.200 -0.6540  1.4442 -0.9180
  158SAPE  H12B17582   1.710   4.760   6.238  0.3982 -0.8782  1.2549
  158SAPE   C1117583   1.699   4.544   6.178  0.3251 -0.6943  0.4828
  158SAPE  H11A17584   1.635   4.484   6.110  3.8803 -2.7653 -1.3280
  158SAPE  H11B17585   1.683   4.505   6.280 -0.6409 -3.4280 -0.6173
  158SAPE     P17586   1.956   4.573   6.230  0.0744  0.2900 -0.3613
  158SAPE   O1317587   2.082   4.506   6.189  0.1744 -0.4969  0.1850
  158SAPE   O1417588   1.955   4.722   6.238 -0.1724  0.2933  0.2562
  158SAPE   O1217589   1.835   4.535   6.133 -0.3069  0.6882  0.0778
  158SAPE   O1117590   1.912   4.516   6.369  0.5565  0.2118 -0.2705
  158SAPE    C117591   1.897   4.382   6.402 -0.2869  0.1319 -0.4757
  158SAPE    HA17592   1.793   4.354   6.430  0.4429 -2.6035 -0.1984
  158SAPE    HB17593   1.923   4.313   6.319 -2.0981 -0.4854 -0.5699
  158SAPE    C217594   1.983   4.348   6.532  0.5272 -0.2503  0.4454
  158SAPE    HS17595   1.958   4.243   6.558  2.8757 -0.7207  0.9878
  158SAPE   O2117596   1.954   4.448   6.635 -0.3306 -0.0973  0.2305
  158SAPE   C2117597   1.927   4.405   6.755  0.1669 -0.2917  0.1999
  158SAPE   O2217598   1.918   4.293   6.795 -0.3425  0.5220  0.0851
  158SAPE   C2217599   1.906   4.531   6.835  0.0982  0.1583 -0.1080
  158SAPE   H2R17600   1.997   4.591   6.814 -0.1969  1.0325  1.0153
  158SAPE   H2S17601   1.818   4.585   6.793  0.8790  1.5569 -0.0149
  158SAPE    C317602   2.132   4.353   6.495  0.4531  0.3202 -0.2298
  158SAPE    HX17603   2.141   4.458   6.459  1.8319  0.7243  1.1582
  158SAPE    HY17604   2.152   4.269   6.425  1.6473 -0.6884  1.2469
  158SAPE   O3117605   2.207   4.321   6.614  0.9922 -0.2348  0.5125
  158SAPE   C3117606   2.273   4.433   6.660  0.1193 -0.9431  0.6794
  158SAPE   O3217607   2.270   4.545   6.617  0.2730 -0.5164 -0.4601
  158SAPE   C3217608   2.367   4.388   6.770 -0.2969  0.3316  0.5172
  158SAPE   H2X17609   2.466   4.434   6.750 -0.0317 -0.8458 -1.1111
  158SAPE   H2Y17610   2.376   4.277   6.766 -0.2988  0.3156  0.9750
  158SAPE   C2317611   1.905   4.505   6.983  0.4842 -0.6734  0.4999
  158SAPE   H3R17612   1.995   4.455   7.024  0.1630 -1.4935  0.2394
  158SAPE   H3S17613   1.822   4.432   6.999 -1.6491  1.6531  0.6966
  158SAPE   C2417614   1.867   4.635   7.055 -0.0146 -0.0955 -0.1926
  158SAPE   H4R17615   1.847   4.598   7.158  2.4502 -0.5099  0.2045
  158SAPE   H4S17616   1.767   4.661   7.013  0.1396 -2.1971 -1.9941
  158SAPE   C2517617   1.970   4.746   7.049  0.4049  0.3606 -0.4351
  158SAPE   H5R17618   1.968   4.816   6.964  0.7679  1.7112  0.6166
  158SAPE   C2617619   2.076   4.752   7.139 -0.1894  0.5457  0.5817
  158SAPE   H6R17620   2.149   4.831   7.118 -1.6320  1.8019  0.1286
  158SAPE   C2717621   2.105   4.665   7.257  0.9054 -0.4654  0.0743
  158SAPE   H7R17622   2.206   4.619   7.247  1.6858  0.8237  1.5907
  158SAPE   H7S17623   2.031   4.582   7.258  0.1597  0.1856  0.4052
  158SAPE   C2817624   2.107   4.752   7.388  0.2825  0.7690 -0.1836
  158SAPE   H8R17625   2.200   4.805   7.411  0.1928  0.8008  0.1015
  158SAPE   C2917626   2.006   4.753   7.480 -0.7092 -0.3256 -0.3266
  158SAPE   H9R17627   2.016   4.825   7.563 -1.1171 -0.5184 -0.1094
  158SAPE  C21017628   1.871   4.684   7.472  0.1363 -0.2459  0.1671
  158SAPE  H10R17629   1.864   4.640   7.371  0.9805  0.0985 -0.0561
  158SAPE  H10S17630   1.791   4.761   7.464  0.7548  0.3562 -0.4100
  158SAPE  C21117631   1.838   4.572   7.559 -0.2702  0.9483 -0.2390
  158SAPE  H11R17632   1.824   4.475   7.510 -0.1005 -1.2615  3.6755
  158SAPE  C21217633   1.828   4.575   7.694  0.2765  0.6655  0.3115
  158SAPE  H12R17634   1.826   4.477   7.745 -1.3212  0.0545 -0.8314
  158SAPE  C21317635   1.842   4.701   7.771  0.4640 -0.3793  0.0693
  158SAPE  H13R17636   1.761   4.704   7.847  2.5114 -0.7038  2.4351
  158SAPE  H13S17637   1.825   4.793   7.712  0.0201 -0.8345 -0.5139
  158SAPE  C21417638   1.969   4.697   7.841  0.1490  0.1975 -0.1228
  158SAPE  H14R17639   2.020   4.601   7.856  1.4866  0.5891 -1.7286
  158SAPE  C21517640   2.027   4.806   7.901  0.0863 -0.3223  0.3039
  158SAPE  H15R17641   2.129   4.799   7.942  0.4065  0.0790 -0.4049
  158SAPE  C21617642   1.987   4.955   7.902  0.2305  0.4352  0.1376
  158SAPE  H16R17643   1.919   4.988   7.821 -0.0078 -0.2756  0.0406
  158SAPE  H16S17644   2.075   5.013   7.867 -1.2939  1.8957 -1.4508
  158SAPE  C21717645   1.944   5.015   8.048 -0.0440  0.7311  0.3491
  158SAPE  H17R17646   1.927   5.124   8.035 -2.4673  0.3707  0.0902
  158SAPE  H17S17647   2.037   5.004   8.108  0.8379  0.6821 -0.9709
  158SAPE  C21817648   1.819   4.947   8.106  0.2527  0.5972  0.8019
  158SAPE  H18R17649   1.832   4.837   8.093  0.6971  0.7255  0.1217
  158SAPE  H18S17650   1.735   4.968   8.037 -0.6873 -2.5861  0.7922
  158SAPE  C21917651   1.779   5.002   8.245  0.9605 -0.0174  0.5268
  158SAPE  H19R17652   1.684   4.947   8.266  0.7633 -0.6067 -1.6659
  158SAPE  H19S17653   1.759   5.110   8.232 -1.0668 -0.6292 -2.3849
  158SAPE  C22017654   1.879   4.971   8.358 -0.3648 -0.4061  0.8746
  158SAPE  H20R17655   1.857   4.865   8.382 -0.3080 -0.5548  0.2860
  158SAPE  H20S17656   1.868   5.036   8.447 -0.8633 -0.2197  0.6796
  158SAPE  H20T17657   1.986   4.973   8.328  0.0762 -3.5192  1.9283
  158SAPE   C3317658   2.320   4.425   6.913  0.5536  0.3081  0.6178
  158SAPE   H3X17659   2.223   4.376   6.936 -0.9688  2.3937 -0.9301
  158SAPE   H3Y17660   2.300   4.533   6.925 -0.2037  0.1027  1.2369
  158SAPE   C3417661   2.423   4.392   7.021 -0.5623  0.5267  0.2239
  158SAPE   H4X17662   2.486   4.483   7.024  2.6165 -1.4300 -1.4620
  158SAPE   H4Y17663   2.488   4.308   6.987 -0.7971 -0.4918  2.1472
  158SAPE   C3517664   2.362   4.360   7.155  0.5693  0.0698  0.0174
  158SAPE   H5X17665   2.357   4.251   7.179  0.8484 -0.6231 -2.7947
  158SAPE   H5Y17666   2.260   4.402   7.160  0.6600  0.6505 -2.1331
  158SAPE   C3617667   2.447   4.429   7.262  0.6656 -0.0487 -0.0119
  158SAPE   H6X17668   2.452   4.537   7.235 -1.2909  0.1257  0.1437
  158SAPE   H6Y17669   2.551   4.393   7.270  0.6867 -0.1196 -0.6237
  158SAPE   C3717670   2.380   4.422   7.402 -0.2136 -0.2088 -0.2932
  158SAPE   H7X17671   2.279   4.466   7.419  0.1956  0.6209  0.0112
  158SAPE   H7Y17672   2.370   4.315   7.430  0.8201 -0.6907 -1.6555
  158SAPE   C3817673   2.468   4.488   7.513  0.2247 -0.9059  0.2237
  158SAPE   H8X17674   2.484   4.594   7.482  1.4156 -0.9759  0.5636
  158SAPE   H8Y17675   2.566   4.436   7.511  1.2194  0.8606  0.8543
  158SAPE   C3917676   2.395   4.482   7.644  0.1293 -0.7424  0.5060
  158SAPE   H9X17677   2.390   4.375   7.673 -0.6452 -0.7324  0.4090
  158SAPE   H9Y17678   2.292   4.522   7.645  0.9122  1.4207  1.4886
  158SAPE  C31017679   2.476   4.549   7.756 -0.0271 -0.4627  0.5854
  158SAPE  H10X17680   2.498   4.651   7.717 -0.8229 -1.0571 -1.5662
  158SAPE  H10Y17681   2.566   4.484   7.766  0.5575  0.2840  0.2270
  158SAPE  C31117682   2.399   4.545   7.890 -0.3176 -1.1680 -0.6245
  158SAPE  H11X17683   2.303   4.596   7.865  0.2176 -1.5126 -3.8515
  158SAPE  H11Y17684   2.452   4.608   7.963  0.6155 -0.2066 -2.0759
  158SAPE  C31217685   2.393   4.405   7.955  0.3290 -0.4172 -0.1720
  158SAPE  H12X17686   2.492   4.358   7.932 -0.2049 -1.1183 -1.0917
  158SAPE  H12Y17687   2.314   4.352   7.898 -0.3495  0.8367 -0.4276
  158SAPE  C31317688   2.366   4.405   8.109  0.0899 -0.0225 -0.2008
  158SAPE  H13X17689   2.452   4.459   8.153 -0.8918  0.9971  0.5250
  158SAPE  H13Y17690   2.359   4.305   8.158 -1.8383 -0.5420 -1.4207
  158SAPE  C31417691   2.237   4.475   8.146  0.2576 -0.8339  0.6635
  158SAPE  H14X17692   2.155   4.428   8.088  1.0094  0.3945 -1.5627
  158SAPE  H14Y17693   2.242   4.578   8.104 -0.6677 -1.4701 -1.1466
  158SAPE  C31517694   2.197   4.491   8.288 -0.4272 -0.0350 -0.4562
  158SAPE  H15X17695   2.287   4.508   8.352 -1.4604  0.8550  0.8254
  158SAPE  H15Y17696   2.143   4.400   8.321 -0.6598  1.0117  2.3648
  158SAPE  C31617697   2.084   4.592   8.316  0.2437 -0.0010  0.3176
  158SAPE  H16X17698   1.993   4.590   8.252  0.6519 -0.8838 -0.2570
  158SAPE  H16Y17699   2.117   4.695   8.290 -1.1457  0.5919  0.8145
  158SAPE  C31717700   2.021   4.590   8.461  0.2600  0.1067 -0.1272
  158SAPE  H17X17701   1.939   4.664   8.455  0.0177 -0.0584  1.0026
  158SAPE  H17Y17702   2.092   4.624   8.539 -1.3327  1.6801  0.6736
  158SAPE  C31817703   1.952   4.455   8.501  0.0128  0.1599 -0.1692
  158SAPE  H18X17704   1.849   4.432   8.464  0.5951  0.1809 -1.8471
  158SAPE  H18Y17705   1.949   4.423   8.608 -2.1962 -2.5065 -0.8788
  158SAPE  H18Z17706   2.004   4.369   8.454  0.8864 -1.4223  3.3650
  159SAPE     N17707   0.711   0.532   6.307 -0.0117 -0.7567 -0.5127
  159SAPE   HN117708   0.721   0.483   6.399  0.7103 -0.9824 -0.7097
  159SAPE   HN217709   0.626   0.498   6.259  0.2629 -2.1883 -0.0270
  159SAPE   HN317710   0.795   0.505   6.253 -1.3979 -1.2864 -2.5015
  159SAPE   C1217711   0.711   0.683   6.328  0.6003 -0.6579 -0.8431
  159SAPE  H12A17712   0.636   0.694   6.409  1.6325 -0.4269  0.1211
  159SAPE  H12B17713   0.667   0.731   6.239 -1.4280  1.0064  0.9572
  159SAPE   C1117714   0.847   0.742   6.361 -0.0465 -0.0461 -0.5585
  159SAPE  H11A17715   0.898   0.686   6.442 -0.8914  1.1312  0.8386
  159SAPE  H11B17716   0.829   0.845   6.399  2.4199  0.7629 -1.3794
  159SAPE     P17717   1.027   0.652   6.198  0.1022 -0.0054 -0.1499
  159SAPE   O1317718   0.966   0.520   6.205  0.4423 -0.2972 -0.5159
  159SAPE   O1417719   1.093   0.685   6.073 -0.5178 -0.1100  0.9030
  159SAPE   O1217720   0.919   0.764   6.236  0.3300  0.0266 -0.2371
  159SAPE   O1117721   1.128   0.669   6.316  0.7042 -0.6093  0.4087
  159SAPE    C117722   1.200   0.548   6.351  0.1735 -0.0506 -0.7424
  159SAPE    HA17723   1.127   0.474   6.390  0.7245 -0.8392 -1.1714
  159SAPE    HB17724   1.250   0.501   6.263 -0.0783  0.6575 -1.2747
  159SAPE    C217725   1.310   0.560   6.458 -0.8597 -0.0343  0.5223
  159SAPE    HS17726   1.357   0.461   6.476  0.1974  0.3369 -0.0784
  159SAPE   O2117727   1.257   0.611   6.584  0.3504 -0.0658  0.1126
  159SAPE   C2117728   1.184   0.519   6.653 -0.6271  0.6722 -0.8211
  159SAPE   O2217729   1.180   0.397   6.630 -0.6680 -0.7546 -0.0152
  159SAPE   C2217730   1.109   0.594   6.755 -0.3187  0.2213  0.5461
  159SAPE   H2R17731   1.075   0.688   6.708 -0.1598  0.6067  1.1902
  159SAPE   H2S17732   1.018   0.533   6.771 -0.7229 -0.1457 -2.5708
  159SAPE    C317733   1.424   0.655   6.415  0.0282 -0.1810 -0.8595
  159SAPE    HX17734   1.380   0.756   6.407  1.1180  0.7272  2.5317
  159SAPE    HY17735   1.465   0.628   6.316 -0.6555 -0.9540 -0.9375
  159SAPE   O3117736   1.527   0.648   6.516  0.3697 -0.1742  0.2328
  159SAPE   C3117737   1.566   0.769   6.563  0.9195 -0.3738 -0.3007
  159SAPE   O3217738   1.534   0.878   6.517 -0.5307 -0.1429 -0.1476
  159SAPE   C3217739   1.652   0.740   6.688 -0.2089  0.2135 -0.5319
  159SAPE   H2X17740   1.760   0.761   6.671  0.7095 -2.7314  0.9901
  159SAPE   H2Y17741   1.641   0.633   6.715 -1.6901  0.3900 -0.3765
  159SAPE   C2317742   1.195   0.623   6.882 -0.5584  0.0464  0.4486
  159SAPE   H3R17743   1.138   0.707   6.927 -0.7742 -0.5389  1.2842
  159SAPE   H3S17744   1.295   0.658   6.846 -0.5781 -0.6333 -0.2894
  159SAPE   C2417745   1.211   0.504   6.981  0.6037  0.0862 -0.0298
  159SAPE   H4R17746   1.285   0.534   7.058 -0.1826  0.2600  0.6709
  159SAPE   H4S17747   1.249   0.417   6.922 -2.6969 -0.3414 -1.8090
  159SAPE   C2517748   1.081   0.463   7.049 -0.2904 -0.3372  0.1088
  159SAPE   H5R17749   1.018   0.549   7.076 -0.4781 -1.1748  2.6636
  159SAPE   C2617750   1.035   0.338   7.063  0.3026 -0.4472  0.2173
  159SAPE   H6R17751   0.936   0.329   7.110 -0.6112  3.6434 -0.5153
  159SAPE   C2717752   1.100   0.213   7.022 -0.4394  0.5303  0.0597
  159SAPE   H7R17753   1.192   0.210   7.083 -0.8978  1.9394  0.8637
  159SAPE   H7S17754   1.125   0.217   6.914  1.5079  0.1321  0.4571
  159SAPE   C2817755   1.009   0.098   7.051 -0.8683  0.5097  0.7803
  159SAPE   H8R17756   0.927   0.091   6.978 -2.7803  3.5176  2.4085
  159SAPE   C2917757   1.006   0.018   7.162  0.4570  0.3788  0.7707
  159SAPE   H9R17758   0.934  -0.065   7.157  1.8277 -0.8237  0.3872
  159SAPE  C21017759   1.088   0.021   7.288 -0.1040 -0.2034 -0.4787
  159SAPE  H10R17760   1.177   0.086   7.274 -1.0013  1.3518  0.7382
  159SAPE  H10S17761   1.138  -0.075   7.316  2.3718  1.1889  0.1802
  159SAPE  C21117762   0.999   0.057   7.412  0.3434 -0.0457  0.3502
  159SAPE  H11R17763   0.909   0.116   7.391  0.0433 -0.9255 -0.9464
  159SAPE  C21217764   1.007   0.015   7.542  0.7585 -0.0989 -0.4040
  159SAPE  H12R17765   0.939   0.060   7.615 -0.1093  0.3319 -1.4424
  159SAPE  C21317766   1.106  -0.070   7.615 -0.9544 -0.2795  0.1132
  159SAPE  H13R17767   1.100  -0.173   7.573 -2.6499 -0.8644  1.6378
  159SAPE  H13S17768   1.062  -0.070   7.717 -0.0453  1.1218  0.5226
  159SAPE  C21417769   1.253  -0.027   7.626 -0.1724  0.3503  0.3308
  159SAPE  H14R17770   1.286   0.071   7.590 -1.7842  1.1444  0.9272
  159SAPE  C21517771   1.345  -0.092   7.707 -0.5534 -0.6582  0.4255
  159SAPE  H15R17772   1.445  -0.047   7.702 -0.3381 -1.2579 -1.2812
  159SAPE  C21617773   1.324  -0.210   7.798  0.6160  0.6542  0.2428
  159SAPE  H16R17774   1.378  -0.296   7.752 -0.1967  0.4013 -0.2650
  159SAPE  H16S17775   1.215  -0.229   7.801  0.5091  1.3675  1.3855
  159SAPE  C21717776   1.358  -0.204   7.950 -1.0629 -0.3656  0.7021
  159SAPE  H17R17777   1.338  -0.311   7.972  0.7816 -1.1978 -1.2306
  159SAPE  H17S17778   1.283  -0.144   8.005 -0.0109  2.2713 -0.6018
  159SAPE  C21817779   1.500  -0.161   7.974 -0.3372 -0.4388  0.6221
  159SAPE  H18R17780   1.515  -0.056   7.942  1.1228 -0.1247  2.1516
  159SAPE  H18S17781   1.571  -0.222   7.914 -0.2501 -0.2429  0.5253
  159SAPE  C21917782   1.557  -0.157   8.119  0.2981  0.0065  0.7181
  159SAPE  H19R17783   1.574  -0.260   8.158 -1.5355 -1.4049 -1.9348
  159SAPE  H19S17784   1.480  -0.104   8.180  1.8669  1.8526  1.1941
  159SAPE  C22017785   1.686  -0.077   8.137 -0.0022 -0.1244 -0.1465
  159SAPE  H20R17786   1.767  -0.105   8.066  0.9742 -0.3718  1.0346
  159SAPE  H20S17787   1.729  -0.079   8.239  2.0206  0.9799 -0.9264
  159SAPE  H20T17788   1.660   0.031   8.132 -0.1462 -0.1411  0.2070
  159SAPE   C3317789   1.608   0.822   6.806  0.2869  0.5595  0.3793
  159SAPE   H3X17790   1.504   0.795   6.834  0.3784  0.0312  0.2305
  159SAPE   H3Y17791   1.610   0.926   6.769  3.4534  0.8152  1.0287
  159SAPE   C3417792   1.700   0.797   6.926 -0.1976  0.0274  0.0841
  159SAPE   H4X17793   1.800   0.846   6.916 -0.3480  0.1441 -0.8846
  159SAPE   H4Y17794   1.707   0.686   6.927  2.3787  0.1132 -0.4776
  159SAPE   C3517795   1.641   0.846   7.056  0.5025 -0.3243 -0.5865
  159SAPE   H5X17796   1.596   0.947   7.044  1.2856  0.1813  0.5945
  159SAPE   H5Y17797   1.713   0.867   7.138 -0.0802  1.0945 -0.4150
  159SAPE   C3617798   1.528   0.754   7.114  0.2447  0.4372  0.1760
  159SAPE   H6X17799   1.554   0.647   7.129 -1.2274  0.2270  1.5199
  159SAPE   H6Y17800   1.442   0.767   7.045 -0.5049 -0.7196  0.8567
  159SAPE   C3717801   1.462   0.808   7.242 -0.6623  0.5028  0.0732
  159SAPE   H7X17802   1.361   0.762   7.243 -0.1077 -0.8325 -1.3483
  159SAPE   H7Y17803   1.445   0.918   7.234 -0.2682  0.4356 -2.4777
  159SAPE   C3817804   1.527   0.760   7.365  0.2748  0.2403  0.1206
  159SAPE   H8X17805   1.624   0.811   7.381  0.2571  0.1832  0.4213
  159SAPE   H8Y17806   1.545   0.651   7.376  1.6942  0.3683 -0.7518
  159SAPE   C3917807   1.445   0.805   7.487  0.2965  0.0761  0.4280
  159SAPE   H9X17808   1.351   0.746   7.488  0.9131 -1.0794 -2.0642
  159SAPE   H9Y17809   1.421   0.913   7.484  1.7461  0.4306  0.5936
  159SAPE  C31017810   1.513   0.771   7.620  0.2155  0.3707  0.1422
  159SAPE  H10X17811   1.605   0.834   7.621  1.5007 -1.3735 -1.0395
  159SAPE  H10Y17812   1.547   0.666   7.626  0.2712  0.4545  2.0857
  159SAPE  C31117813   1.423   0.794   7.742 -0.6418  0.1208 -0.1144
  159SAPE  H11X17814   1.346   0.714   7.747  0.1698 -0.6207  0.7013
  159SAPE  H11Y17815   1.367   0.888   7.719  2.0313  1.2751 -2.5640
  159SAPE  C31217816   1.491   0.803   7.880  0.1806 -0.7051  0.9690
  159SAPE  H12X17817   1.575   0.875   7.863 -0.8514  0.3887  0.3513
  159SAPE  H12Y17818   1.527   0.698   7.889  0.9078 -0.5729 -0.2180
  159SAPE  C31317819   1.403   0.856   7.986 -0.0161  0.1095  0.6686
  159SAPE  H13X17820   1.309   0.799   7.972 -0.4141  1.0291 -0.6647
  159SAPE  H13Y17821   1.383   0.965   7.980 -1.2618 -0.1726 -1.2069
  159SAPE  C31417822   1.459   0.811   8.126 -1.1154  0.3967 -0.2662
  159SAPE  H14X17823   1.495   0.706   8.121  0.9208  0.9500  1.4823
  159SAPE  H14Y17824   1.383   0.819   8.207  0.4417  0.6657  1.2074
  159SAPE  C31517825   1.579   0.900   8.173  0.9966  0.6968 -0.2053
  159SAPE  H15X17826   1.543   1.005   8.173 -0.9594  0.0578  1.0281
  159SAPE  H15Y17827   1.659   0.878   8.098  1.1784 -1.5124  0.5591
  159SAPE  C31617828   1.634   0.862   8.310 -0.0490  0.7388 -0.5441
  159SAPE  H16X17829   1.737   0.901   8.326  0.7329 -0.7024 -1.8099
  159SAPE  H16Y17830   1.634   0.751   8.304  1.0982  0.4771  2.5945
  159SAPE  C31717831   1.544   0.885   8.428 -0.3666  0.4961  0.0337
  159SAPE  H17X17832   1.442   0.846   8.407  0.1679 -0.2042 -1.4169
  159SAPE  H17Y17833   1.533   0.995   8.438 -1.5215  0.5652 -1.5769
  159SAPE  C31817834   1.588   0.830   8.561  0.5240 -0.7303 -1.3639
  159SAPE  H18X17835   1.522   0.867   8.642  2.7760 -0.9001  0.6572
  159SAPE  H18Y17836   1.693   0.859   8.583  0.0006 -0.2991  0.7507
  159SAPE  H18Z17837   1.579   0.720   8.551 -0.7333 -0.7139 -0.6398
  160SAPE     N17838   2.683   5.294   6.574  0.0770 -0.2030  0.0410
  160SAPE   HN117839   2.723   5.274   6.668  2.7290  0.1092 -0.9459
  160SAPE   HN217840   2.688   5.203   6.523 -0.7252  0.1165 -0.6309
  160SAPE   HN317841   2.752   5.355   6.526 -1.7568  1.2349 -0.9055
  160SAPE   C1217842   2.542   5.342   6.597 -0.3356  0.3576  0.3983
  160SAPE  H12A17843   2.483   5.263   6.648 -0.9242  0.8211  0.4405
  160SAPE  H12B17844   2.510   5.384   6.499  0.1929  0.2163  0.1611
  160SAPE   C1117845   2.544   5.476   6.681 -0.5658  0.6598  0.2378
  160SAPE  H11A17846   2.580   5.456   6.785 -1.5424  0.8662  0.6279
  160SAPE  H11B17847   2.437   5.501   6.695 -0.6346  0.2628  0.4399
  160SAPE     P17848   2.576   5.708   6.555 -0.2011 -0.3394 -0.2809
  160SAPE   O1317849   2.685   5.787   6.489  0.6260  0.3214 -0.0706
  160SAPE   O1417850   2.460   5.679   6.468 -0.1479 -0.5978  0.2846
  160SAPE   O1217851   2.629   5.570   6.622 -0.0378  0.0217 -0.1470
  160SAPE   O1117852   2.522   5.799   6.671 -0.6837 -0.2129  0.5639
  160SAPE    C117853   2.581   5.803   6.805 -0.4532  0.7040  0.9642
  160SAPE    HA17854   2.686   5.767   6.813 -0.2957  1.2161  1.2687
  160SAPE    HB17855   2.598   5.912   6.823  1.1953  0.6577 -0.0550
  160SAPE    C217856   2.495   5.741   6.916 -0.6321  0.6482  0.3874
  160SAPE    HS17857   2.500   5.636   6.882 -0.1874  0.6002  0.5906
  160SAPE   O2117858   2.362   5.796   6.918  0.3171 -0.0789 -0.2175
  160SAPE   C2117859   2.259   5.711   6.919  0.1823 -0.8020  0.2952
  160SAPE   O2217860   2.267   5.591   6.947  0.5200 -0.0092 -0.0475
  160SAPE   C2217861   2.129   5.786   6.890 -0.6455  0.7141  0.2335
  160SAPE   H2R17862   2.147   5.892   6.918  2.5708  0.8076 -1.6752
  160SAPE   H2S17863   2.106   5.794   6.781 -0.6116  2.1409  0.3091
  160SAPE    C317864   2.562   5.754   7.056  0.0268  0.4870  0.1961
  160SAPE    HX17865   2.557   5.864   7.071  0.0952  0.6000 -0.5586
  160SAPE    HY17866   2.670   5.727   7.049  0.0930  1.1578 -1.9488
  160SAPE   O3117867   2.493   5.686   7.160 -0.0527 -0.5301 -0.3976
  160SAPE   C3117868   2.519   5.558   7.183 -0.4978  0.8613 -0.6512
  160SAPE   O3217869   2.604   5.486   7.133  0.6706 -0.0017 -0.2876
  160SAPE   C3217870   2.410   5.512   7.284  0.4145 -0.9974  0.0770
  160SAPE   H2X17871   2.403   5.401   7.296  0.2431 -0.8025  2.3153
  160SAPE   H2Y17872   2.315   5.550   7.242  0.8474 -1.0283 -0.9477
  160SAPE   C2317873   2.011   5.734   6.980  0.5912  0.2801  0.5125
  160SAPE   H3R17874   2.023   5.627   7.005  1.8590  0.1183 -0.6390
  160SAPE   H3S17875   1.914   5.740   6.925 -0.3458  0.9683  2.1600
  160SAPE   C2417876   2.003   5.812   7.114 -0.2122 -0.5288 -0.2324
  160SAPE   H4R17877   2.038   5.915   7.090  0.0243 -0.8674 -1.4355
  160SAPE   H4S17878   2.077   5.763   7.181 -1.7446 -0.1274  1.8527
  160SAPE   C2517879   1.870   5.793   7.181 -0.2231 -0.1478 -0.1872
  160SAPE   H5R17880   1.784   5.820   7.117  0.2263  2.3133  0.1164
  160SAPE   C2617881   1.839   5.726   7.299  0.1365 -0.1679 -1.0682
  160SAPE   H6R17882   1.734   5.707   7.329  0.3936 -1.7458 -1.0812
  160SAPE   C2717883   1.949   5.660   7.378  0.2071  0.0606 -0.0726
  160SAPE   H7R17884   2.033   5.629   7.312  0.1359 -0.1401 -0.0676
  160SAPE   H7S17885   1.901   5.568   7.418  0.8765 -0.1363  0.2912
  160SAPE   C2817886   1.996   5.764   7.485  0.4664  0.3198 -0.2318
  160SAPE   H8R17887   1.989   5.870   7.457  0.7650 -0.1406 -2.2700
  160SAPE   C2917888   2.053   5.724   7.601  0.2102  0.0508  0.2713
  160SAPE   H9R17889   2.076   5.793   7.683  0.5967 -2.1130  2.0846
  160SAPE  C21017890   2.087   5.581   7.641 -0.6958  0.5266  0.5434
  160SAPE  H10R17891   2.181   5.564   7.697 -0.2649 -1.4324 -0.6742
  160SAPE  H10S17892   2.122   5.522   7.553 -2.1880 -0.5862  0.6649
  160SAPE  C21117893   1.972   5.511   7.711 -0.1229  0.2695  0.1413
  160SAPE  H11R17894   1.870   5.544   7.683 -0.3416 -0.7872 -0.3468
  160SAPE  C21217895   1.980   5.440   7.825 -0.3223  0.1930 -0.1801
  160SAPE  H12R17896   1.890   5.388   7.861  0.1098  0.0595  0.7474
  160SAPE  C21317897   2.105   5.396   7.907  0.6101 -0.1625  0.3239
  160SAPE  H13R17898   2.187   5.355   7.843 -0.4965 -1.6633 -0.2023
  160SAPE  H13S17899   2.083   5.298   7.954  0.3626 -0.0028  0.5416
  160SAPE  C21417900   2.142   5.508   8.002  0.3892  0.8833 -0.2608
  160SAPE  H14R17901   2.151   5.609   7.959  1.3262  0.3335 -1.4196
  160SAPE  C21517902   2.171   5.486   8.133 -0.1710 -1.2034  0.2477
  160SAPE  H15R17903   2.202   5.576   8.187 -0.9106 -1.6909  1.5328
  160SAPE  C21617904   2.158   5.372   8.225 -0.3604  0.3870 -0.0626
  160SAPE  H16R17905   2.167   5.279   8.165 -0.5369  0.0968  0.3552
  160SAPE  H16S17906   2.059   5.381   8.276  0.0409  1.0367  0.6247
  160SAPE  C21717907   2.260   5.371   8.340 -0.1551  0.1142  0.0813
  160SAPE  H17R17908   2.205   5.380   8.436  0.8548  0.2486  0.6570
  160SAPE  H17S17909   2.345   5.442   8.325 -0.7522  0.8177 -0.0628
  160SAPE  C21817910   2.333   5.234   8.343 -0.3278  0.0065 -0.4788
  160SAPE  H18R17911   2.408   5.227   8.261  0.4285 -4.0183  0.3434
  160SAPE  H18S17912   2.253   5.158   8.335 -1.4264  0.9337  1.1974
  160SAPE  C21917913   2.405   5.221   8.478 -0.2731  0.7061 -0.2994
  160SAPE  H19R17914   2.453   5.121   8.483 -0.1947  0.6227 -2.0619
  160SAPE  H19S17915   2.324   5.214   8.554  0.2935  1.2856  0.3689
  160SAPE  C22017916   2.505   5.334   8.507  0.1712  0.2531 -0.1709
  160SAPE  H20R17917   2.478   5.439   8.480 -0.1634  0.3315  0.4437
  160SAPE  H20S17918   2.600   5.324   8.450  2.7863  1.0988  3.6190
  160SAPE  H20T17919   2.532   5.329   8.615 -1.8169 -0.8151  0.3326
  160SAPE   C3317920   2.437   5.572   7.428 -0.4319 -0.5559  0.5733
  160SAPE   H3X17921   2.349   5.550   7.493  1.6379  0.7868  4.1691
  160SAPE   H3Y17922   2.451   5.682   7.415 -1.5003 -0.4746  0.0121
  160SAPE   C3417923   2.553   5.510   7.507  0.5518 -0.3807 -0.2545
  160SAPE   H4X17924   2.643   5.541   7.450 -0.0989  2.1769 -0.0007
  160SAPE   H4Y17925   2.549   5.399   7.505  1.1698 -0.4217 -2.7126
  160SAPE   C3517926   2.557   5.561   7.652  0.0929  0.0353 -0.3916
  160SAPE   H5X17927   2.517   5.664   7.664 -0.0243  0.0799 -1.1076
  160SAPE   H5Y17928   2.656   5.560   7.703 -0.7262  0.6050  1.3062
  160SAPE   C3617929   2.482   5.460   7.743  0.7483  0.8067 -0.1338
  160SAPE   H6X17930   2.498   5.352   7.719 -2.5608 -0.4739  2.6447
  160SAPE   H6Y17931   2.373   5.478   7.750  0.9419  1.6215  1.3010
  160SAPE   C3717932   2.533   5.447   7.885 -0.3884 -1.0779 -0.4735
  160SAPE   H7X17933   2.643   5.429   7.890 -0.3421 -1.3776 -1.9727
  160SAPE   H7Y17934   2.486   5.368   7.947  0.6545 -0.9179  0.5635
  160SAPE   C3817935   2.502   5.575   7.957  0.2473 -0.2202 -0.0519
  160SAPE   H8X17936   2.398   5.609   7.937  0.3361  0.7102  0.9488
  160SAPE   H8Y17937   2.571   5.654   7.919 -1.8073 -0.0355 -3.8957
  160SAPE   C3917938   2.542   5.565   8.106  1.1257  0.3008 -0.0271
  160SAPE   H9X17939   2.650   5.541   8.118  0.3857 -1.9903  3.2416
  160SAPE   H9Y17940   2.490   5.479   8.153  0.8826 -0.5167 -1.7348
  160SAPE  C31017941   2.514   5.698   8.179 -0.5526  0.4059 -0.5203
  160SAPE  H10X17942   2.408   5.726   8.164 -0.8260 -1.1295 -1.7097
  160SAPE  H10Y17943   2.573   5.779   8.131 -2.9903  2.9528  0.5239
  160SAPE  C31117944   2.553   5.687   8.328  0.4961 -0.2941 -0.2938
  160SAPE  H11X17945   2.661   5.675   8.349  0.7160 -0.7739 -1.5919
  160SAPE  H11Y17946   2.513   5.588   8.360  1.7224 -0.1416  1.9173
  160SAPE  C31217947   2.503   5.798   8.416  0.4960  0.0452 -0.1886
  160SAPE  H12X17948   2.393   5.808   8.407  0.5222 -0.8280 -1.8414
  160SAPE  H12Y17949   2.558   5.887   8.378  0.9116 -0.8767 -1.8416
  160SAPE  C31317950   2.527   5.772   8.567  0.2221 -0.1053  0.0885
  160SAPE  H13X17951   2.637   5.762   8.579  0.3779 -0.0101 -1.1314
  160SAPE  H13Y17952   2.491   5.668   8.578 -0.4934  0.0407 -0.7133
  160SAPE  C31417953   2.454   5.864   8.663 -0.0666 -0.2711  0.1483
  160SAPE  H14X17954   2.365   5.906   8.611  1.5572  0.9479 -1.8117
  160SAPE  H14Y17955   2.511   5.958   8.683 -1.6056  0.0658  3.6584
  160SAPE  C31517956   2.415   5.809   8.800 -0.0703 -0.4590  0.1100
  160SAPE  H15X17957   2.503   5.806   8.868 -1.7281  0.9780  2.4771
  160SAPE  H15Y17958   2.377   5.704   8.794  1.2049 -1.1197  2.2960
  160SAPE  C31617959   2.311   5.896   8.870 -0.2081  0.4843  0.1838
  160SAPE  H16X17960   2.233   5.912   8.793  0.9902  0.3892 -1.0814
  160SAPE  H16Y17961   2.357   5.994   8.891 -0.0042  0.2654  0.7907
  160SAPE  C31717962   2.241   5.827   8.992  0.4636  0.8805  0.4454
  160SAPE  H17X17963   2.207   5.723   8.968 -0.5486  1.3485 -0.2529
  160SAPE  H17Y17964   2.157   5.895   9.018  1.6596  2.3709  0.5382
  160SAPE  C31817965   2.337   5.824   9.119  0.0609  0.6098 -0.0633
  160SAPE  H18X17966   2.432   5.783   9.078 -0.6068  0.2296 -1.2924
  160SAPE  H18Y17967   2.292   5.761   9.198  2.1415 -1.5620 -0.4802
  160SAPE  H18Z17968   2.351   5.928   9.154  1.6266  0.6019 -0.5616
  161SOPE     N17969   5.957   1.077  10.867 -0.0409 -0.3249 -0.1105
  161SOPE   HN117970   5.909   1.107  10.780 -0.0029 -0.3257 -0.1317
  161SOPE   HN217971   6.017   0.995  10.845  0.0062 -0.5431  0.7762
  161SOPE   HN317972   5.876   1.041  10.921  0.8148  0.2178  1.6268
  161SOPE   C1217973   6.036   1.179  10.945  0.2971 -0.2392  0.1580
  161SOPE  H12A17974   6.058   1.134  11.044 -1.6019 -1.5199  0.0633
  161SOPE  H12B17975   5.983   1.275  10.965 -0.0947 -0.3564 -0.3098
  161SOPE   C1117976   6.166   1.224  10.869  0.3770 -0.1016 -0.4258
  161SOPE  H11A17977   6.225   1.281  10.945 -1.9835  0.6365  0.9500
  161SOPE  H11B17978   6.134   1.301  10.796 -1.6165  0.9644  1.4277
  161SOPE     P17979   6.353   1.133  10.702  0.1208  0.0808 -0.3572
  161SOPE   O1317980   6.391   0.999  10.644 -0.1693 -0.6112 -0.1536
  161SOPE   O1417981   6.466   1.212  10.761 -0.0691 -0.1839  0.1552
  161SOPE   O1217982   6.233   1.110  10.810 -0.0161  0.2090  0.3481
  161SOPE   O1117983   6.290   1.221  10.588  0.3850  0.5676 -0.0049
  161SOPE    C117984   6.153   1.214  10.554  0.5176  0.0055 -0.2662
  161SOPE    HA17985   6.105   1.305  10.596 -0.6557 -1.0386  0.7513
  161SOPE    HB17986   6.103   1.124  10.596 -2.9819  1.1614 -1.6441
  161SOPE    C217987   6.123   1.215  10.403 -0.6206  0.0901  0.6533
  161SOPE    HS17988   6.016   1.203  10.374 -0.5271  0.9134 -0.0828
  161SOPE   O2117989   6.204   1.125  10.327  0.3453 -0.3000 -0.6622
  161SOPE   C2117990   6.173   1.001  10.349 -0.3349  0.3523 -0.5446
  161SOPE   O2217991   6.078   0.953  10.410  0.0907  0.2329  0.6954
  161SOPE   C2217992   6.279   0.913  10.268 -0.4474  0.5278  0.0797
  161SOPE   H2R17993   6.328   0.846  10.341  1.5142  0.8340 -0.8779
  161SOPE   H2S17994   6.362   0.984  10.247 -0.3377  0.8916  1.6027
  161SOPE    C317995   6.159   1.356  10.344 -0.1607  0.3102 -0.0991
  161SOPE    HX17996   6.252   1.400  10.386 -0.0137  0.2130 -0.3183
  161SOPE    HY17997   6.083   1.415  10.399 -0.7831 -1.1891  0.7264
  161SOPE   O3117998   6.152   1.369  10.199  0.3561 -0.0117 -0.3781
  161SOPE   C3117999   6.263   1.404  10.141  0.1058 -0.2970 -0.6447
  161SOPE   O3218000   6.372   1.426  10.197 -0.1056 -0.2060 -0.0921
  161SOPE   C3218001   6.244   1.379   9.992  0.1051  0.8587  0.0203
  161SOPE   H2X18002   6.140   1.391   9.955  0.6248 -1.7955 -2.6804
  161SOPE   H2Y18003   6.260   1.269   9.981  2.6103  0.9088  2.1375
  161SOPE   C2318004   6.218   0.844  10.145 -0.4827 -0.5902 -0.1701
  161SOPE   H3R18005   6.133   0.778  10.171 -1.5639  0.7473 -0.2051
  161SOPE   H3S18006   6.302   0.783  10.107  1.6729  1.5874  0.7912
  161SOPE   C2418007   6.180   0.942  10.033  0.7451 -0.4661  0.2702
  161SOPE   H4R18008   6.117   1.020  10.081 -1.7528 -0.9055 -2.0622
  161SOPE   H4S18009   6.269   0.984   9.982 -0.2738 -0.9165 -1.9910
  161SOPE   C2518010   6.093   0.881   9.926  0.2262  0.1538  0.0731
  161SOPE   H5R18011   6.149   0.814   9.858  1.6060  1.0738  0.2770
  161SOPE   H5S18012   6.021   0.809   9.972  2.0419 -2.6478 -1.2215
  161SOPE   C2618013   6.005   0.995   9.865 -0.5395 -0.0045  0.4534
  161SOPE   H6R18014   5.947   1.048   9.944 -0.1808 -0.0135  0.7267
  161SOPE   H6S18015   6.069   1.075   9.820 -0.0338 -0.9476 -0.5460
  161SOPE   C2718016   5.902   0.942   9.760 -0.1156 -0.4633 -0.7667
  161SOPE   H7R18017   5.949   0.889   9.675 -0.1688  0.7753 -1.5828
  161SOPE   H7S18018   5.842   0.858   9.803  1.1254  0.0391  2.2178
  161SOPE   C2818019   5.804   1.051   9.709 -0.5872  0.1762  0.4844
  161SOPE   H8R18020   5.732   1.007   9.636  0.2936 -0.7159  0.1196
  161SOPE   H8S18021   5.744   1.095   9.791  0.1285  2.4081 -0.1280
  161SOPE   C2918022   5.904   1.153   9.651  0.3183 -0.1233  0.1966
  161SOPE   H9118023   5.976   1.207   9.715  1.1877  2.2516 -2.5670
  161SOPE  C21018024   5.927   1.180   9.517  0.3161  1.1207  0.7249
  161SOPE  H10118025   6.009   1.244   9.483 -0.4981  1.2015 -1.2734
  161SOPE  C21118026   5.843   1.132   9.407  0.7150 -0.8600  0.2181
  161SOPE  H11R18027   5.816   1.224   9.350  3.2902 -0.0989  0.0730
  161SOPE  H11S18028   5.750   1.079   9.433  0.5497  0.1172  1.7669
  161SOPE  C21218029   5.923   1.049   9.311  0.6338  0.1704 -0.5371
  161SOPE  H12R18030   5.964   0.964   9.368  0.7433  1.5606  1.5874
  161SOPE  H12S18031   6.007   1.108   9.268  1.7923 -0.1127  1.2584
  161SOPE  C21318032   5.822   1.002   9.202  0.6855 -0.2351  0.0914
  161SOPE  H13R18033   5.727   0.964   9.243  0.5474  2.2535  2.3103
  161SOPE  H13S18034   5.871   0.917   9.148  0.5223  0.9880 -2.0920
  161SOPE  C21418035   5.785   1.113   9.103  0.0404 -0.4434 -0.0799
  161SOPE  H14R18036   5.877   1.163   9.069  0.5379 -1.4062 -0.1866
  161SOPE  H14S18037   5.718   1.182   9.158 -0.7001 -1.0815 -0.1602
  161SOPE  C21518038   5.713   1.059   8.980 -0.7902  0.5579 -0.5969
  161SOPE  H15R18039   5.605   1.041   9.002 -0.6138 -1.4736 -1.1461
  161SOPE  H15S18040   5.760   0.962   8.952 -1.1953  0.8077 -2.2070
  161SOPE  C21618041   5.735   1.171   8.868  0.4149 -0.2306 -0.2789
  161SOPE  H16R18042   5.750   1.267   8.923 -0.0860 -0.8939  1.0600
  161SOPE  H16S18043   5.647   1.176   8.800 -1.9832 -1.6446  2.4795
  161SOPE  C21718044   5.855   1.156   8.768 -0.1529 -0.5890  0.1088
  161SOPE  H17R18045   5.832   1.071   8.701  1.9526 -2.1941  1.2841
  161SOPE  H17S18046   5.953   1.138   8.818 -0.6677  0.5387  1.5973
  161SOPE  C21818047   5.867   1.277   8.675 -0.1056  0.0570 -0.6127
  161SOPE  H18R18048   5.768   1.321   8.650 -0.4662  0.1609  0.8604
  161SOPE  H18S18049   5.930   1.255   8.587 -0.1196  1.1129 -0.9096
  161SOPE  H18T18050   5.914   1.362   8.730  1.3587  1.0263 -3.1705
  161SOPE   C3318051   6.349   1.456   9.911  0.1463  0.0877  0.2784
  161SOPE   H3X18052   6.448   1.436   9.957  0.9028 -0.7263 -1.5849
  161SOPE   H3Y18053   6.321   1.563   9.918 -2.4781 -0.4263 -1.0657
  161SOPE   C3418054   6.348   1.412   9.761  0.2838  0.5838 -0.2649
  161SOPE   H4X18055   6.364   1.302   9.755 -1.4493  0.0237  3.0062
  161SOPE   H4Y18056   6.427   1.462   9.702  0.7206  0.1373 -0.0608
  161SOPE   C3518057   6.218   1.453   9.683 -0.4823  0.2537 -0.2482
  161SOPE   H5X18058   6.213   1.564   9.692  2.5355  0.4017  0.5738
  161SOPE   H5Y18059   6.122   1.421   9.729 -0.2690  1.1872  0.8845
  161SOPE   C3618060   6.220   1.433   9.531  0.0063  0.0399 -0.5155
  161SOPE   H6X18061   6.193   1.326   9.522 -1.4633  0.4863 -1.6912
  161SOPE   H6Y18062   6.328   1.448   9.508  0.4179  1.7952  2.0547
  161SOPE   C3718063   6.145   1.528   9.441  0.6633  0.1433 -0.3569
  161SOPE   H7X18064   6.182   1.633   9.451 -2.1816  1.2463 -0.4600
  161SOPE   H7Y18065   6.038   1.521   9.467 -0.3015 -2.6604 -4.2515
  161SOPE   C3818066   6.152   1.482   9.294 -0.2624 -0.2808 -0.8505
  161SOPE   H8X18067   6.096   1.386   9.296 -0.6083 -0.0755 -0.3783
  161SOPE   H8Y18068   6.259   1.466   9.266 -0.4312 -2.5426 -0.3511
  161SOPE   C3918069   6.084   1.579   9.196 -0.3242  0.0647 -0.1687
  161SOPE   H9X18070   6.132   1.678   9.211 -0.4702  0.2525 -0.8781
  161SOPE   H9Y18071   5.974   1.588   9.206 -0.3293 -0.1410 -0.0302
  161SOPE  C31018072   6.116   1.541   9.051 -0.6278  0.7697  0.7077
  161SOPE  H10X18073   6.086   1.436   9.032 -0.3459  0.6548  0.8955
  161SOPE  H10Y18074   6.225   1.537   9.030 -1.2503 -0.9116 -3.2422
  161SOPE  C31118075   6.053   1.634   8.949 -0.3481  0.0053 -0.0436
  161SOPE  H11X18076   6.079   1.739   8.970 -2.1775  0.5979 -0.5519
  161SOPE  H11Y18077   5.944   1.624   8.965 -0.2649 -1.9259 -0.4164
  161SOPE  C31218078   6.098   1.592   8.805 -0.7948  0.4466 -0.6189
  161SOPE  H12X18079   6.040   1.504   8.770 -3.1606  2.1107 -1.1392
  161SOPE  H12Y18080   6.207   1.571   8.818 -1.3717 -0.5783  4.5707
  161SOPE  C31318081   6.077   1.706   8.702 -0.1834  0.3305 -0.1085
  161SOPE  H13X18082   6.132   1.796   8.738  0.9179  0.1779 -1.3077
  161SOPE  H13Y18083   5.966   1.716   8.704 -0.5027 -2.4781  0.4992
  161SOPE  C31418084   6.115   1.685   8.551  0.1177  0.1706  0.2221
  161SOPE  H14X18085   6.098   1.577   8.527  2.2963 -0.1217 -0.2398
  161SOPE  H14Y18086   6.222   1.712   8.533 -0.5967  1.2670 -3.2643
  161SOPE  C31518087   6.023   1.759   8.457  0.2556 -0.2792  0.3704
  161SOPE  H15X18088   6.060   1.862   8.438  0.2896 -0.5545 -1.2410
  161SOPE  H15Y18089   5.921   1.770   8.498  0.3364  1.0074  0.2802
  161SOPE  C31618090   6.002   1.691   8.317 -0.0345  0.0899 -0.2324
  161SOPE  H16X18091   5.937   1.754   8.252 -1.8224  0.2260  1.5914
  161SOPE  H16Y18092   5.958   1.589   8.328 -0.6207  0.2778 -0.7793
  161SOPE  C31718093   6.123   1.680   8.227 -0.7130  0.1362  1.1363
  161SOPE  H17X18094   6.184   1.595   8.263 -0.1678  0.4028  0.8590
  161SOPE  H17Y18095   6.172   1.780   8.235 -3.7000  1.8360  0.1049
  161SOPE  C31818096   6.091   1.643   8.083 -0.1303 -0.4547  0.3775
  161SOPE  H18X18097   6.027   1.552   8.078 -1.7937  0.6754  0.0516
  161SOPE  H18Y18098   6.181   1.630   8.019 -0.0513 -0.0546  0.4054
  161SOPE  H18Z18099   6.020   1.716   8.039 -2.2817 -1.3584  2.1694
  162SOPE     N18100   4.660   6.556  11.203  0.3416 -0.0450 -0.6793
  162SOPE   HN118101   4.572   6.517  11.242  1.0083 -0.5142  0.3981
  162SOPE   HN218102   4.748   6.505  11.224  0.9584  0.9581 -0.7641
  162SOPE   HN318103   4.673   6.652  11.239 -1.0546 -0.2994  0.5916
  162SOPE   C1218104   4.651   6.551  11.055 -0.5108 -0.0636 -0.4730
  162SOPE  H12A18105   4.551   6.586  11.021 -1.1369 -2.7746 -1.6602
  162SOPE  H12B18106   4.677   6.449  11.020 -1.3220 -0.4773  0.0968
  162SOPE   C1118107   4.754   6.659  11.010  0.5355  0.2985  0.7800
  162SOPE  H11A18108   4.719   6.756  11.051  0.3038  0.5747 -0.0537
  162SOPE  H11B18109   4.744   6.677  10.901  1.8666  0.2298  0.6221
  162SOPE     P18110   4.980   6.531  10.980 -0.0759 -0.5601  0.0627
  162SOPE   O1318111   4.935   6.397  11.022 -0.2439  0.0184  0.1043
  162SOPE   O1418112   5.122   6.563  11.012 -0.9855  0.9447  0.1695
  162SOPE   O1218113   4.891   6.636  11.058 -0.2692  0.5788  0.3146
  162SOPE   O1118114   4.937   6.547  10.825 -0.0588 -0.4982  0.1215
  162SOPE    C118115   4.855   6.453  10.755  0.9390 -0.4185  0.0197
  162SOPE    HA18116   4.752   6.453  10.798  1.5333 -3.0828  1.6943
  162SOPE    HB18117   4.890   6.348  10.763  2.7582  0.1534 -0.1787
  162SOPE    C218118   4.840   6.482  10.604 -0.1610  0.0955  0.1119
  162SOPE    HS18119   4.787   6.398  10.555 -1.5942  0.7025  0.5682
  162SOPE   O2118120   4.967   6.512  10.541  0.2924 -0.0163  0.1805
  162SOPE   C2118121   5.061   6.418  10.544 -0.1629 -0.0381  0.5137
  162SOPE   O2218122   5.055   6.307  10.594  0.4917  0.1550 -0.2041
  162SOPE   C2218123   5.181   6.464  10.461 -0.5703 -0.0352  0.5092
  162SOPE   H2R18124   5.265   6.483  10.532 -0.7159  1.6393  0.2859
  162SOPE   H2S18125   5.155   6.559  10.408 -1.3235 -0.3162  0.3617
  162SOPE    C318126   4.750   6.610  10.587 -0.2369 -0.0807  0.1846
  162SOPE    HX18127   4.807   6.701  10.614  0.0035  0.2679 -1.4093
  162SOPE    HY18128   4.670   6.601  10.664  0.0937  1.8334  0.8058
  162SOPE   O3118129   4.696   6.614  10.452 -0.3608  0.6405 -0.4937
  162SOPE   C3118130   4.577   6.552  10.444  0.2801 -0.4309  0.6217
  162SOPE   O3218131   4.524   6.479  10.524  0.2671  0.2001 -0.2231
  162SOPE   C3218132   4.521   6.566  10.307 -0.3783 -0.4790  0.4611
  162SOPE   H2X18133   4.549   6.663  10.260 -3.9098 -0.9135 -3.1402
  162SOPE   H2Y18134   4.410   6.575  10.301 -0.3444  0.4794  1.1080
  162SOPE   C2318135   5.238   6.351  10.362 -0.2023  0.0787 -0.5588
  162SOPE   H3R18136   5.241   6.253  10.413  2.2522 -0.5215 -1.7203
  162SOPE   H3S18137   5.338   6.388  10.331  0.3657  1.2875  2.3581
  162SOPE   C2418138   5.150   6.334  10.240 -0.1542 -0.1733 -0.0930
  162SOPE   H4R18139   5.064   6.265  10.256  0.6736 -1.3587 -0.5917
  162SOPE   H4S18140   5.106   6.431  10.208 -1.6174 -0.9428 -0.5061
  162SOPE   C2518141   5.225   6.273  10.122 -0.5778 -0.7818 -0.2108
  162SOPE   H5R18142   5.316   6.332  10.097 -1.0436 -0.4240 -1.1150
  162SOPE   H5S18143   5.276   6.179  10.153  2.5742 -0.7993 -4.4762
  162SOPE   C2618144   5.146   6.238   9.999 -0.6112 -0.4295 -0.1521
  162SOPE   H6R18145   5.082   6.147  10.010  0.3677 -0.9915  1.0600
  162SOPE   H6S18146   5.079   6.324   9.974  0.3021 -0.1079 -1.6078
  162SOPE   C2718147   5.229   6.221   9.864 -0.0814 -0.2938 -0.5539
  162SOPE   H7R18148   5.302   6.305   9.870  0.1436 -0.5950  2.6688
  162SOPE   H7S18149   5.286   6.126   9.869  1.5924  0.7383  1.7777
  162SOPE   C2818150   5.142   6.234   9.736  0.2141 -0.2349  0.0239
  162SOPE   H8R18151   5.076   6.320   9.759  0.2602 -0.0037 -0.7026
  162SOPE   H8S18152   5.210   6.262   9.654 -0.2222  2.2542  0.4435
  162SOPE   C2918153   5.059   6.108   9.722  0.2152 -0.8801 -0.4307
  162SOPE   H9118154   4.988   6.095   9.805  2.7113 -1.4302  1.7538
  162SOPE  C21018155   5.063   6.024   9.616  0.1158 -0.6364 -0.8146
  162SOPE  H10118156   4.987   5.945   9.613 -0.9848  0.1669  2.0296
  162SOPE  C21118157   5.159   6.042   9.499 -0.9282 -0.0516 -0.5543
  162SOPE  H11R18158   5.206   5.943   9.482 -3.0842 -1.5033  1.2857
  162SOPE  H11S18159   5.244   6.110   9.517  0.2235 -1.9786  2.0072
  162SOPE  C21218160   5.090   6.099   9.378  0.1719 -0.2146  0.1441
  162SOPE  H12R18161   5.006   6.031   9.349 -0.5425  0.6747  0.0852
  162SOPE  H12S18162   5.155   6.107   9.289 -0.7021 -0.0378 -0.4878
  162SOPE  C21318163   5.035   6.235   9.403  0.1840 -0.2110  0.5254
  162SOPE  H13R18164   5.126   6.296   9.422 -0.3476  0.6739  0.2876
  162SOPE  H13S18165   4.979   6.240   9.499 -0.3793 -0.2854  0.2030
  162SOPE  C21418166   4.966   6.298   9.281 -0.3885 -0.0274 -0.1434
  162SOPE  H14R18167   4.881   6.242   9.237  0.7054  1.1222 -4.1161
  162SOPE  H14S18168   5.040   6.305   9.198  0.2869  1.2538  0.5323
  162SOPE  C21518169   4.910   6.441   9.306  0.0542 -0.5726 -0.0859
  162SOPE  H15R18170   4.971   6.499   9.379 -1.3474  1.4652 -0.4725
  162SOPE  H15S18171   4.809   6.436   9.352  0.0842  0.3935  0.0983
  162SOPE  C21618172   4.928   6.527   9.177  0.0617  0.3354  0.4257
  162SOPE  H16R18173   4.924   6.465   9.085  1.7886  0.7221  0.0482
  162SOPE  H16S18174   5.034   6.561   9.179  0.4141 -0.6130 -0.6486
  162SOPE  C21718175   4.842   6.654   9.186  0.0007  0.5531 -1.2442
  162SOPE  H17R18176   4.882   6.724   9.262 -1.1860 -1.9817  1.9742
  162SOPE  H17S18177   4.739   6.634   9.222  0.6739 -1.2230 -0.1295
  162SOPE  C21818178   4.829   6.716   9.050 -0.1147  0.1085 -0.2125
  162SOPE  H18R18179   4.925   6.728   8.995 -0.8349  0.6009 -1.4149
  162SOPE  H18S18180   4.798   6.822   9.062  0.7632  0.3908 -0.3605
  162SOPE  H18T18181   4.764   6.654   8.985  0.4483  1.0524 -1.7334
  162SOPE   C3318182   4.558   6.449  10.216 -0.7415 -0.5195 -0.4326
  162SOPE   H3X18183   4.499   6.468  10.123 -0.8057 -1.3390 -0.5637
  162SOPE   H3Y18184   4.513   6.351  10.242 -0.6655 -1.2129 -2.6679
  162SOPE   C3418185   4.706   6.446  10.178 -0.2001  0.5088 -0.0436
  162SOPE   H4X18186   4.776   6.449  10.264 -1.4179 -0.5025  1.0224
  162SOPE   H4Y18187   4.727   6.540  10.123 -3.8414  1.3788 -0.1737
  162SOPE   C3518188   4.737   6.337  10.079  0.5086  0.2521 -0.1536
  162SOPE   H5X18189   4.713   6.238  10.124  1.4638  0.1463  0.1575
  162SOPE   H5Y18190   4.844   6.329  10.050  0.3101  1.3476 -1.2618
  162SOPE   C3618191   4.652   6.352   9.954  0.5392  0.1605  0.5877
  162SOPE   H6X18192   4.642   6.456   9.917  1.3399  0.5432  1.4229
  162SOPE   H6Y18193   4.550   6.322   9.986 -0.9317  2.0796 -1.9728
  162SOPE   C3718194   4.708   6.253   9.853 -0.1652  0.2793  0.9211
  162SOPE   H7X18195   4.726   6.151   9.892  0.4469 -1.6292 -3.6975
  162SOPE   H7Y18196   4.806   6.296   9.822  0.6506 -0.8514  1.8552
  162SOPE   C3818197   4.613   6.233   9.733 -0.1581  0.4904 -0.1541
  162SOPE   H8X18198   4.593   6.333   9.689  0.3613  0.8732  0.4667
  162SOPE   H8Y18199   4.517   6.189   9.768 -0.2937  0.8739 -0.0436
  162SOPE   C3918200   4.688   6.148   9.625  0.5251 -0.3770  1.0160
  162SOPE   H9X18201   4.695   6.043   9.660  0.2846 -0.2467  1.4660
  162SOPE   H9Y18202   4.792   6.186   9.625  0.7944 -1.1051  0.5835
  162SOPE  C31018203   4.628   6.176   9.487 -0.3458  0.8837 -0.5102
  162SOPE  H10X18204   4.691   6.105   9.428  3.4450  2.0644  1.7838
  162SOPE  H10Y18205   4.659   6.280   9.466  2.8702 -0.0406 -0.8632
  162SOPE  C31118206   4.479   6.161   9.477  0.5817  0.6769  0.4235
  162SOPE  H11X18207   4.420   6.208   9.558 -1.8478 -0.2376 -0.7299
  162SOPE  H11Y18208   4.453   6.056   9.502 -0.9287  0.4472 -1.8022
  162SOPE  C31218209   4.416   6.216   9.349  0.3924  0.1447  0.2068
  162SOPE  H12X18210   4.461   6.318   9.357 -0.7517  0.6313  0.5587
  162SOPE  H12Y18211   4.306   6.229   9.348  0.3717  0.4375 -2.9986
  162SOPE  C31318212   4.465   6.158   9.215 -0.0756  0.8201 -0.1535
  162SOPE  H13X18213   4.424   6.057   9.193 -0.0912  1.3462 -2.9323
  162SOPE  H13Y18214   4.574   6.137   9.228 -0.3974  0.1907  1.8002
  162SOPE  C31418215   4.442   6.251   9.104 -0.0159 -0.8453 -0.4510
  162SOPE  H14X18216   4.447   6.361   9.115  0.2428 -0.6413 -2.3291
  162SOPE  H14Y18217   4.336   6.240   9.071 -0.8084  1.7914  0.9499
  162SOPE  C31518218   4.518   6.209   8.980  0.3815 -0.5370 -0.1010
  162SOPE  H15X18219   4.522   6.098   8.982  0.1076 -0.5430  0.1999
  162SOPE  H15Y18220   4.627   6.225   8.989  0.6998 -2.0082 -0.9246
  162SOPE  C31618221   4.478   6.267   8.850  0.6510  0.1181  0.0042
  162SOPE  H16X18222   4.499   6.376   8.850  0.4081  0.1720 -0.5849
  162SOPE  H16Y18223   4.369   6.259   8.831  0.5372  0.8603  0.3255
  162SOPE  C31718224   4.549   6.197   8.730  0.9566 -0.0433 -0.7615
  162SOPE  H17X18225   4.534   6.087   8.740  0.0580  0.2232  1.4462
  162SOPE  H17Y18226   4.656   6.224   8.738 -0.0032  3.9805  1.5331
  162SOPE  C31818227   4.507   6.239   8.588  0.3235 -0.1331  0.4512
  162SOPE  H18X18228   4.578   6.199   8.512 -0.7342  0.3708 -0.8528
  162SOPE  H18Y18229   4.500   6.347   8.565  1.0522 -0.7471 -3.5061
  162SOPE  H18Z18230   4.416   6.177   8.573 -0.2517  0.2122  2.3042
  163SOPE     N18231   5.666   4.311  10.753  0.5714  0.3604  0.0905
  163SOPE   HN118232   5.580   4.259  10.780  1.9884 -2.1648  0.0299
  163SOPE   HN218233   5.674   4.380  10.830 -1.7326  0.0922  0.6349
  163SOPE   HN318234   5.647   4.376  10.674  1.7130  2.2473  1.2878
  163SOPE   C1218235   5.784   4.224  10.722 -0.1055  0.0140 -0.1267
  163SOPE  H12A18236   5.749   4.151  10.646 -0.5293  0.5680 -0.4711
  163SOPE  H12B18237   5.811   4.171  10.816  0.0184  0.8642  0.3312
  163SOPE   C1118238   5.913   4.293  10.677 -0.0483 -0.0936  0.0444
  163SOPE  H11A18239   5.896   4.360  10.590  0.3698 -0.1662 -0.0945
  163SOPE  H11B18240   5.983   4.219  10.634 -0.8612  1.1392 -3.8000
  163SOPE     P18241   6.022   4.508  10.773 -0.1356  0.2688 -0.2564
  163SOPE   O1318242   6.065   4.557  10.903  0.2823  1.0297  0.0469
  163SOPE   O1418243   5.920   4.588  10.699 -0.2835 -0.0497  0.4661
  163SOPE   O1218244   5.972   4.363  10.788  0.1390  0.2278  0.4067
  163SOPE   O1118245   6.145   4.489  10.672  0.5946 -0.1689  0.3596
  163SOPE    C118246   6.220   4.606  10.637 -0.0012 -0.7579 -0.0984
  163SOPE    HA18247   6.323   4.575  10.608  1.1335  0.2861  2.5369
  163SOPE    HB18248   6.228   4.662  10.732  0.8086 -4.5910  2.3514
  163SOPE    C218249   6.167   4.692  10.512 -0.8112 -0.1539 -0.3224
  163SOPE    HS18250   6.060   4.716  10.527 -0.9388 -0.8009 -0.1402
  163SOPE   O2118251   6.177   4.617  10.387  0.6706  0.4465  0.1752
  163SOPE   C2118252   6.088   4.650  10.299 -0.0042  0.1630 -0.5165
  163SOPE   O2218253   6.002   4.734  10.313 -0.0859 -0.4339  0.1779
  163SOPE   C2218254   6.116   4.582  10.168  0.0591 -0.1282 -0.8490
  163SOPE   H2R18255   6.103   4.475  10.195 -1.3597  0.1482 -0.3744
  163SOPE   H2S18256   6.219   4.613  10.139 -0.1483  1.0209 -0.3845
  163SOPE    C318257   6.259   4.816  10.481  0.1268  0.6160 -0.5028
  163SOPE    HX18258   6.361   4.781  10.456  0.6675  3.1078 -2.2377
  163SOPE    HY18259   6.268   4.890  10.563 -0.1595 -0.1300  0.2203
  163SOPE   O3118260   6.230   4.885  10.357  0.7226  0.6093  0.8790
  163SOPE   C3118261   6.138   4.984  10.370 -0.3691 -0.8560 -0.4474
  163SOPE   O3218262   6.082   5.012  10.475 -0.3513 -0.8392 -0.2243
  163SOPE   C3218263   6.099   5.056  10.240 -0.3245  0.6399 -0.7238
  163SOPE   H2X18264   6.096   5.165  10.262  1.6626  0.6548 -0.3724
  163SOPE   H2Y18265   5.998   5.017  10.212  0.0062 -0.8905  0.1158
  163SOPE   C2318266   6.013   4.613  10.059 -0.0135 -0.4557  0.1019
  163SOPE   H3R18267   5.909   4.607  10.097  0.4921 -0.0265  1.6087
  163SOPE   H3S18268   6.021   4.538   9.977 -0.9163 -0.2451 -0.1945
  163SOPE   C2418269   6.028   4.740   9.978 -0.0865 -0.1339  1.4186
  163SOPE   H4R18270   6.025   4.835  10.035 -0.3059  0.0235  1.1491
  163SOPE   H4S18271   6.128   4.734   9.930 -0.4393 -1.3601  0.7902
  163SOPE   C2518272   5.928   4.741   9.867  0.0137  0.1307  0.6413
  163SOPE   H5R18273   5.971   4.817   9.798 -0.4761 -0.5637 -0.4684
  163SOPE   H5S18274   5.926   4.656   9.795 -0.7636  0.7331 -0.0721
  163SOPE   C2618275   5.783   4.796   9.895 -0.4184 -0.2744  0.1328
  163SOPE   H6R18276   5.736   4.728   9.969 -1.2964 -0.3130 -0.4504
  163SOPE   H6S18277   5.797   4.898   9.938 -0.4852 -1.1026  2.2371
  163SOPE   C2718278   5.698   4.801   9.764  0.3441  0.5042  0.0694
  163SOPE   H7R18279   5.744   4.865   9.685 -0.5932 -0.4216 -1.2673
  163SOPE   H7S18280   5.712   4.698   9.726 -0.4652  0.3286  0.2294
  163SOPE   C2818281   5.550   4.835   9.782  0.2453  0.1920  0.3144
  163SOPE   H8R18282   5.495   4.803   9.691  1.5106  1.5729 -0.9892
  163SOPE   H8S18283   5.509   4.769   9.862 -1.6321  0.9666  0.0443
  163SOPE   C2918284   5.538   4.983   9.818 -0.5596  0.7575 -0.2883
  163SOPE   H9118285   5.609   5.019   9.894  1.0656 -1.0400 -0.8778
  163SOPE  C21018286   5.457   5.078   9.760  0.3416  0.2875  0.2419
  163SOPE  H10118287   5.474   5.181   9.795  2.6615  0.2750 -0.6926
  163SOPE  C21118288   5.361   5.056   9.647  0.5433  0.6627 -0.1562
  163SOPE  H11R18289   5.269   5.110   9.677 -0.1502  0.8438 -2.3868
  163SOPE  H11S18290   5.336   4.948   9.641  1.9383  0.2565  0.8151
  163SOPE  C21218291   5.408   5.114   9.510 -0.2756 -0.6157 -0.3713
  163SOPE  H12R18292   5.514   5.086   9.490 -0.4115 -0.1034 -1.9325
  163SOPE  H12S18293   5.394   5.223   9.524 -0.4259 -0.5327 -1.1423
  163SOPE  C21318294   5.338   5.058   9.386 -0.4713 -0.0416 -0.4602
  163SOPE  H13R18295   5.230   5.054   9.412 -0.9676  0.1107 -2.3862
  163SOPE  H13S18296   5.372   4.959   9.351  0.0472  0.4221 -1.2984
  163SOPE  C21418297   5.360   5.134   9.254  0.4172  0.0822  0.2140
  163SOPE  H14R18298   5.462   5.106   9.221  0.6675  2.0531 -0.8405
  163SOPE  H14S18299   5.344   5.244   9.248  2.3364  0.4141  0.4471
  163SOPE  C21518300   5.266   5.083   9.146 -0.1592  0.3836  0.0281
  163SOPE  H15R18301   5.169   5.134   9.166  0.9082  2.1897  0.8520
  163SOPE  H15S18302   5.258   4.975   9.166 -1.9906  0.4147 -0.3445
  163SOPE  C21618303   5.318   5.121   9.006  0.0819  0.5180  0.4178
  163SOPE  H16R18304   5.428   5.135   9.012  0.2535 -0.7602  0.5199
  163SOPE  H16S18305   5.278   5.221   8.983 -3.5787 -1.2674 -1.8216
  163SOPE  C21718306   5.267   5.017   8.909  0.1675  1.3606  0.1310
  163SOPE  H17R18307   5.303   4.917   8.942 -4.2440 -0.9164 -1.0957
  163SOPE  H17S18308   5.323   5.030   8.814  1.0424  0.0419  0.4305
  163SOPE  C21818309   5.110   5.008   8.883  0.8833 -0.2783  0.2066
  163SOPE  H18R18310   5.080   4.908   8.845  2.0702  0.0928 -1.8639
  163SOPE  H18S18311   5.083   5.080   8.803  3.2881 -0.5559 -0.9666
  163SOPE  H18T18312   5.047   5.029   8.972  0.4615  2.1722 -0.6121
  163SOPE   C3318313   6.204   5.030  10.125 -0.0850  0.0644 -0.3172
  163SOPE   H3X18314   6.201   4.924  10.094 -1.5300  0.3897 -1.4292
  163SOPE   H3Y18315   6.307   5.059  10.154  0.2860 -1.2260 -0.2906
  163SOPE   C3418316   6.160   5.115  10.000 -0.7570  0.8349  0.0986
  163SOPE   H4X18317   6.157   5.225  10.014  0.8306  0.8689  0.3961
  163SOPE   H4Y18318   6.062   5.074   9.970 -0.1750 -0.9146  0.4523
  163SOPE   C3518319   6.255   5.094   9.880 -0.0815  0.6805  0.0689
  163SOPE   H5X18320   6.246   4.992   9.838  1.9915  1.1626 -1.7371
  163SOPE   H5Y18321   6.361   5.097   9.914  0.6816 -3.5232 -1.3511
  163SOPE   C3618322   6.219   5.193   9.772 -0.5994 -0.1804 -0.0233
  163SOPE   H6X18323   6.216   5.302   9.795 -1.4486 -0.2157  0.0541
  163SOPE   H6Y18324   6.122   5.158   9.730  0.9365  0.0017 -4.1602
  163SOPE   C3718325   6.313   5.189   9.652 -0.5129 -0.4271  0.0920
  163SOPE   H7X18326   6.282   5.096   9.600  0.2537 -0.4879 -0.2681
  163SOPE   H7Y18327   6.421   5.174   9.674 -0.9601 -3.6322  0.5801
  163SOPE   C3818328   6.291   5.309   9.554 -0.3401  0.0049  0.3311
  163SOPE   H8X18329   6.311   5.410   9.597  0.8800  0.2722 -0.7869
  163SOPE   H8Y18330   6.194   5.306   9.499  0.5725 -0.5267 -1.3402
  163SOPE   C3918331   6.407   5.291   9.448  0.3306  0.1439  0.1704
  163SOPE   H9X18332   6.423   5.187   9.412  1.8969  0.4084 -0.0059
  163SOPE   H9Y18333   6.505   5.325   9.490  0.7483 -0.2450 -0.4805
  163SOPE  C31018334   6.390   5.365   9.313  0.0262 -0.0941 -0.4238
  163SOPE  H10X18335   6.485   5.359   9.254  0.5328  2.2834  0.0440
  163SOPE  H10Y18336   6.355   5.469   9.331 -1.2133 -0.6644  0.5986
  163SOPE  C31118337   6.285   5.301   9.230 -0.0388  0.3032 -0.3673
  163SOPE  H11X18338   6.183   5.314   9.272 -1.1238 -0.2939 -2.6487
  163SOPE  H11Y18339   6.288   5.190   9.232 -1.2267  0.1481 -2.9299
  163SOPE  C31218340   6.301   5.351   9.086  0.1381 -0.6092 -0.9456
  163SOPE  H12X18341   6.406   5.378   9.062 -0.6366  1.4755 -2.3461
  163SOPE  H12Y18342   6.243   5.446   9.092  1.6735  0.3024  0.1501
  163SOPE  C31318343   6.240   5.272   8.974  0.8513  0.4932 -0.3101
  163SOPE  H13X18344   6.142   5.223   8.989  2.3759 -2.1193  2.2546
  163SOPE  H13Y18345   6.308   5.185   8.963 -1.6129 -1.6958  0.7101
  163SOPE  C31418346   6.231   5.343   8.843 -0.6327  0.0844 -0.4230
  163SOPE  H14X18347   6.177   5.439   8.857 -0.2524  0.2408  0.0103
  163SOPE  H14Y18348   6.170   5.281   8.774  0.0754 -2.3541  1.0103
  163SOPE  C31518349   6.373   5.362   8.779  0.3263 -0.4920 -0.0854
  163SOPE  H15X18350   6.425   5.264   8.766 -1.7550 -1.4250 -1.9690
  163SOPE  H15Y18351   6.430   5.430   8.846  0.7701 -1.3824  0.4709
  163SOPE  C31618352   6.374   5.432   8.646 -0.4111  0.7091  0.3893
  163SOPE  H16X18353   6.476   5.476   8.636 -0.3777  0.3210 -1.4577
  163SOPE  H16Y18354   6.300   5.514   8.633 -1.5249 -0.3063  0.1973
  163SOPE  C31718355   6.370   5.333   8.529  0.0682  0.3485 -0.0744
  163SOPE  H17X18356   6.284   5.263   8.530  1.5029 -1.4566 -0.1893
  163SOPE  H17Y18357   6.461   5.271   8.532  1.1369  1.6862 -2.0585
  163SOPE  C31818358   6.359   5.397   8.391 -1.1200 -0.2672  0.1888
  163SOPE  H18X18359   6.254   5.423   8.366 -0.8082  1.8395  0.8165
  163SOPE  H18Y18360   6.394   5.333   8.307 -0.5531  0.2678  0.0132
  163SOPE  H18Z18361   6.406   5.498   8.388 -0.8953 -0.3761 -2.6278
  164SOPE     N18362   2.410   3.250  11.037 -0.0840 -0.0570  0.0256
  164SOPE   HN118363   2.469   3.168  11.063  2.0490  0.4602 -2.7076
  164SOPE   HN218364   2.479   3.323  11.010  0.9667 -1.5866 -1.6970
  164SOPE   HN318365   2.352   3.272  11.120  2.3996 -0.1372  1.8971
  164SOPE   C1218366   2.303   3.224  10.933  1.2872 -0.0173  0.2124
  164SOPE  H12A18367   2.227   3.304  10.931  1.5914  0.2716 -1.0069
  164SOPE  H12B18368   2.251   3.134  10.972 -1.9997  2.2496  1.4784
  164SOPE   C1118369   2.371   3.217  10.794 -0.4940  0.1648 -0.2702
  164SOPE  H11A18370   2.424   3.314  10.781  1.4081 -0.8307 -0.3105
  164SOPE  H11B18371   2.297   3.211  10.712 -1.3561  1.0791  0.4207
  164SOPE     P18372   2.533   3.067  10.657 -0.4688 -0.1327  0.0123
  164SOPE   O1318373   2.554   2.926  10.679 -0.0536  0.2226  0.3228
  164SOPE   O1418374   2.650   3.159  10.640 -0.1716  0.3799 -0.5082
  164SOPE   O1218375   2.465   3.111  10.795 -0.1090  0.2808 -0.3615
  164SOPE   O1118376   2.427   3.100  10.551 -0.5881 -0.0859  0.7239
  164SOPE    C118377   2.313   3.012  10.527 -0.1005  0.3657 -0.0628
  164SOPE    HA18378   2.257   2.990  10.621 -0.2542  2.3291  0.3513
  164SOPE    HB18379   2.355   2.917  10.488  0.2312 -0.6588  2.5265
  164SOPE    C218380   2.207   3.068  10.424 -0.0438  0.3279  0.7565
  164SOPE    HS18381   2.134   2.987  10.400 -0.1019  0.4920  0.3719
  164SOPE   O2118382   2.281   3.124  10.311  0.6972 -0.0664 -0.8825
  164SOPE   C2118383   2.302   3.044  10.211  0.3535  1.0253 -0.3449
  164SOPE   O2218384   2.251   2.936  10.197  0.1892 -0.1652  0.1002
  164SOPE   C2218385   2.381   3.115  10.103 -0.4092 -0.3845  0.4061
  164SOPE   H2R18386   2.488   3.109  10.133 -0.6832 -1.1385  1.3148
  164SOPE   H2S18387   2.348   3.220  10.111  1.0566  0.1007  0.3893
  164SOPE    C318388   2.125   3.187  10.480 -0.0950 -0.2751 -0.3498
  164SOPE    HX18389   2.190   3.269  10.518 -0.0340 -0.4347 -0.1043
  164SOPE    HY18390   2.084   3.145  10.575  1.9811 -0.1711  0.6642
  164SOPE   O3118391   2.019   3.238  10.388  0.1770 -1.2418 -0.1727
  164SOPE   C3118392   1.914   3.158  10.371  0.3967 -0.6260  0.7696
  164SOPE   O3218393   1.878   3.069  10.444  0.0507  0.2630  0.1263
  164SOPE   C3218394   1.838   3.206  10.244  0.1391 -0.6443  0.3935
  164SOPE   H2X18395   1.837   3.317  10.248 -0.8500 -0.6778  1.4952
  164SOPE   H2Y18396   1.736   3.162  10.239 -0.7691  1.4784 -1.6377
  164SOPE   C2318397   2.356   3.060   9.966  0.2327 -0.1001 -0.1354
  164SOPE   H3R18398   2.255   3.021   9.945  1.2351 -3.5110  0.6294
  164SOPE   H3S18399   2.420   2.971   9.946  2.9705  2.1228 -2.0757
  164SOPE   C2418400   2.377   3.158   9.843 -0.0878  0.1534 -0.4387
  164SOPE   H4R18401   2.291   3.228   9.836 -0.7042 -0.6548 -1.3766
  164SOPE   H4S18402   2.467   3.221   9.855 -0.7359  1.3876 -1.6876
  164SOPE   C2518403   2.410   3.061   9.726  0.2131 -0.3885 -0.4472
  164SOPE   H5R18404   2.448   2.964   9.764  0.5146  0.3164  1.1129
  164SOPE   H5S18405   2.326   3.042   9.655 -1.2830 -1.2072  1.4375
  164SOPE   C2618406   2.521   3.113   9.635 -0.2045  0.0957  0.2078
  164SOPE   H6R18407   2.528   3.058   9.539  0.6520  3.4647 -1.8488
  164SOPE   H6S18408   2.494   3.219   9.616 -0.6471 -0.3374 -1.8113
  164SOPE   C2718409   2.664   3.100   9.687  0.5039  0.6745  0.5773
  164SOPE   H7R18410   2.689   3.145   9.786  0.2435 -1.6572  1.7774
  164SOPE   H7S18411   2.700   2.995   9.694  0.9659  0.7500 -0.6185
  164SOPE   C2818412   2.770   3.161   9.597 -0.4454 -0.7183  0.2001
  164SOPE   H8R18413   2.739   3.139   9.493 -3.3788 -0.0844  0.8449
  164SOPE   H8S18414   2.750   3.270   9.609 -1.6099 -0.7744 -1.0812
  164SOPE   C2918415   2.922   3.129   9.625  0.0704 -0.0028  0.1734
  164SOPE   H9118416   2.948   3.022   9.625  0.4189 -0.0649 -3.6911
  164SOPE  C21018417   3.022   3.216   9.645 -0.4674 -0.1444  0.0102
  164SOPE  H10118418   3.126   3.181   9.645 -0.1324  0.8025  0.9678
  164SOPE  C21118419   3.011   3.370   9.647 -0.5244 -1.1738  0.8019
  164SOPE  H11R18420   3.047   3.400   9.747  0.1671 -0.7405  0.4314
  164SOPE  H11S18421   2.904   3.397   9.634 -0.8025 -1.2920  2.5975
  164SOPE  C21218422   3.096   3.436   9.528  0.6119  0.5792  0.8429
  164SOPE  H12R18423   3.190   3.379   9.544  0.4420 -0.1980 -0.7261
  164SOPE  H12S18424   3.116   3.544   9.547  0.5671  0.3748  2.1455
  164SOPE  C21318425   3.047   3.420   9.380  0.9285  0.0110 -0.1915
  164SOPE  H13R18426   3.057   3.315   9.345  0.3717 -0.9674  2.3598
  164SOPE  H13S18427   3.108   3.481   9.310 -0.7354 -0.6375 -2.3407
  164SOPE  C21418428   2.898   3.451   9.354  0.5992  0.2558 -0.1077
  164SOPE  H14R18429   2.870   3.540   9.415 -2.1345 -1.1858  0.9178
  164SOPE  H14S18430   2.822   3.377   9.388  0.0770  2.4137  4.0551
  164SOPE  C21518431   2.865   3.477   9.207 -0.1507  0.1049 -0.2820
  164SOPE  H15R18432   2.755   3.476   9.188 -0.0347  0.3768 -1.0054
  164SOPE  H15S18433   2.906   3.393   9.146 -0.7499  0.6176 -1.4358
  164SOPE  C21618434   2.924   3.609   9.164  0.3677 -0.3936  0.3173
  164SOPE  H16R18435   3.034   3.618   9.181  0.0660 -0.4488  2.6680
  164SOPE  H16S18436   2.885   3.697   9.221  2.9693  0.2242  1.2784
  164SOPE  C21718437   2.896   3.630   9.011  0.2564  0.0654 -0.1611
  164SOPE  H17R18438   2.920   3.533   8.961 -1.3548 -0.3478 -0.1612
  164SOPE  H17S18439   2.962   3.711   8.972 -0.2734  0.0905 -1.0370
  164SOPE  C21818440   2.750   3.664   8.967  0.4024 -0.3022 -0.8568
  164SOPE  H18R18441   2.688   3.572   8.972  0.1160 -0.0510  0.5035
  164SOPE  H18S18442   2.749   3.693   8.859 -1.3868 -0.2944 -0.8706
  164SOPE  H18T18443   2.703   3.744   9.028 -1.7876 -1.3486 -1.0700
  164SOPE   C3318444   1.906   3.147  10.117 -0.1269  0.1382  0.2584
  164SOPE   H3X18445   1.857   3.051  10.089 -1.1959  0.6405  0.3666
  164SOPE   H3Y18446   2.014   3.135  10.143  0.4896  1.0517 -1.6613
  164SOPE   C3418447   1.887   3.241   9.995 -0.7134  0.0377  0.3687
  164SOPE   H4X18448   1.924   3.340  10.032  1.3581  0.6364 -2.8935
  164SOPE   H4Y18449   1.779   3.255   9.973 -0.8509  0.8689  1.4858
  164SOPE   C3518450   1.961   3.192   9.868 -0.1444  0.1517 -0.0627
  164SOPE   H5X18451   1.932   3.089   9.840 -0.0461  0.4036 -1.1540
  164SOPE   H5Y18452   2.071   3.191   9.885 -0.3090 -1.1377  1.1541
  164SOPE   C3618453   1.937   3.289   9.743  0.6478 -0.5306 -0.0887
  164SOPE   H6X18454   1.956   3.395   9.771 -3.9878  1.1274 -2.1278
  164SOPE   H6Y18455   1.829   3.280   9.718  0.5513 -0.3965  0.2730
  164SOPE   C3718456   2.024   3.262   9.617  0.3932  0.0224 -0.3616
  164SOPE   H7X18457   2.018   3.152   9.605 -2.7574  0.0493  0.1308
  164SOPE   H7Y18458   2.128   3.288   9.645  0.7282 -0.3045 -1.2676
  164SOPE   C3818459   1.984   3.349   9.499 -0.2822  0.4010 -0.1295
  164SOPE   H8X18460   1.965   3.453   9.535 -1.6027 -0.1337  0.7972
  164SOPE   H8Y18461   1.886   3.310   9.463 -0.2024 -2.8694  2.6879
  164SOPE   C3918462   2.099   3.362   9.392 -0.1442 -0.2856 -0.5180
  164SOPE   H9X18463   2.091   3.268   9.332 -0.7139 -0.2415 -0.5157
  164SOPE   H9Y18464   2.195   3.357   9.449 -0.9669  1.0844  1.0705
  164SOPE  C31018465   2.083   3.487   9.311  0.3248  0.3689 -0.2133
  164SOPE  H10X18466   2.071   3.571   9.382  1.6546 -0.3203  0.8839
  164SOPE  H10Y18467   1.988   3.479   9.254  0.8591 -1.7945 -0.9210
  164SOPE  C31118468   2.198   3.504   9.212  0.2358 -0.6442 -0.4102
  164SOPE  H11X18469   2.186   3.435   9.126 -2.3578 -1.8548  0.8019
  164SOPE  H11Y18470   2.293   3.491   9.268  1.2076  1.0814 -1.5671
  164SOPE  C31218471   2.201   3.647   9.148 -0.0375 -0.7376 -0.1859
  164SOPE  H12X18472   2.199   3.730   9.221 -2.2966  0.5133 -1.5427
  164SOPE  H12Y18473   2.108   3.658   9.087 -1.5086 -0.7623  1.9342
  164SOPE  C31318474   2.318   3.680   9.056 -0.3434  0.6069 -0.2838
  164SOPE  H13X18475   2.325   3.590   8.990 -0.0460  0.5737 -0.2075
  164SOPE  H13Y18476   2.416   3.684   9.107 -0.0792 -0.5699 -0.6556
  164SOPE  C31418477   2.304   3.799   8.964 -0.8607 -0.5937  0.2797
  164SOPE  H14X18478   2.277   3.888   9.024 -1.6197  0.5478 -1.6720
  164SOPE  H14Y18479   2.213   3.784   8.903 -1.5106  0.9902  0.8204
  164SOPE  C31518480   2.428   3.828   8.871  0.6560 -0.1497 -0.3424
  164SOPE  H15X18481   2.503   3.827   8.953 -2.0868  0.1712  2.3716
  164SOPE  H15Y18482   2.415   3.922   8.813  1.2349  0.8771  1.1216
  164SOPE  C31618483   2.460   3.706   8.773  0.1901 -0.1402 -0.4252
  164SOPE  H16X18484   2.365   3.672   8.726 -1.0244 -1.4035  2.7014
  164SOPE  H16Y18485   2.492   3.616   8.829 -1.5550 -0.1851  0.5707
  164SOPE  C31718486   2.555   3.740   8.667 -0.3495  0.2145  0.2919
  164SOPE  H17X18487   2.580   3.641   8.624  0.2549 -0.1692  1.4830
  164SOPE  H17Y18488   2.649   3.788   8.701 -0.3040  2.2782 -2.4185
  164SOPE  C31818489   2.490   3.812   8.552  0.1086  0.0674  0.9309
  164SOPE  H18X18490   2.420   3.747   8.495  1.3734  1.5630 -2.6669
  164SOPE  H18Y18491   2.568   3.837   8.477 -0.2929 -2.4562 -0.4457
  164SOPE  H18Z18492   2.435   3.897   8.599 -2.3459 -1.1877  0.4992
  165SOPE     N18493   0.305   4.203  10.734 -0.3506  0.1736  0.5598
  165SOPE   HN118494   0.207   4.184  10.705 -0.1727 -1.7631  1.1208
  165SOPE   HN218495   0.323   4.303  10.756  0.7141  0.7227 -2.3411
  165SOPE   HN318496   0.364   4.180  10.651  2.3935  0.1011  2.4080
  165SOPE   C1218497   0.335   4.131  10.858  0.0365  0.3303  0.1432
  165SOPE  H12A18498   0.238   4.106  10.907  0.0655 -2.0561 -0.8856
  165SOPE  H12B18499   0.394   4.200  10.922 -1.4990  1.2261  0.6579
  165SOPE   C1118500   0.417   4.001  10.839  0.2534 -0.1264  0.3219
  165SOPE  H11A18501   0.361   3.926  10.779  1.1270 -0.3099 -0.2752
  165SOPE  H11B18502   0.434   3.959  10.940  0.7468  2.0631  1.2082
  165SOPE     P18503   0.633   3.915  10.718  0.4239 -0.4548 -0.1567
  165SOPE   O1318504   0.606   3.784  10.781  0.2862 -0.0282 -0.0525
  165SOPE   O1418505   0.770   3.971  10.734  0.1007  1.1447 -0.2031
  165SOPE   O1218506   0.534   4.032  10.763  0.4266  0.0924 -0.1255
  165SOPE   O1118507   0.590   3.903  10.561 -0.3920  0.1702  1.0589
  165SOPE    C118508   0.682   3.956  10.464  0.6255  0.8069 -0.1172
  165SOPE    HA18509   0.678   3.897  10.370  2.8510 -1.4141  1.0330
  165SOPE    HB18510   0.783   3.943  10.508 -0.5283 -2.0525  1.9955
  165SOPE    C218511   0.647   4.097  10.415  0.0870  0.0475 -0.0202
  165SOPE    HS18512   0.632   4.152  10.511  0.4544 -1.1615  0.7557
  165SOPE   O2118513   0.535   4.107  10.321  0.6069  0.4269  0.2051
  165SOPE   C2118514   0.417   4.099  10.381 -0.8910 -0.5924 -0.2033
  165SOPE   O2218515   0.399   4.122  10.498  0.1958  0.5546  0.2320
  165SOPE   C2218516   0.310   4.069  10.275  0.6515 -0.6933 -0.0336
  165SOPE   H2R18517   0.307   4.158  10.210  2.2714 -0.0164  0.7490
  165SOPE   H2S18518   0.220   4.076  10.340 -1.1637  2.0028 -2.5923
  165SOPE    C318519   0.772   4.156  10.345 -0.0716  0.5864 -0.1936
  165SOPE    HX18520   0.853   4.161  10.421 -1.6202 -3.6650  2.0563
  165SOPE    HY18521   0.738   4.260  10.323  0.0816  0.8703  0.8373
  165SOPE   O3118522   0.805   4.088  10.226 -0.6965  0.3762  0.7712
  165SOPE   C3118523   0.892   4.154  10.149 -0.0848 -0.7382  0.1724
  165SOPE   O3218524   0.951   4.254  10.175  0.4765  0.0204  0.7490
  165SOPE   C3218525   0.924   4.072  10.016 -0.3489  0.7397 -0.2485
  165SOPE   H2X18526   0.865   3.979  10.004  0.7853 -0.0418  0.0489
  165SOPE   H2Y18527   1.027   4.033  10.034 -0.3477 -0.5802 -2.6571
  165SOPE   C2318528   0.326   3.942  10.203 -0.4762 -0.1457  0.1134
  165SOPE   H3R18529   0.350   3.862  10.276 -0.1142 -0.2608 -0.1300
  165SOPE   H3S18530   0.405   3.928  10.126  1.1558 -0.8926  1.8620
  165SOPE   C2418531   0.195   3.892  10.126  0.3449 -0.2643 -0.3011
  165SOPE   H4R18532   0.135   3.810  10.170 -0.2096  0.5814  0.5340
  165SOPE   H4S18533   0.129   3.981  10.118  0.1348 -0.4800 -1.0841
  165SOPE   C2518534   0.222   3.855   9.982 -0.4933  0.2158  0.2372
  165SOPE   H5R18535   0.286   3.937   9.943 -0.6317 -0.9358 -2.6349
  165SOPE   H5S18536   0.287   3.765   9.981  0.6570  0.9986 -1.7897
  165SOPE   C2618537   0.100   3.817   9.898  0.4287  0.7207 -0.6635
  165SOPE   H6R18538   0.022   3.774   9.964  0.4099  1.1527 -0.4022
  165SOPE   H6S18539   0.063   3.912   9.854  0.0918  1.9366  2.0343
  165SOPE   C2718540   0.131   3.717   9.786  1.0366 -0.3911  0.0001
  165SOPE   H7R18541   0.218   3.750   9.725  1.9786  0.5928  1.7766
  165SOPE   H7S18542   0.173   3.623   9.829 -0.1825 -0.7555  0.4525
  165SOPE   C2818543   0.000   3.696   9.691 -0.5550  0.5074 -0.2438
  165SOPE   H8R18544  -0.079   3.638   9.742  1.6380 -1.7542  0.8219
  165SOPE   H8S18545  -0.054   3.785   9.654 -1.3981 -0.4189 -1.3004
  165SOPE   C2918546   0.045   3.611   9.573  0.3021 -0.5604 -0.3738
  165SOPE   H9118547   0.115   3.529   9.597 -0.2423 -0.8237  0.3788
  165SOPE  C21018548   0.037   3.642   9.444  0.1190  0.0893  0.0993
  165SOPE  H10118549   0.057   3.567   9.366  1.3507  0.0338  0.4633
  165SOPE  C21118550  -0.033   3.754   9.378  0.7022  0.2606 -0.2258
  165SOPE  H11R18551  -0.011   3.847   9.433 -2.8629  0.5442  0.9649
  165SOPE  H11S18552  -0.139   3.725   9.396  0.1732  1.9181 -0.5162
  165SOPE  C21218553  -0.020   3.758   9.228 -0.5999  0.0163 -0.8245
  165SOPE  H12R18554  -0.006   3.659   9.179 -3.0731 -1.4757  1.2564
  165SOPE  H12S18555   0.070   3.822   9.213 -0.3724  0.0709  0.5996
  165SOPE  C21318556  -0.131   3.838   9.163  0.5972 -0.0992 -0.1833
  165SOPE  H13R18557  -0.130   3.941   9.205 -0.6683 -0.5861  1.1590
  165SOPE  H13S18558  -0.223   3.783   9.194 -1.9570  3.2500 -1.2156
  165SOPE  C21418559  -0.117   3.850   9.017  0.8020 -0.1763  0.3597
  165SOPE  H14R18560  -0.112   3.745   8.980  3.2239 -0.5243  1.4521
  165SOPE  H14S18561  -0.031   3.911   8.981  0.0130 -0.0377 -1.3843
  165SOPE  C21518562  -0.237   3.908   8.945 -0.6843  1.0369  0.4265
  165SOPE  H15R18563  -0.257   4.010   8.984 -0.9174  0.9884  0.4316
  165SOPE  H15S18564  -0.329   3.848   8.962 -0.1036  0.3524  1.2566
  165SOPE  C21618565  -0.208   3.918   8.791  0.1227 -0.6157 -0.2881
  165SOPE  H16R18566  -0.104   3.951   8.766  0.4244  0.1940  1.8604
  165SOPE  H16S18567  -0.282   3.987   8.746  0.7444 -1.2593 -2.4272
  165SOPE  C21718568  -0.223   3.784   8.720 -0.3017 -0.7824 -0.1802
  165SOPE  H17R18569  -0.326   3.748   8.742  0.6348 -1.8484  2.9675
  165SOPE  H17S18570  -0.150   3.709   8.755  0.2881 -1.1402 -2.1008
  165SOPE  C21818571  -0.212   3.792   8.563 -0.3512  0.2190 -0.4510
  165SOPE  H18R18572  -0.270   3.879   8.525  0.9627  0.7670 -1.2612
  165SOPE  H18S18573  -0.229   3.693   8.515  1.3604  0.2479 -1.1952
  165SOPE  H18T18574  -0.109   3.813   8.528  0.0252 -0.8533 -0.0145
  165SOPE   C3318575   0.915   4.156   9.887  0.0901  0.3388 -0.1622
  165SOPE   H3X18576   0.980   4.244   9.902 -0.3813  0.7425 -0.4525
  165SOPE   H3Y18577   0.817   4.207   9.900 -0.3649 -0.6585  0.5339
  165SOPE   C3418578   0.915   4.088   9.753  0.4547 -0.2665  0.4793
  165SOPE   H4X18579   0.850   3.998   9.764  3.2764 -2.3583  1.2284
  165SOPE   H4Y18580   1.016   4.051   9.726  1.4256  1.6844  1.2041
  165SOPE   C3518581   0.875   4.179   9.632  0.6875  0.5793  0.1049
  165SOPE   H5X18582   0.951   4.259   9.645  1.2617  0.2077 -0.8913
  165SOPE   H5Y18583   0.771   4.213   9.650  0.1849 -1.3463  1.1436
  165SOPE   C3618584   0.893   4.102   9.494 -0.4546 -0.3503  0.8336
  165SOPE   H6X18585   0.841   4.004   9.500  2.5742 -2.1800 -0.3788
  165SOPE   H6Y18586   0.998   4.070   9.481  0.0006  1.2074  0.4802
  165SOPE   C3718587   0.840   4.180   9.370 -0.0294 -0.3243 -1.0827
  165SOPE   H7X18588   0.891   4.278   9.354  2.2395 -1.4274 -1.0364
  165SOPE   H7Y18589   0.732   4.199   9.383 -0.2326 -1.3865 -1.1498
  165SOPE   C3818590   0.848   4.106   9.236 -0.8776  0.5901  0.3065
  165SOPE   H8X18591   0.811   4.003   9.255  0.6662  0.3907  2.7013
  165SOPE   H8Y18592   0.957   4.100   9.214 -1.0678 -1.4913 -0.3483
  165SOPE   C3918593   0.771   4.155   9.116  0.7443 -1.4621  0.3596
  165SOPE   H9X18594   0.801   4.260   9.097 -0.9510 -0.4293  2.8430
  165SOPE   H9Y18595   0.666   4.174   9.149  0.8681 -0.1462  0.0619
  165SOPE  C31018596   0.775   4.081   8.983  0.3686 -0.3319 -0.8852
  165SOPE  H10X18597   0.695   4.003   8.979 -1.7433  1.7618 -3.3932
  165SOPE  H10Y18598   0.875   4.033   8.980  0.4930 -0.0451 -1.9108
  165SOPE  C31118599   0.755   4.161   8.853  0.4673  0.2501 -0.0595
  165SOPE  H11X18600   0.756   4.098   8.761  4.6766  1.1461 -0.8376
  165SOPE  H11Y18601   0.841   4.231   8.844  0.0851  0.5642 -1.6613
  165SOPE  C31218602   0.623   4.239   8.859  0.1280 -0.1442 -0.2199
  165SOPE  H12X18603   0.633   4.297   8.952 -0.1808 -1.6199  0.7708
  165SOPE  H12Y18604   0.537   4.169   8.868 -2.4777  3.0042  1.3370
  165SOPE  C31318605   0.598   4.318   8.739  0.0307  0.0206  0.3689
  165SOPE  H13X18606   0.589   4.257   8.647 -0.7715  1.5357 -0.5921
  165SOPE  H13Y18607   0.692   4.377   8.742 -0.8746  1.5245  0.5181
  165SOPE  C31418608   0.483   4.419   8.754  0.5752 -0.3463  0.2637
  165SOPE  H14X18609   0.487   4.449   8.861 -2.0937  0.5560  0.1698
  165SOPE  H14Y18610   0.386   4.370   8.733  0.8939 -0.9092  0.0946
  165SOPE  C31518611   0.500   4.542   8.667  0.7666 -0.7159 -0.7842
  165SOPE  H15X18612   0.606   4.574   8.679  0.0150  0.9038  2.6655
  165SOPE  H15Y18613   0.445   4.628   8.710  2.3814 -1.2657  2.7768
  165SOPE  C31618614   0.464   4.519   8.530 -0.1764  0.1020  0.1213
  165SOPE  H16X18615   0.363   4.474   8.534 -0.7198  1.2598 -0.2309
  165SOPE  H16Y18616   0.541   4.452   8.487 -0.8045  1.4576 -3.4372
  165SOPE  C31718617   0.449   4.644   8.444 -0.2427  0.0081  0.0292
  165SOPE  H17X18618   0.392   4.722   8.498 -1.0063 -1.6339  1.7330
  165SOPE  H17Y18619   0.384   4.602   8.365 -0.4865  0.4791 -0.0232
  165SOPE  C31818620   0.584   4.691   8.393 -0.2056 -0.1424 -0.1693
  165SOPE  H18X18621   0.659   4.681   8.475 -1.5278 -1.4424  0.9381
  165SOPE  H18Y18622   0.591   4.800   8.377 -1.3773 -0.2427 -1.5565
  165SOPE  H18Z18623   0.627   4.637   8.306  0.8345 -0.0410  0.2639
  166SOPE     N18624   4.009   3.264  11.015 -0.1211 -0.2107 -0.3387
  166SOPE   HN118625   4.029   3.181  11.073  0.3522 -0.8258 -1.3456
  166SOPE   HN218626   3.983   3.336  11.085  2.0909 -2.4095  3.0259
  166SOPE   HN318627   3.932   3.247  10.946  1.1960 -0.7036 -1.7598
  166SOPE   C1218628   4.135   3.309  10.942 -0.0629 -0.1325  0.3241
  166SOPE  H12A18629   4.166   3.217  10.888 -0.7145 -0.0227 -0.2533
  166SOPE  H12B18630   4.216   3.342  11.011  1.6450  1.3364 -2.1979
  166SOPE   C1118631   4.107   3.436  10.857 -0.9142 -0.6138 -0.8138
  166SOPE  H11A18632   4.024   3.414  10.786 -1.2834  1.9247 -1.2436
  166SOPE  H11B18633   4.196   3.461  10.796 -0.6052  2.0732  0.5780
  166SOPE     P18634   4.162   3.679  10.933  0.1897  0.3586  0.3925
  166SOPE   O1318635   4.299   3.630  10.941 -0.0585 -0.3268 -0.0020
  166SOPE   O1418636   4.113   3.781  11.028  0.2790 -0.1988  0.1167
  166SOPE   O1218637   4.067   3.545  10.943 -0.7471  0.5053  0.5356
  166SOPE   O1118638   4.133   3.739  10.790 -0.2792 -0.0899 -0.3830
  166SOPE    C118639   4.025   3.716  10.703 -0.5319 -0.3130  0.3609
  166SOPE    HA18640   3.987   3.815  10.670 -1.9746 -0.8826  0.2764
  166SOPE    HB18641   3.951   3.640  10.735 -2.2586  1.6006  1.0836
  166SOPE    C218642   4.067   3.644  10.561  0.5449  0.1699 -0.5982
  166SOPE    HS18643   4.155   3.579  10.580  0.7415  0.7391  0.5134
  166SOPE   O2118644   4.109   3.748  10.465  0.2134  0.4040 -0.4721
  166SOPE   C2118645   4.204   3.717  10.374  0.3329 -0.2073 -0.9986
  166SOPE   O2218646   4.255   3.606  10.371 -0.3115 -0.3542  0.5268
  166SOPE   C2218647   4.244   3.834  10.283  0.4553  0.2656  0.7281
  166SOPE   H2R18648   4.350   3.849  10.309  1.6269 -3.7036 -0.9284
  166SOPE   H2S18649   4.182   3.925  10.299  0.6350 -0.0402  3.6513
  166SOPE    C318650   3.948   3.565  10.492  0.0312 -0.1342  0.0856
  166SOPE    HX18651   3.859   3.630  10.483  0.6316  0.6714 -0.0749
  166SOPE    HY18652   3.916   3.492  10.570 -1.6012  0.0022 -0.4132
  166SOPE   O3118653   3.988   3.510  10.363  0.4494  0.5841 -0.1030
  166SOPE   C3118654   4.048   3.395  10.366  0.0341  0.2569 -0.6464
  166SOPE   O3218655   4.095   3.337  10.462  0.0582 -0.0953 -0.2539
  166SOPE   C3218656   4.076   3.355  10.222 -0.3984 -0.1244  0.8399
  166SOPE   H2X18657   4.169   3.405  10.187 -0.7009  0.6943  1.1644
  166SOPE   H2Y18658   3.991   3.394  10.162 -1.7741 -1.3136  1.9312
  166SOPE   C2318659   4.237   3.780  10.137 -0.3879 -0.2957  0.1890
  166SOPE   H3R18660   4.297   3.687  10.131  2.1313  1.2172  0.1402
  166SOPE   H3S18661   4.297   3.844  10.068 -0.3648 -0.3828  0.1278
  166SOPE   C2418662   4.089   3.765  10.094  0.0896 -0.7697 -0.3405
  166SOPE   H4R18663   4.033   3.698  10.163  0.7099  0.9455  1.9601
  166SOPE   H4S18664   4.033   3.861  10.101 -1.3160 -1.6650  1.4252
  166SOPE   C2518665   4.068   3.698   9.958 -0.0485 -0.0272 -0.0615
  166SOPE   H5R18666   4.118   3.762   9.882 -0.7417 -0.7327 -1.1408
  166SOPE   H5S18667   4.112   3.597   9.943 -0.5758 -0.0891 -1.3030
  166SOPE   C2618668   3.914   3.675   9.924  0.4833  0.3069 -1.0691
  166SOPE   H6R18669   3.879   3.617  10.012  1.2321 -0.5151 -1.2957
  166SOPE   H6S18670   3.866   3.775   9.916 -1.4134 -0.3301  1.2152
  166SOPE   C2718671   3.861   3.597   9.799 -0.5094 -0.1636 -0.0831
  166SOPE   H7R18672   3.919   3.504   9.778  0.1644  0.4524 -0.9692
  166SOPE   H7S18673   3.754   3.566   9.810 -0.1753 -1.6093 -0.6683
  166SOPE   C2818674   3.870   3.696   9.680  0.4519 -0.0651 -0.7604
  166SOPE   H8R18675   3.793   3.775   9.691  0.2657 -0.4457  0.9344
  166SOPE   H8S18676   3.968   3.748   9.685  0.0955  0.5058  1.5394
  166SOPE   C2918677   3.865   3.635   9.541  0.6339  0.0922  0.5765
  166SOPE   H9118678   3.960   3.628   9.487  0.3493 -0.3356  0.1232
  166SOPE  C21018679   3.749   3.626   9.471  0.5363  0.0247 -0.0580
  166SOPE  H10118680   3.759   3.576   9.373 -1.1311 -0.9891  0.2559
  166SOPE  C21118681   3.610   3.648   9.521  0.6369 -0.1319  0.2593
  166SOPE  H11R18682   3.577   3.753   9.507  1.8326  0.7384  3.2112
  166SOPE  H11S18683   3.603   3.626   9.630 -1.7292  2.7811  0.8518
  166SOPE  C21218684   3.510   3.565   9.446  0.6949  1.0666  0.1864
  166SOPE  H12R18685   3.409   3.566   9.493  0.5459 -1.3822  0.0660
  166SOPE  H12S18686   3.535   3.458   9.434 -0.1212  0.7960  0.8308
  166SOPE  C21318687   3.505   3.617   9.298 -0.2916  0.2060 -0.5163
  166SOPE  H13R18688   3.596   3.600   9.237 -0.1789 -1.2661  0.0050
  166SOPE  H13S18689   3.469   3.722   9.302 -0.7108  0.0791 -0.8750
  166SOPE  C21418690   3.394   3.550   9.227  0.2247 -0.0453  0.3166
  166SOPE  H14R18691   3.296   3.582   9.270  0.3136 -1.3897  1.5899
  166SOPE  H14S18692   3.401   3.440   9.235 -0.9189 -0.1949 -0.5055
  166SOPE  C21518693   3.403   3.577   9.075 -0.5573  0.7796 -0.1553
  166SOPE  H15R18694   3.505   3.550   9.039 -0.9586  1.7914 -2.2148
  166SOPE  H15S18695   3.383   3.684   9.051 -2.8884 -0.0298 -2.3098
  166SOPE  C21618696   3.308   3.490   8.997  0.3593  0.1783 -0.0324
  166SOPE  H16R18697   3.210   3.495   9.048  0.6310 -2.6775  0.9354
  166SOPE  H16S18698   3.351   3.388   8.998  1.6851  0.7073 -0.7291
  166SOPE  C21718699   3.311   3.528   8.850 -0.1661 -0.1350  0.4270
  166SOPE  H17R18700   3.410   3.534   8.801 -0.3793 -1.1928 -0.1722
  166SOPE  H17S18701   3.256   3.624   8.847 -0.2510 -0.1625  0.9500
  166SOPE  C21818702   3.228   3.429   8.770  0.1824  0.9340 -0.0883
  166SOPE  H18R18703   3.194   3.469   8.672  0.6303  1.1950 -0.1398
  166SOPE  H18S18704   3.140   3.395   8.830  1.1320  0.3931  1.0358
  166SOPE  H18T18705   3.288   3.336   8.769  1.0178  1.4598 -1.6192
  166SOPE   C3318706   4.074   3.199  10.200  0.3185 -0.2335 -0.7830
  166SOPE   H3X18707   3.973   3.162  10.231  1.3872 -1.7881  1.0418
  166SOPE   H3Y18708   4.145   3.148  10.267 -0.4884 -0.6888 -0.2530
  166SOPE   C3418709   4.082   3.158  10.052 -0.1561  0.2583  0.3505
  166SOPE   H4X18710   4.061   3.049  10.051 -0.1938  0.2557 -1.6776
  166SOPE   H4Y18711   4.186   3.167  10.014  0.2407  1.4826  1.6163
  166SOPE   C3518712   3.985   3.230   9.958  0.3922  0.4891  0.2148
  166SOPE   H5X18713   4.025   3.331   9.934  3.0528 -0.6146 -0.3393
  166SOPE   H5Y18714   3.885   3.230  10.007 -0.1087  0.7434 -0.7947
  166SOPE   C3618715   3.965   3.150   9.830  0.0059 -0.1429 -0.1123
  166SOPE   H6X18716   3.910   3.054   9.844 -1.6781  0.4051 -2.2486
  166SOPE   H6Y18717   4.068   3.115   9.807  0.7206  0.3230  2.1702
  166SOPE   C3718718   3.892   3.229   9.715  0.2077  0.5039 -0.2341
  166SOPE   H7X18719   3.941   3.325   9.687 -1.1912  0.8327 -1.7072
  166SOPE   H7Y18720   3.802   3.259   9.772  0.2012  0.8623 -0.4326
  166SOPE   C3818721   3.859   3.148   9.582  0.4048 -0.2406  0.3897
  166SOPE   H8X18722   3.794   3.067   9.621  2.2446 -0.5332  3.1246
  166SOPE   H8Y18723   3.953   3.102   9.544  0.9320  1.2060 -0.1131
  166SOPE   C3918724   3.785   3.226   9.477  0.0157  0.3437  0.0727
  166SOPE   H9X18725   3.854   3.307   9.444  1.0810 -1.3412 -2.0945
  166SOPE   H9Y18726   3.701   3.279   9.526  0.3293 -0.6478  1.7454
  166SOPE  C31018727   3.720   3.154   9.360  0.1363 -0.1520 -0.8064
  166SOPE  H10X18728   3.651   3.076   9.397  0.5819 -0.2631 -0.1919
  166SOPE  H10Y18729   3.792   3.090   9.304 -0.2095 -1.2477 -0.0225
  166SOPE  C31118730   3.629   3.243   9.269 -0.1206 -0.4663  0.1493
  166SOPE  H11X18731   3.659   3.348   9.286 -0.8128 -0.2923  0.3249
  166SOPE  H11Y18732   3.519   3.238   9.287 -0.0938  1.6900  1.2457
  166SOPE  C31218733   3.633   3.216   9.106 -0.8757  0.2962 -0.0638
  166SOPE  H12X18734   3.737   3.236   9.073 -0.2988 -0.7868  1.0012
  166SOPE  H12Y18735   3.564   3.287   9.056  0.7482  1.0508 -1.2855
  166SOPE  C31318736   3.604   3.077   9.063  0.0318  0.6455  0.1805
  166SOPE  H13X18737   3.500   3.053   9.095  0.8360 -0.2215  2.3835
  166SOPE  H13Y18738   3.665   3.006   9.122 -2.7046  0.7051  3.4453
  166SOPE  C31418739   3.633   3.061   8.905 -0.3537  0.0157 -0.2380
  166SOPE  H14X18740   3.609   2.956   8.876  0.9124 -0.4984  0.4992
  166SOPE  H14Y18741   3.743   3.069   8.888 -0.6452  2.2579 -1.4861
  166SOPE  C31518742   3.568   3.166   8.812 -0.4325 -0.3258  0.6964
  166SOPE  H15X18743   3.585   3.270   8.847 -0.8478 -0.3760  1.0648
  166SOPE  H15Y18744   3.458   3.153   8.806 -0.4133 -1.2470  1.8264
  166SOPE  C31618745   3.630   3.151   8.672 -0.1494 -0.3701 -0.0155
  166SOPE  H16X18746   3.636   3.044   8.641  0.4633 -0.5465  0.6947
  166SOPE  H16Y18747   3.733   3.191   8.680 -0.9288  1.5167  1.2771
  166SOPE  C31718748   3.543   3.232   8.576  0.2633 -0.0552 -0.3255
  166SOPE  H17X18749   3.535   3.335   8.618  2.0548 -0.3081  0.7409
  166SOPE  H17Y18750   3.442   3.188   8.563 -0.3681  1.3999 -0.5722
  166SOPE  C31818751   3.605   3.247   8.428 -0.5591 -0.5283 -0.1327
  166SOPE  H18X18752   3.693   3.314   8.426 -0.3221 -0.8517 -0.9217
  166SOPE  H18Y18753   3.539   3.262   8.340 -0.1283  0.8549 -0.2443
  166SOPE  H18Z18754   3.654   3.150   8.402  0.7379 -0.4914  1.9577
  167SOPE     N18755   5.948   0.506   5.921  0.5437  0.6050 -0.0445
  167SOPE   HN118756   5.979   0.438   5.993  3.2984 -0.0622 -1.7371
  167SOPE   HN218757   5.872   0.563   5.966 -0.3684 -0.5532 -0.0673
  167SOPE   HN318758   5.910   0.448   5.844  0.9433  0.1812  0.0826
  167SOPE   C1218759   6.070   0.590   5.880  0.8373  0.3592 -0.2666
  167SOPE  H12A18760   6.044   0.650   5.791  0.2372 -0.1561 -0.4468
  167SOPE  H12B18761   6.150   0.518   5.852  0.2473  0.0076 -1.0961
  167SOPE   C1118762   6.120   0.674   5.996  0.4940  0.0735  0.1028
  167SOPE  H11A18763   6.034   0.734   6.032  0.4804  0.6992 -0.9447
  167SOPE  H11B18764   6.194   0.740   5.945 -1.0195  0.4325 -1.6983
  167SOPE     P18765   6.269   0.669   6.209  0.3570  0.0930  0.2238
  167SOPE   O1318766   6.387   0.728   6.138  0.1728 -0.5708  0.0904
  167SOPE   O1418767   6.297   0.573   6.316  0.6457  0.1524 -0.7426
  167SOPE   O1218768   6.180   0.598   6.104  0.5212  0.0335 -0.5915
  167SOPE   O1118769   6.173   0.787   6.261 -0.9528  0.1910 -0.9145
  167SOPE    C118770   6.043   0.752   6.299 -0.2656 -0.1026  0.3531
  167SOPE    HA18771   6.013   0.648   6.275 -0.7934  0.1116  0.0605
  167SOPE    HB18772   5.982   0.815   6.230  1.5454  0.9765 -0.3365
  167SOPE    C218773   6.002   0.789   6.442 -0.1176 -0.1672  0.7644
  167SOPE    HS18774   6.014   0.897   6.465  1.7218 -0.6421  2.3039
  167SOPE   O2118775   6.078   0.714   6.535  0.1001  0.0697 -0.2680
  167SOPE   C2118776   6.200   0.756   6.571  0.4804 -0.5420 -0.0967
  167SOPE   O2218777   6.247   0.858   6.521  0.4673 -0.9773 -0.1197
  167SOPE   C2218778   6.266   0.670   6.680  0.6595  0.6834  0.7415
  167SOPE   H2R18779   6.370   0.654   6.645 -0.2090  1.4569 -2.6328
  167SOPE   H2S18780   6.216   0.573   6.700 -1.8027  1.4585 -1.0883
  167SOPE    C318781   5.850   0.767   6.459  0.2981 -0.1005  1.3557
  167SOPE    HX18782   5.823   0.668   6.417  1.5307 -0.2478  0.8729
  167SOPE    HY18783   5.796   0.840   6.394 -1.1249 -1.0464  1.4113
  167SOPE   O3118784   5.808   0.760   6.592 -0.1716 -0.2177 -0.1305
  167SOPE   C3118785   5.781   0.885   6.641 -0.2222  0.4417 -0.7969
  167SOPE   O3218786   5.794   0.987   6.577  0.0967  0.6009  0.1353
  167SOPE   C3218787   5.713   0.874   6.779  0.1465  0.4141 -0.7143
  167SOPE   H2X18788   5.777   0.819   6.851  1.4426  2.0288 -0.5755
  167SOPE   H2Y18789   5.620   0.814   6.766  0.0714 -0.3504  2.5272
  167SOPE   C2318790   6.267   0.735   6.822  0.5065  0.0415 -0.1525
  167SOPE   H3R18791   6.310   0.837   6.818 -1.2589  0.8885  1.1970
  167SOPE   H3S18792   6.335   0.676   6.887  2.8580  0.9394 -1.6494
  167SOPE   C2418793   6.130   0.741   6.883  1.1542 -0.3590 -0.0115
  167SOPE   H4R18794   6.063   0.807   6.824  0.9425 -0.8323 -0.2997
  167SOPE   H4S18795   6.095   0.637   6.895  1.2707 -0.2242  1.8579
  167SOPE   C2518796   6.137   0.820   7.011 -0.7226  0.1352  0.1161
  167SOPE   H5R18797   6.174   0.921   6.982  0.6947 -0.4818 -0.3292
  167SOPE   H5S18798   6.039   0.833   7.060  0.1957  1.2641  1.7627
  167SOPE   C2618799   6.236   0.766   7.120 -0.2150  0.2461  0.6033
  167SOPE   H6R18800   6.191   0.668   7.148  1.5387 -0.2912  1.7344
  167SOPE   H6S18801   6.336   0.738   7.081 -0.2660 -0.7063  1.1131
  167SOPE   C2718802   6.241   0.859   7.239  0.2302 -0.0275  0.1397
  167SOPE   H7R18803   6.272   0.961   7.209  0.6652  0.8288  3.1723
  167SOPE   H7S18804   6.135   0.866   7.269  0.9384 -0.5577  3.0907
  167SOPE   C2818805   6.326   0.819   7.362  0.4510  0.3041 -0.0077
  167SOPE   H8R18806   6.428   0.789   7.327  1.1775  0.5688  1.7910
  167SOPE   H8S18807   6.333   0.912   7.421 -0.6432 -0.0512  0.7067
  167SOPE   C2918808   6.268   0.710   7.454 -0.5740  0.6655  0.2356
  167SOPE   H9118809   6.159   0.719   7.470 -0.5187  2.1334 -0.0492
  167SOPE  C21018810   6.332   0.618   7.533  0.2972 -0.3075 -0.0431
  167SOPE  H10118811   6.272   0.552   7.598 -0.9466  0.6693 -0.1750
  167SOPE  C21118812   6.480   0.592   7.548  0.2074 -0.0916  0.3328
  167SOPE  H11R18813   6.539   0.633   7.464 -1.1334  0.2729 -0.4673
  167SOPE  H11S18814   6.503   0.484   7.535 -0.4853 -0.1072 -0.9214
  167SOPE  C21218815   6.542   0.638   7.674  0.1480  0.7734  0.0012
  167SOPE  H12R18816   6.489   0.727   7.716 -2.9822 -0.3467 -1.3217
  167SOPE  H12S18817   6.642   0.682   7.650 -0.1802  1.3104 -0.3969
  167SOPE  C21318818   6.556   0.532   7.781  0.0955  0.1427  0.3426
  167SOPE  H13R18819   6.639   0.460   7.765  0.0559 -0.2625  1.8208
  167SOPE  H13S18820   6.459   0.479   7.780 -0.8858  1.8526  0.6552
  167SOPE  C21418821   6.587   0.587   7.922  0.0003 -0.2091 -0.2909
  167SOPE  H14R18822   6.556   0.509   7.996 -1.5511  1.5329  1.0219
  167SOPE  H14S18823   6.511   0.668   7.932 -0.2035 -0.1404 -2.0702
  167SOPE  C21518824   6.732   0.632   7.936  0.2257  0.9944 -0.4532
  167SOPE  H15R18825   6.761   0.720   7.875  0.4065 -0.9455 -3.3785
  167SOPE  H15S18826   6.795   0.549   7.896  1.1230  1.4551 -0.0218
  167SOPE  C21618827   6.761   0.652   8.081 -0.4383  0.5502 -0.1395
  167SOPE  H16R18828   6.730   0.567   8.146  1.0477 -0.0539 -0.1882
  167SOPE  H16S18829   6.705   0.740   8.121  0.8528  1.0761  0.5495
  167SOPE  C21718830   6.903   0.669   8.102 -0.2468 -0.7118  0.1614
  167SOPE  H17R18831   6.947   0.757   8.049  0.4576 -1.7668 -1.0557
  167SOPE  H17S18832   6.960   0.578   8.074  1.0131  0.0759  0.1010
  167SOPE  C21818833   6.932   0.706   8.252 -1.0801 -0.4147  0.0640
  167SOPE  H18R18834   6.898   0.811   8.256  1.5954  0.7652 -2.9832
  167SOPE  H18S18835   7.041   0.699   8.270 -1.0925 -0.5240  0.0955
  167SOPE  H18T18836   6.880   0.645   8.329  0.6429 -0.8278  0.9474
  167SOPE   C3318837   5.676   1.010   6.846 -0.3296  0.2316 -0.1089
  167SOPE   H3X18838   5.625   1.079   6.775 -1.4859 -0.0442  0.4285
  167SOPE   H3Y18839   5.769   1.057   6.883  1.6150  0.0534 -4.1937
  167SOPE   C3418840   5.593   0.976   6.970  0.8121  0.4725  0.1434
  167SOPE   H4X18841   5.643   0.893   7.025  0.2194 -1.0875 -1.5589
  167SOPE   H4Y18842   5.496   0.931   6.939  0.5165 -0.7120  2.5220
  167SOPE   C3518843   5.557   1.099   7.052 -0.2710  0.5261  0.0583
  167SOPE   H5X18844   5.475   1.078   7.124 -0.2256  0.6072  0.1345
  167SOPE   H5Y18845   5.515   1.179   6.988 -0.4346 -0.9280 -1.7505
  167SOPE   C3618846   5.674   1.146   7.135 -0.3693 -0.0974 -0.5733
  167SOPE   H6X18847   5.630   1.230   7.193 -2.9664  0.1128 -2.6523
  167SOPE   H6Y18848   5.755   1.188   7.071  0.1703 -0.6979 -0.3040
  167SOPE   C3718849   5.725   1.044   7.232 -0.2322 -0.1721  0.1527
  167SOPE   H7X18850   5.769   0.959   7.176 -0.7339 -0.3586  0.0391
  167SOPE   H7Y18851   5.631   1.012   7.282 -0.2544 -0.5334 -0.1161
  167SOPE   C3818852   5.817   1.116   7.325  0.0751 -0.1423 -0.5520
  167SOPE   H8X18853   5.762   1.207   7.354  0.2552 -0.4305  0.7357
  167SOPE   H8Y18854   5.909   1.138   7.265  0.4140  0.7860  0.2971
  167SOPE   C3918855   5.847   1.032   7.448 -0.4285  0.2985  0.2046
  167SOPE   H9X18856   5.874   0.928   7.418  0.4345  0.2976  0.9462
  167SOPE   H9Y18857   5.750   1.016   7.500 -0.2197 -0.7826  0.2910
  167SOPE  C31018858   5.946   1.092   7.554 -0.1109 -0.4248 -0.4122
  167SOPE  H10X18859   6.008   1.177   7.519  1.1162 -1.5313 -1.0612
  167SOPE  H10Y18860   6.021   1.015   7.584 -0.2363 -0.3683  0.0526
  167SOPE  C31118861   5.875   1.124   7.689  0.9150 -0.0028 -0.3974
  167SOPE  H11X18862   5.795   1.197   7.662 -0.6952 -1.6043 -0.1346
  167SOPE  H11Y18863   5.946   1.188   7.745  2.9547 -2.5913  0.1368
  167SOPE  C31218864   5.818   1.007   7.767  0.2890  0.5744 -0.5959
  167SOPE  H12X18865   5.899   0.932   7.765 -0.1612  0.1046 -1.9245
  167SOPE  H12Y18866   5.738   0.962   7.705 -0.0882 -1.1036  1.0280
  167SOPE  C31318867   5.761   1.046   7.905 -0.3067 -0.2425 -0.3700
  167SOPE  H13X18868   5.716   0.953   7.945 -1.9926  1.5236  2.1679
  167SOPE  H13Y18869   5.677   1.119   7.908  1.2492  1.6708  3.8676
  167SOPE  C31418870   5.857   1.101   8.003 -0.9113  1.1037 -0.3755
  167SOPE  H14X18871   5.887   1.204   7.975 -2.1519  1.2164 -1.4095
  167SOPE  H14Y18872   5.951   1.042   8.008 -0.1037  2.2216 -1.6646
  167SOPE  C31518873   5.799   1.108   8.152  0.2171 -0.1294  0.1115
  167SOPE  H15X18874   5.789   1.009   8.199  0.7773  0.2451  1.0561
  167SOPE  H15Y18875   5.697   1.151   8.142  0.6923  0.8994 -0.5531
  167SOPE  C31618876   5.890   1.209   8.231  0.7426  0.3780  0.3036
  167SOPE  H16X18877   5.852   1.240   8.331 -1.3295  1.7314 -0.8230
  167SOPE  H16Y18878   5.885   1.298   8.164 -1.8614 -0.1287 -0.2797
  167SOPE  C31718879   6.030   1.160   8.246 -0.2345  0.5207 -0.2165
  167SOPE  H17X18880   6.077   1.130   8.150 -1.4375  1.4758 -1.1410
  167SOPE  H17Y18881   6.022   1.069   8.308 -1.3272  0.9447  0.2885
  167SOPE  C31818882   6.111   1.264   8.330 -0.6123 -0.0806 -0.5940
  167SOPE  H18X18883   6.101   1.361   8.275 -0.6053  1.5873  2.1665
  167SOPE  H18Y18884   6.215   1.232   8.350 -0.1252  2.2814  1.0825
  167SOPE  H18Z18885   6.064   1.279   8.429  0.5505  2.0044 -0.2877
  168SOPE     N18886   6.366   6.187   6.206  0.4321  0.0376 -0.1196
  168SOPE   HN118887   6.321   6.094   6.202  2.3868 -1.0207  0.9636
  168SOPE   HN218888   6.305   6.257   6.158  0.0800  0.3905  0.7937
  168SOPE   HN318889   6.460   6.185   6.164  0.8690  0.9556  0.7679
  168SOPE   C1218890   6.365   6.227   6.355 -0.5860  0.4719  0.1081
  168SOPE  H12A18891   6.437   6.310   6.374 -0.8583  1.2899 -2.0719
  168SOPE  H12B18892   6.394   6.135   6.410 -1.9596 -0.3981 -0.5615
  168SOPE   C1118893   6.227   6.258   6.403  0.2679 -0.0012  0.0747
  168SOPE  H11A18894   6.185   6.354   6.368 -1.9785 -0.6776  0.7539
  168SOPE  H11B18895   6.233   6.260   6.514  0.8726 -1.5054  0.0955
  168SOPE     P18896   5.990   6.138   6.374 -0.1962  0.3753 -0.0594
  168SOPE   O1318897   5.938   6.009   6.323  0.3660 -0.1153 -0.1430
  168SOPE   O1418898   5.916   6.259   6.323 -0.7762  0.1123 -0.4693
  168SOPE   O1218899   6.144   6.149   6.348 -0.0393 -0.1700  0.1424
  168SOPE   O1118900   5.988   6.142   6.531  0.3194  0.9125  0.2442
  168SOPE    C118901   6.057   6.037   6.596 -0.4331  0.6020 -0.3633
  168SOPE    HA18902   6.162   6.037   6.559 -0.6190  1.0911 -0.9151
  168SOPE    HB18903   6.005   5.941   6.572  0.4063  0.5770 -2.2549
  168SOPE    C218904   6.053   6.057   6.745 -0.4852  0.1930  0.9383
  168SOPE    HS18905   6.115   6.149   6.756 -1.3418  0.8037  0.7416
  168SOPE   O2118906   6.090   5.936   6.816 -0.7107  0.8269 -0.3425
  168SOPE   C2118907   6.222   5.916   6.831  0.9767  0.1663  0.1643
  168SOPE   O2218908   6.304   5.983   6.774 -0.4420 -0.3929  0.1448
  168SOPE   C2218909   6.249   5.800   6.925  0.4958 -1.1121 -0.7494
  168SOPE   H2R18910   6.358   5.782   6.938  0.4244 -0.0537  2.0067
  168SOPE   H2S18911   6.198   5.708   6.888 -0.8169 -1.6671  2.1760
  168SOPE    C318912   5.916   6.109   6.799 -0.2319  0.3694  0.1216
  168SOPE    HX18913   5.838   6.031   6.780 -0.6632  0.8042  0.0971
  168SOPE    HY18914   5.886   6.193   6.733 -0.7439 -0.6336 -0.9806
  168SOPE   O3118915   5.907   6.146   6.941 -1.0287 -0.1710  0.6098
  168SOPE   C3118916   5.950   6.272   6.958 -0.6207  0.7551 -0.5142
  168SOPE   O3218917   5.980   6.352   6.872  0.0795 -0.1397  0.3777
  168SOPE   C3218918   5.954   6.298   7.110  0.0711 -0.2045  0.0078
  168SOPE   H2X18919   5.859   6.349   7.139  1.2882  0.0302  4.2598
  168SOPE   H2Y18920   6.035   6.372   7.129 -1.1082  0.9941  0.5639
  168SOPE   C2318921   6.190   5.835   7.073 -1.0999 -0.0577  0.5162
  168SOPE   H3R18922   6.081   5.847   7.054 -0.9281 -1.1033 -1.4157
  168SOPE   H3S18923   6.234   5.934   7.096 -0.7200  0.0253 -0.5167
  168SOPE   C2418924   6.226   5.724   7.175 -0.3045 -0.2255  0.0244
  168SOPE   H4R18925   6.178   5.631   7.136 -1.1541  0.0846  0.3063
  168SOPE   H4S18926   6.335   5.705   7.172 -0.2458 -0.6944  2.6762
  168SOPE   C2518927   6.179   5.756   7.321 -0.0739  0.0497 -0.0331
  168SOPE   H5R18928   6.218   5.854   7.357  2.4040 -1.0947  0.6120
  168SOPE   H5S18929   6.068   5.767   7.320  0.0236  1.1698 -0.8236
  168SOPE   C2618930   6.207   5.650   7.425 -0.2073 -0.5786  0.4426
  168SOPE   H6R18931   6.152   5.558   7.396  0.7727 -0.5238 -1.7623
  168SOPE   H6S18932   6.314   5.620   7.423 -0.2431 -0.6685 -0.4360
  168SOPE   C2718933   6.164   5.686   7.573 -0.1731 -0.3435  0.4764
  168SOPE   H7R18934   6.066   5.736   7.589  0.2742  0.5824  0.3991
  168SOPE   H7S18935   6.175   5.592   7.630  0.5977 -1.3843 -1.3052
  168SOPE   C2818936   6.278   5.773   7.636  0.3149  0.2613  0.5327
  168SOPE   H8R18937   6.372   5.745   7.583  0.9784  0.6875  1.4640
  168SOPE   H8S18938   6.235   5.875   7.630 -1.5108 -0.5600 -2.4704
  168SOPE   C2918939   6.302   5.770   7.785  0.1388 -0.8129 -0.4938
  168SOPE   H9118940   6.407   5.747   7.811  0.3825  1.1737  0.5155
  168SOPE  C21018941   6.218   5.792   7.883  0.3667  0.2992  0.2162
  168SOPE  H10118942   6.247   5.784   7.989  1.2197 -0.5975 -0.0763
  168SOPE  C21118943   6.076   5.823   7.870 -0.9897 -0.2946  0.4567
  168SOPE  H11R18944   6.009   5.734   7.875 -1.6168  0.0702 -0.9716
  168SOPE  H11S18945   6.049   5.872   7.774  4.3086  2.2089 -0.1360
  168SOPE  C21218946   6.020   5.915   7.980 -0.1013  0.1092 -0.0338
  168SOPE  H12R18947   5.923   5.939   7.933 -0.3122 -4.1825 -2.3417
  168SOPE  H12S18948   6.076   6.008   8.002 -1.3222  0.9183 -0.2653
  168SOPE  C21318949   5.992   5.831   8.102  0.5364 -1.0037  0.8030
  168SOPE  H13R18950   6.078   5.761   8.112 -0.1995 -2.1743 -0.6138
  168SOPE  H13S18951   5.909   5.757   8.095 -0.0875 -0.1998 -0.6290
  168SOPE  C21418952   5.958   5.920   8.224 -0.5371  0.6616  0.4249
  168SOPE  H14R18953   5.868   5.986   8.222  0.0436  1.4747  0.6239
  168SOPE  H14S18954   6.040   5.995   8.230  0.6726 -0.4687 -1.1456
  168SOPE  C21518955   5.952   5.845   8.357 -0.3065 -0.5931  0.1618
  168SOPE  H15R18956   6.027   5.764   8.345 -0.1566 -0.2631 -1.3291
  168SOPE  H15S18957   5.856   5.790   8.350 -0.9562  0.3211  1.3830
  168SOPE  C21618958   5.969   5.932   8.487  0.3272 -0.0417  0.0919
  168SOPE  H16R18959   5.874   5.991   8.488 -1.1685 -2.2587 -1.9286
  168SOPE  H16S18960   6.059   5.995   8.471  0.1542  0.0691 -0.4656
  168SOPE  C21718961   5.974   5.866   8.621  0.0218  0.0760 -1.0704
  168SOPE  H17R18962   6.043   5.920   8.690 -0.0829 -1.0753 -0.0357
  168SOPE  H17S18963   6.031   5.773   8.601  2.0453  1.2328 -0.9797
  168SOPE  C21818964   5.844   5.833   8.699  0.5235 -0.0390 -0.4778
  168SOPE  H18R18965   5.792   5.921   8.741  1.2691 -0.1693  0.7548
  168SOPE  H18S18966   5.864   5.758   8.779  3.4095  1.1872  0.0581
  168SOPE  H18T18967   5.771   5.782   8.631  2.1257 -1.3886 -1.2679
  168SOPE   C3318968   5.971   6.176   7.195  0.1131  0.0379 -1.0371
  168SOPE   H3X18969   6.068   6.121   7.184 -1.1868 -2.4815 -0.7724
  168SOPE   H3Y18970   5.889   6.102   7.184 -0.8902  0.6109  1.7698
  168SOPE   C3418971   5.962   6.218   7.342 -0.5851 -0.7135 -0.2875
  168SOPE   H4X18972   5.871   6.281   7.350  0.6361  0.9134  2.5998
  168SOPE   H4Y18973   6.045   6.287   7.370 -1.0516  0.1699 -1.0232
  168SOPE   C3518974   5.951   6.101   7.446  0.3386 -0.1072  0.5029
  168SOPE   H5X18975   6.047   6.044   7.449 -0.0906 -0.8833  4.0886
  168SOPE   H5Y18976   5.872   6.036   7.403  0.3056  0.2854 -0.0498
  168SOPE   C3618977   5.915   6.149   7.589 -0.0596  0.3059  0.1734
  168SOPE   H6X18978   6.001   6.202   7.634  0.3125  1.1430 -1.4290
  168SOPE   H6Y18979   5.891   6.053   7.638 -0.0862  0.9341  1.4111
  168SOPE   C3718980   5.788   6.246   7.600 -0.0032  0.5638  0.6941
  168SOPE   H7X18981   5.728   6.202   7.517  1.9463  0.5909 -0.8136
  168SOPE   H7Y18982   5.809   6.344   7.553 -1.6326  0.1807 -0.9281
  168SOPE   C3818983   5.702   6.235   7.720 -0.7745 -0.5522 -0.3853
  168SOPE   H8X18984   5.647   6.138   7.717 -0.6742 -0.5721 -1.9907
  168SOPE   H8Y18985   5.626   6.316   7.717 -0.4701 -0.1620  1.2636
  168SOPE   C3918986   5.781   6.255   7.850 -0.8255 -0.2066 -0.4343
  168SOPE   H9X18987   5.849   6.339   7.828 -0.3204 -0.4356  0.2279
  168SOPE   H9Y18988   5.838   6.162   7.871  0.4317  0.7731  0.5695
  168SOPE  C31018989   5.678   6.261   7.962 -0.3037  0.0017 -0.2416
  168SOPE  H10X18990   5.612   6.173   7.953  1.1114 -1.0061 -1.1927
  168SOPE  H10Y18991   5.609   6.344   7.934  0.0002 -0.3177 -2.1146
  168SOPE  C31118992   5.734   6.285   8.104 -0.6525  0.5922  0.1669
  168SOPE  H11X18993   5.815   6.209   8.114 -0.1017  1.0407 -0.7691
  168SOPE  H11Y18994   5.654   6.262   8.177  0.4383 -0.1723  1.1604
  168SOPE  C31218995   5.794   6.421   8.133  0.1596  0.0592  0.1776
  168SOPE  H12X18996   5.720   6.485   8.080 -0.0112  0.3839  0.7906
  168SOPE  H12Y18997   5.887   6.439   8.076  0.3600 -2.3267 -0.3600
  168SOPE  C31318998   5.796   6.460   8.282 -0.3835 -0.1627  0.2060
  168SOPE  H13X18999   5.698   6.506   8.306 -0.7840  0.9833 -3.0086
  168SOPE  H13Y19000   5.867   6.540   8.312 -1.3386  0.3802  1.0798
  168SOPE  C31419001   5.839   6.347   8.383  0.3559 -0.7544  0.4493
  168SOPE  H14X19002   5.949   6.329   8.378  0.1804 -1.6839 -0.3770
  168SOPE  H14Y19003   5.786   6.252   8.364 -1.3762  0.0847  0.9097
  168SOPE  C31519004   5.801   6.396   8.526 -0.5197 -0.7837 -0.0781
  168SOPE  H15X19005   5.695   6.431   8.529 -0.5023 -0.7494  0.1413
  168SOPE  H15Y19006   5.871   6.480   8.545 -2.6348  1.2632 -0.8238
  168SOPE  C31619007   5.840   6.291   8.620 -0.1670 -0.3442 -0.1473
  168SOPE  H16X19008   5.938   6.248   8.589  0.4531  1.7211 -1.2863
  168SOPE  H16Y19009   5.767   6.209   8.603  0.6440 -0.8189 -1.5464
  168SOPE  C31719010   5.834   6.333   8.765  0.6828 -0.3296  0.3886
  168SOPE  H17X19011   5.895   6.425   8.780 -2.5342  2.4795 -2.0439
  168SOPE  H17Y19012   5.873   6.248   8.825  1.5774 -0.6917 -0.6857
  168SOPE  C31819013   5.684   6.375   8.809 -0.2181 -0.2892  0.4897
  168SOPE  H18X19014   5.615   6.288   8.805  0.3217 -0.6943 -1.5968
  168SOPE  H18Y19015   5.648   6.450   8.735  1.1798  0.8031  0.8729
  168SOPE  H18Z19016   5.693   6.414   8.912  1.9832 -0.6418  0.4779
  169SOPE     N19017   2.349   1.234   6.040 -0.0258  0.0278  0.2363
  169SOPE   HN119018   2.380   1.306   5.971 -0.3440 -0.1360 -0.0801
  169SOPE   HN219019   2.331   1.284   6.129 -1.4373  1.0654 -0.6081
  169SOPE   HN319020   2.418   1.158   6.056  0.4436  0.5150  0.5588
  169SOPE   C1219021   2.206   1.206   6.006 -0.2247 -0.1781 -0.4364
  169SOPE  H12A19022   2.196   1.121   5.935  0.9383 -1.5523  0.9709
  169SOPE  H12B19023   2.176   1.301   5.957  0.1513  0.6276  0.8571
  169SOPE   C1119024   2.128   1.177   6.134  0.0184  0.6775  0.1606
  169SOPE  H11A19025   2.165   1.077   6.167 -4.1013 -1.6545 -1.6024
  169SOPE  H11B19026   2.023   1.154   6.105 -0.4129  0.4654  1.7890
  169SOPE     P19027   2.201   1.238   6.380 -0.3344  0.0606 -0.3269
  169SOPE   O1319028   2.238   1.098   6.394 -0.1122 -0.0888  0.0198
  169SOPE   O1419029   2.094   1.283   6.468 -0.2248  0.7397  0.1723
  169SOPE   O1219030   2.153   1.276   6.239  0.5296  0.2085 -0.4124
  169SOPE   O1119031   2.322   1.340   6.410 -0.0379  0.0653  0.0779
  169SOPE    C119032   2.450   1.309   6.472  0.2793 -0.2276  0.4278
  169SOPE    HA19033   2.531   1.381   6.448  0.9782  0.0614  3.2759
  169SOPE    HB19034   2.472   1.205   6.440  1.3121  0.0866  0.0743
  169SOPE    C219035   2.444   1.303   6.627  0.1124  0.5883 -0.1810
  169SOPE    HS19036   2.543   1.283   6.673 -1.0046 -1.1303  1.6625
  169SOPE   O2119037   2.339   1.215   6.679 -0.1678 -0.5760  0.1637
  169SOPE   C2119038   2.373   1.090   6.669  0.2207 -0.4321 -0.1873
  169SOPE   O2219039   2.484   1.050   6.636 -0.1421 -0.0698  0.5769
  169SOPE   C2219040   2.256   0.998   6.719 -0.4062 -0.4690 -0.1997
  169SOPE   H2R19041   2.298   0.899   6.690  0.6411  0.4048 -1.8720
  169SOPE   H2S19042   2.167   1.020   6.657  0.5621  2.7221 -0.6460
  169SOPE    C319043   2.411   1.450   6.681  0.5208 -0.1321 -0.0804
  169SOPE    HX19044   2.325   1.482   6.619  0.3084 -2.3003 -1.0174
  169SOPE    HY19045   2.491   1.521   6.652  0.2871  1.2143  2.2834
  169SOPE   O3119046   2.407   1.459   6.832  0.0093  0.5024 -0.1621
  169SOPE   C3119047   2.288   1.444   6.878 -0.3516 -0.4112 -0.0134
  169SOPE   O3219048   2.184   1.453   6.817 -0.4226  0.0417 -0.0149
  169SOPE   C3219049   2.291   1.398   7.030 -0.6402 -0.1515  0.3688
  169SOPE   H2X19050   2.400   1.380   7.042 -0.2611  1.6333 -0.0740
  169SOPE   H2Y19051   2.238   1.300   7.036 -0.6345 -0.1077  1.3532
  169SOPE   C2319052   2.236   1.003   6.869 -0.7449  0.4536 -0.3047
  169SOPE   H3R19053   2.199   1.104   6.896  0.1391  1.0966 -1.3929
  169SOPE   H3S19054   2.333   0.987   6.921 -0.9096  0.0327 -0.1155
  169SOPE   C2419055   2.132   0.909   6.924  0.5606  0.0308 -0.4613
  169SOPE   H4R19056   2.045   0.902   6.855 -0.7966 -2.2087  1.3367
  169SOPE   H4S19057   2.169   0.804   6.924 -0.5482 -0.4170 -2.5171
  169SOPE   C2519058   2.071   0.940   7.061 -0.3248  0.9573  0.7524
  169SOPE   H5R19059   2.011   1.031   7.036 -3.1005 -1.2144 -1.0825
  169SOPE   H5S19060   1.986   0.871   7.080 -0.4730  0.4978 -1.3071
  169SOPE   C2619061   2.166   0.955   7.175 -0.9231  0.7083  0.0915
  169SOPE   H6R19062   2.224   0.864   7.198 -2.2812 -0.6001 -1.3798
  169SOPE   H6S19063   2.240   1.035   7.149  1.0941 -1.6159 -1.8919
  169SOPE   C2719064   2.094   0.978   7.306  0.0604 -0.3336  0.4428
  169SOPE   H7R19065   2.038   1.072   7.286  1.3412  0.2790 -0.3511
  169SOPE   H7S19066   2.022   0.895   7.324 -1.5783  0.4125 -2.0917
  169SOPE   C2819067   2.182   1.009   7.427 -0.4067  0.6110  0.1133
  169SOPE   H8R19068   2.245   1.095   7.396 -0.7472  0.3795 -1.3238
  169SOPE   H8S19069   2.126   1.042   7.517 -0.1335  0.2932  0.4000
  169SOPE   C2919070   2.273   0.898   7.471 -0.3885 -0.4979 -0.3313
  169SOPE   H9119071   2.366   0.878   7.416 -0.8468  0.8856 -1.6778
  169SOPE  C21019072   2.254   0.818   7.583 -0.4993  0.1316  1.2733
  169SOPE  H10119073   2.336   0.746   7.599 -1.6454 -1.2786  0.9401
  169SOPE  C21119074   2.145   0.821   7.684  0.0995 -0.0072  0.9447
  169SOPE  H11R19075   2.093   0.723   7.690 -1.6259  0.8813  1.0172
  169SOPE  H11S19076   2.077   0.895   7.638  0.3769 -1.8183 -2.7984
  169SOPE  C21219077   2.176   0.866   7.833 -0.2127 -0.4487  0.0064
  169SOPE  H12R19078   2.275   0.824   7.861  0.4821  0.8184 -0.4506
  169SOPE  H12S19079   2.097   0.830   7.902 -0.5384 -1.7451 -0.9905
  169SOPE  C21319080   2.182   1.020   7.832 -0.4839 -0.2871 -0.2121
  169SOPE  H13R19081   2.080   1.064   7.827 -1.2471 -1.6566  1.8915
  169SOPE  H13S19082   2.244   1.059   7.749  1.8598  0.0810  1.6272
  169SOPE  C21419083   2.242   1.081   7.958 -0.0862  0.7036  0.0915
  169SOPE  H14R19084   2.256   1.192   7.959  1.6323  0.5208 -0.3032
  169SOPE  H14S19085   2.337   1.029   7.980 -0.9266 -0.8949  0.0545
  169SOPE  C21519086   2.141   1.076   8.069 -0.5141 -0.0076 -0.6365
  169SOPE  H15R19087   2.110   0.973   8.099 -0.7615  0.4260  0.6855
  169SOPE  H15S19088   2.047   1.127   8.039 -0.5662 -1.3292 -2.9628
  169SOPE  C21619089   2.194   1.135   8.203 -0.6770  0.3510  0.1732
  169SOPE  H16R19090   2.289   1.089   8.240 -0.1152  1.8733  0.7005
  169SOPE  H16S19091   2.114   1.094   8.268 -1.9583  0.7871 -1.0923
  169SOPE  C21719092   2.207   1.291   8.220 -0.5553  0.4570 -0.2052
  169SOPE  H17R19093   2.110   1.330   8.183  0.2369  1.3803 -1.3590
  169SOPE  H17S19094   2.291   1.326   8.157 -1.1680  3.8874  0.6732
  169SOPE  C21819095   2.216   1.334   8.366  0.1737 -0.1248 -0.1518
  169SOPE  H18R19096   2.214   1.445   8.368  3.5966  0.0317  2.1753
  169SOPE  H18S19097   2.316   1.317   8.411  1.3440  0.3750 -2.3800
  169SOPE  H18T19098   2.128   1.291   8.418 -1.6074  3.2763 -0.0471
  169SOPE   C3319099   2.237   1.493   7.129 -0.4066 -0.2481 -0.0501
  169SOPE   H3X19100   2.127   1.501   7.144 -0.2882  1.2376  0.1195
  169SOPE   H3Y19101   2.278   1.592   7.101 -0.7245  0.0998  0.6933
  169SOPE   C3419102   2.306   1.470   7.265 -0.1343  0.9264  0.5162
  169SOPE   H4X19103   2.415   1.489   7.266 -0.0314  0.3991  1.8708
  169SOPE   H4Y19104   2.304   1.365   7.302  0.1093  2.3223  5.1280
  169SOPE   C3519105   2.244   1.548   7.376 -0.5141 -0.5476 -0.4244
  169SOPE   H5X19106   2.138   1.579   7.371 -0.8947 -1.8724 -0.9218
  169SOPE   H5Y19107   2.298   1.645   7.375  1.2918 -1.5098 -0.9945
  169SOPE   C3619108   2.283   1.487   7.519 -0.0919 -0.5892  0.3512
  169SOPE   H6X19109   2.391   1.461   7.523  0.7106  1.8881 -1.9492
  169SOPE   H6Y19110   2.222   1.398   7.545  1.4940 -1.9300 -0.3032
  169SOPE   C3719111   2.268   1.585   7.633  0.1064  0.5257 -0.9669
  169SOPE   H7X19112   2.164   1.588   7.673  1.2177 -0.2513  2.3028
  169SOPE   H7Y19113   2.302   1.689   7.611 -1.3475  0.9456 -1.3698
  169SOPE   C3819114   2.351   1.541   7.754 -0.2541  0.0171 -0.0079
  169SOPE   H8X19115   2.331   1.438   7.792  0.9144 -0.1016  0.3151
  169SOPE   H8Y19116   2.452   1.540   7.708 -0.8574 -1.0614 -1.3588
  169SOPE   C3919117   2.325   1.625   7.877 -0.2868 -0.4804 -0.1009
  169SOPE   H9X19118   2.232   1.586   7.923  0.3134 -2.1929 -0.2910
  169SOPE   H9Y19119   2.310   1.728   7.838  0.3642 -0.8628 -1.4282
  169SOPE  C31019120   2.437   1.642   7.981  0.1623  0.3960  0.9335
  169SOPE  H10X19121   2.535   1.657   7.931  0.0956  1.3501  1.0755
  169SOPE  H10Y19122   2.440   1.544   8.033  0.4932  0.0703  0.3054
  169SOPE  C31119123   2.412   1.733   8.097 -0.2076  0.3294 -0.2863
  169SOPE  H11X19124   2.410   1.838   8.061 -0.1329  0.5089  0.2336
  169SOPE  H11Y19125   2.499   1.729   8.166 -0.1587 -1.2956 -0.4092
  169SOPE  C31219126   2.280   1.704   8.164  0.4748  0.1642 -0.3103
  169SOPE  H12X19127   2.271   1.594   8.178 -0.0936  0.0415 -1.5127
  169SOPE  H12Y19128   2.199   1.741   8.099  1.0201  1.5754 -0.2160
  169SOPE  C31319129   2.268   1.788   8.293  0.1943  0.5995  0.2050
  169SOPE  H13X19130   2.161   1.788   8.325  0.6096  1.5469  1.6597
  169SOPE  H13Y19131   2.289   1.896   8.275  1.4554  0.1598 -1.1304
  169SOPE  C31419132   2.357   1.736   8.400  0.6956  0.0805 -0.3036
  169SOPE  H14X19133   2.455   1.700   8.361  0.8837 -0.4489  0.6405
  169SOPE  H14Y19134   2.321   1.640   8.443  0.8139 -0.4864 -1.4310
  169SOPE  C31519135   2.370   1.835   8.518  0.2903  0.1454  0.2853
  169SOPE  H15X19136   2.268   1.870   8.542 -0.1374 -0.1168 -1.0922
  169SOPE  H15Y19137   2.431   1.923   8.490 -1.6046  1.9387  1.5352
  169SOPE  C31619138   2.445   1.767   8.634 -0.0425 -0.0206 -0.0181
  169SOPE  H16X19139   2.539   1.724   8.593 -0.7707  0.7462 -2.6736
  169SOPE  H16Y19140   2.388   1.684   8.679 -0.8135  0.7840  0.5162
  169SOPE  C31719141   2.475   1.870   8.739 -0.0563 -0.1535  0.0286
  169SOPE  H17X19142   2.383   1.921   8.776 -0.9595 -1.3372 -0.5050
  169SOPE  H17Y19143   2.539   1.949   8.695  1.0002 -0.0884  1.5675
  169SOPE  C31819144   2.559   1.807   8.855  0.7533 -0.1026  0.0097
  169SOPE  H18X19145   2.547   1.883   8.935  0.6644  0.8025 -0.8356
  169SOPE  H18Y19146   2.662   1.792   8.816  0.4826  1.0454 -1.2572
  169SOPE  H18Z19147   2.501   1.716   8.878 -1.6998  1.3955  0.1431
  170SOPE     N19148   1.670   6.752   6.281  0.0062 -0.1044  0.1916
  170SOPE   HN119149   1.691   6.740   6.383  0.4120  1.9654  0.4075
  170SOPE   HN219150   1.746   6.703   6.230 -0.8398 -2.6171  1.1640
  170SOPE   HN319151   1.666   6.856   6.273  0.3425 -0.1401 -0.4765
  170SOPE   C1219152   1.528   6.690   6.263 -1.0012 -0.1962 -1.1391
  170SOPE  H12A19153   1.475   6.734   6.176 -2.0016 -0.5970 -0.7439
  170SOPE  H12B19154   1.474   6.702   6.359  0.1832  0.3605 -0.5213
  170SOPE   C1119155   1.550   6.540   6.231 -0.7844 -0.6235  0.2488
  170SOPE  H11A19156   1.623   6.534   6.147 -0.2940  1.4829  0.4579
  170SOPE  H11B19157   1.454   6.488   6.212 -1.3754  0.3658  0.4405
  170SOPE     P19158   1.633   6.342   6.382 -0.5658 -0.6423 -0.7438
  170SOPE   O1319159   1.721   6.333   6.503  0.0833  0.4310  0.3644
  170SOPE   O1419160   1.661   6.252   6.273  0.3184  0.3647  0.0148
  170SOPE   O1219161   1.615   6.492   6.345 -0.1054  0.2304  0.0748
  170SOPE   O1119162   1.486   6.314   6.432  0.0826  0.0940  0.1835
  170SOPE    C119163   1.415   6.396   6.526  0.7964  0.8680  0.2962
  170SOPE    HA19164   1.318   6.410   6.475 -0.6539  1.2395  3.0025
  170SOPE    HB19165   1.464   6.496   6.530 -1.2157  1.9030  0.1890
  170SOPE    C219166   1.398   6.334   6.669 -0.2272  0.5131  0.1402
  170SOPE    HS19167   1.350   6.424   6.714 -0.1501  0.4827  0.2852
  170SOPE   O2119168   1.522   6.318   6.745 -0.2546 -0.6044 -0.9432
  170SOPE   C2119169   1.604   6.426   6.755  0.0503 -0.1359  0.1784
  170SOPE   O2219170   1.576   6.538   6.719  0.0605 -0.1989 -0.3083
  170SOPE   C2219171   1.734   6.403   6.829 -0.4290 -0.2186  0.1396
  170SOPE   H2R19172   1.783   6.501   6.849 -0.6478  0.0675 -0.6645
  170SOPE   H2S19173   1.810   6.352   6.765 -0.2564  0.8010 -0.5041
  170SOPE    C319174   1.300   6.211   6.675 -0.6878  0.3521  0.3457
  170SOPE    HX19175   1.344   6.129   6.614 -0.7463 -0.0432  0.8277
  170SOPE    HY19176   1.210   6.241   6.617  0.1479  1.3531 -0.4671
  170SOPE   O3119177   1.267   6.180   6.810 -0.6115  0.1917  0.5085
  170SOPE   C3119178   1.359   6.102   6.859  0.0574 -0.0049 -0.4637
  170SOPE   O3219179   1.439   6.032   6.801 -0.1568  0.5767 -0.2759
  170SOPE   C3219180   1.345   6.107   7.011 -0.1035  0.3791  0.2167
  170SOPE   H2X19181   1.241   6.089   7.046  0.2488 -1.3266  0.4577
  170SOPE   H2Y19182   1.361   6.214   7.036 -0.1842  0.6636 -0.9092
  170SOPE   C2319183   1.714   6.323   6.966  0.8876 -0.2884  0.1961
  170SOPE   H3R19184   1.694   6.216   6.941  0.8290  0.0527 -1.3240
  170SOPE   H3S19185   1.631   6.371   7.022  1.2238  0.3675  0.1443
  170SOPE   C2419186   1.837   6.314   7.067  0.2774 -0.7392  0.1393
  170SOPE   H4R19187   1.931   6.303   7.009 -0.0918  1.0032 -0.8436
  170SOPE   H4S19188   1.841   6.417   7.108 -0.7993 -0.4719 -0.3929
  170SOPE   C2519189   1.815   6.217   7.173  0.3902 -0.3805 -0.5789
  170SOPE   H5R19190   1.715   6.236   7.218  1.0559  2.1476 -0.0477
  170SOPE   H5S19191   1.810   6.115   7.129  0.1798  0.0537 -1.5871
  170SOPE   C2619192   1.924   6.216   7.277  0.3507  0.1298 -0.3268
  170SOPE   H6R19193   2.018   6.167   7.243 -0.7001 -1.5117 -1.0051
  170SOPE   H6S19194   1.949   6.321   7.301  0.0848  0.2407 -0.5247
  170SOPE   C2719195   1.871   6.147   7.402 -0.3749  0.4645 -0.5219
  170SOPE   H7R19196   1.777   6.201   7.425 -0.0876  0.6651  0.1961
  170SOPE   H7S19197   1.848   6.043   7.370 -0.4074 -0.0815  1.2122
  170SOPE   C2819198   1.968   6.154   7.516  0.1523  0.0543  0.3020
  170SOPE   H8R19199   2.058   6.096   7.485  1.1843  1.6084  0.2385
  170SOPE   H8S19200   1.999   6.261   7.523  0.5280  0.0846 -1.4156
  170SOPE   C2919201   1.911   6.103   7.648 -0.4024  0.0848  0.0154
  170SOPE   H9119202   1.903   5.995   7.661 -1.3590 -0.1882 -2.3488
  170SOPE  C21019203   1.876   6.187   7.753 -0.0448 -0.5043 -0.0943
  170SOPE  H10119204   1.824   6.139   7.838 -0.1578  0.8577  0.6387
  170SOPE  C21119205   1.888   6.335   7.774 -0.6119  0.0160  0.1718
  170SOPE  H11R19206   1.902   6.383   7.675 -0.3980 -0.0674  0.1616
  170SOPE  H11S19207   1.979   6.353   7.835 -0.8579 -1.1179  0.8941
  170SOPE  C21219208   1.760   6.383   7.839  0.2343 -0.5404  0.3476
  170SOPE  H12R19209   1.764   6.488   7.875 -0.7510 -0.0599 -0.8738
  170SOPE  H12S19210   1.751   6.335   7.939 -0.5202  2.3866  1.7930
  170SOPE  C21319211   1.634   6.368   7.749  0.0457  0.8682  0.4509
  170SOPE  H13R19212   1.551   6.406   7.811 -2.2493  0.0531 -1.9437
  170SOPE  H13S19213   1.617   6.260   7.730 -0.3174  0.8555  0.8454
  170SOPE  C21419214   1.629   6.455   7.620 -0.4472  0.7664  0.9097
  170SOPE  H14R19215   1.728   6.449   7.571  0.4725 -1.9253  2.8204
  170SOPE  H14S19216   1.609   6.561   7.647 -0.6249  0.7451  0.8678
  170SOPE  C21519217   1.526   6.400   7.522  0.1078  0.0305 -0.0182
  170SOPE  H15R19218   1.438   6.459   7.553  0.7485  0.1852  1.6150
  170SOPE  H15S19219   1.503   6.296   7.553  1.5829 -0.7757 -1.4586
  170SOPE  C21619220   1.553   6.421   7.377 -0.2304  0.5481 -0.5129
  170SOPE  H16R19221   1.486   6.364   7.308  0.7506  0.6431 -1.5645
  170SOPE  H16S19222   1.661   6.406   7.356  0.1272  1.9149  0.2258
  170SOPE  C21719223   1.533   6.562   7.327 -0.1250 -0.4970 -0.0517
  170SOPE  H17R19224   1.545   6.625   7.417 -0.8161 -0.5406  0.0765
  170SOPE  H17S19225   1.429   6.571   7.288  0.1936 -0.6568 -0.9711
  170SOPE  C21819226   1.620   6.597   7.212 -0.0804 -0.6805 -0.1348
  170SOPE  H18R19227   1.597   6.529   7.128 -1.0120 -1.1411  0.4840
  170SOPE  H18S19228   1.729   6.583   7.232  0.0960 -1.3091 -1.4464
  170SOPE  H18T19229   1.605   6.699   7.171  1.2465 -0.1252  0.6565
  170SOPE   C3319230   1.453   6.019   7.072 -0.3365 -0.2972  0.0915
  170SOPE   H3X19231   1.549   6.067   7.042 -0.2427 -0.4273  0.1843
  170SOPE   H3Y19232   1.448   5.909   7.060 -0.6530 -0.4569  1.5101
  170SOPE   C3419233   1.451   6.047   7.225 -0.1611  0.1854  0.1013
  170SOPE   H4X19234   1.345   6.045   7.257 -0.5827 -0.3623 -1.2372
  170SOPE   H4Y19235   1.483   6.149   7.254  1.4015 -0.9592  2.7799
  170SOPE   C3519236   1.543   5.954   7.309 -0.1051 -0.1478 -0.2513
  170SOPE   H5X19237   1.645   5.983   7.277 -0.6981 -0.2886 -2.4401
  170SOPE   H5Y19238   1.516   5.847   7.291 -0.3585 -0.1010 -0.1418
  170SOPE   C3619239   1.527   5.956   7.463 -0.4216 -0.3188 -0.2098
  170SOPE   H6X19240   1.419   5.953   7.491 -0.3715  0.2117  0.0537
  170SOPE   H6Y19241   1.561   6.057   7.494  1.5551  0.3740 -4.0938
  170SOPE   C3719242   1.610   5.852   7.535  0.2418  0.0028 -0.5980
  170SOPE   H7X19243   1.716   5.869   7.509 -0.5911  1.6545 -3.2669
  170SOPE   H7Y19244   1.580   5.751   7.499  0.7452 -0.3574 -0.0418
  170SOPE   C3819245   1.587   5.867   7.687  0.2509 -0.0335 -0.3443
  170SOPE   H8X19246   1.478   5.890   7.692  0.4001  1.1962 -2.0151
  170SOPE   H8Y19247   1.654   5.946   7.726 -2.6804  2.2018  0.5823
  170SOPE   C3919248   1.600   5.740   7.763 -0.4212  0.5961 -0.4636
  170SOPE   H9X19249   1.691   5.688   7.726  1.3888  2.5676  0.9607
  170SOPE   H9Y19250   1.513   5.682   7.725 -0.8337 -0.3444  1.7556
  170SOPE  C31019251   1.586   5.761   7.917  0.1491  0.1478 -0.2117
  170SOPE  H10X19252   1.592   5.659   7.958 -0.4815  0.5256  0.8487
  170SOPE  H10Y19253   1.492   5.812   7.947  0.1969  0.8310 -1.1415
  170SOPE  C31119254   1.696   5.848   7.969  0.1157 -0.7203 -0.8431
  170SOPE  H11X19255   1.683   5.846   8.079  0.0708 -1.0658 -0.8524
  170SOPE  H11Y19256   1.675   5.954   7.945 -0.4121 -1.1380 -2.3383
  170SOPE  C31219257   1.842   5.815   7.927 -0.0115  0.1718  0.1060
  170SOPE  H12X19258   1.853   5.836   7.819  1.0883  1.0491  0.3703
  170SOPE  H12Y19259   1.854   5.705   7.938 -3.2649 -0.1973  0.9961
  170SOPE  C31319260   1.938   5.897   8.007 -0.1835  0.3103  0.0451
  170SOPE  H13X19261   1.889   5.996   8.017 -2.4110 -0.6023 -0.9510
  170SOPE  H13Y19262   2.034   5.912   7.954  0.3547  1.1192  1.2211
  170SOPE  C31419263   1.979   5.829   8.134  0.9561  0.1112  0.4990
  170SOPE  H14X19264   2.025   5.729   8.119 -0.9130 -0.9749  1.6189
  170SOPE  H14Y19265   1.882   5.796   8.178  1.0728 -1.9088 -0.6751
  170SOPE  C31519266   2.065   5.914   8.222  0.1032  0.1547  0.9502
  170SOPE  H15X19267   2.004   6.000   8.256  0.9964  2.0083 -1.7912
  170SOPE  H15Y19268   2.142   5.966   8.161 -1.0046  0.6213 -0.0813
  170SOPE  C31619269   2.122   5.821   8.330 -0.2191 -0.2664  0.2962
  170SOPE  H16X19270   2.202   5.876   8.382 -0.9993  0.2032  1.0255
  170SOPE  H16Y19271   2.159   5.720   8.300 -1.9613 -1.1553  0.9550
  170SOPE  C31719272   2.019   5.790   8.442  0.0540  0.1000  0.1942
  170SOPE  H17X19273   1.924   5.745   8.406  1.0650 -0.1945 -2.3757
  170SOPE  H17Y19274   1.992   5.884   8.495  1.0649  1.1281 -1.0240
  170SOPE  C31819275   2.074   5.689   8.547 -0.0768 -0.3308  0.1282
  170SOPE  H18X19276   2.150   5.621   8.503  1.8013  0.5930  1.7582
  170SOPE  H18Y19277   1.996   5.632   8.600  0.1140 -1.0884 -0.3880
  170SOPE  H18Z19278   2.131   5.738   8.629  0.1643 -0.1103 -0.1684
  171SOPE     N19279   1.373   2.711   6.343  0.3066 -0.4728  0.1346
  171SOPE   HN119280   1.329   2.798   6.378 -0.5949  0.4091 -2.8330
  171SOPE   HN219281   1.470   2.709   6.381 -0.1335  2.0114  1.5625
  171SOPE   HN319282   1.377   2.705   6.239  1.4712 -1.8381  0.2346
  171SOPE   C1219283   1.317   2.590   6.404  0.2333  0.8133  0.5364
  171SOPE  H12A19284   1.245   2.542   6.334  2.2607  0.0471 -1.1214
  171SOPE  H12B19285   1.259   2.619   6.494 -0.0119 -0.6026  0.8608
  171SOPE   C1119286   1.436   2.491   6.434 -0.2137 -0.0209  0.1368
  171SOPE  H11A19287   1.405   2.394   6.479  1.4560 -1.5795 -1.8545
  171SOPE  H11B19288   1.513   2.544   6.494  1.8438 -0.5664 -1.8685
  171SOPE     P19289   1.594   2.337   6.302 -0.1609 -0.1546  0.4128
  171SOPE   O1319290   1.712   2.395   6.227  0.6207  0.1598  0.1187
  171SOPE   O1419291   1.521   2.224   6.239  0.1982 -0.3986  0.1328
  171SOPE   O1219292   1.502   2.459   6.316  0.2520 -0.1389 -0.2757
  171SOPE   O1119293   1.623   2.309   6.450 -0.1817  0.5701  0.6872
  171SOPE    C119294   1.737   2.366   6.523  0.2918  0.7920  0.2786
  171SOPE    HA19295   1.732   2.475   6.502 -2.3327  0.3330 -2.1330
  171SOPE    HB19296   1.835   2.330   6.484  0.1359 -1.1304  1.4892
  171SOPE    C219297   1.731   2.333   6.677  0.1380  0.3167  0.6933
  171SOPE    HS19298   1.743   2.223   6.692  0.0355  0.3723  1.1910
  171SOPE   O2119299   1.601   2.368   6.726  0.3937  0.4195 -0.2714
  171SOPE   C2119300   1.532   2.272   6.799  0.8943 -1.2791  0.6058
  171SOPE   O2219301   1.580   2.172   6.841  0.1664 -0.0155 -0.0836
  171SOPE   C2219302   1.383   2.313   6.792  0.5296  0.1640 -0.2330
  171SOPE   H2R19303   1.350   2.316   6.686 -0.7685 -2.1318  0.0528
  171SOPE   H2S19304   1.358   2.414   6.830  0.1247 -0.1889  0.4475
  171SOPE    C319305   1.838   2.394   6.760 -0.5986  0.1613 -0.3922
  171SOPE    HX19306   1.840   2.505   6.756  1.9200  0.2107 -0.0324
  171SOPE    HY19307   1.934   2.355   6.719 -0.3326 -0.6243  0.9238
  171SOPE   O3119308   1.826   2.354   6.895  0.1209  0.2206 -0.5761
  171SOPE   C3119309   1.764   2.438   6.978 -0.6022  0.6443 -0.6913
  171SOPE   O3219310   1.711   2.539   6.944 -0.2134 -0.4141  0.0038
  171SOPE   C3219311   1.751   2.365   7.112  0.0960 -0.5714  0.3016
  171SOPE   H2X19312   1.842   2.305   7.132  0.0732 -1.0197 -0.8220
  171SOPE   H2Y19313   1.682   2.283   7.080  0.7862 -0.3252 -2.0019
  171SOPE   C2319314   1.295   2.209   6.859  0.1843  0.2864 -0.6546
  171SOPE   H3R19315   1.339   2.110   6.834 -0.1010  0.0826 -0.3655
  171SOPE   H3S19316   1.201   2.195   6.800 -0.9036 -0.8286  1.2195
  171SOPE   C2419317   1.252   2.220   7.011 -0.6844  0.0051 -0.0587
  171SOPE   H4R19318   1.163   2.284   7.026 -0.6844 -0.3205  1.6027
  171SOPE   H4S19319   1.232   2.113   7.037  1.2129 -0.3842 -0.0656
  171SOPE   C2519320   1.376   2.257   7.092 -1.0441  0.0307  0.9132
  171SOPE   H5R19321   1.464   2.195   7.064 -1.2555  0.8523 -1.8735
  171SOPE   H5S19322   1.412   2.362   7.086 -0.7047 -0.1751 -1.1703
  171SOPE   C2619323   1.347   2.235   7.240  0.1697 -0.0401 -0.8196
  171SOPE   H6R19324   1.294   2.141   7.266 -1.6352  0.8929 -0.9684
  171SOPE   H6S19325   1.443   2.235   7.295  0.0266  1.9445 -0.5058
  171SOPE   C2719326   1.253   2.343   7.290  0.1367  0.3409  0.0754
  171SOPE   H7R19327   1.292   2.447   7.284  0.6807  0.0827 -1.1332
  171SOPE   H7S19328   1.161   2.355   7.229 -0.0950 -2.3987 -0.2043
  171SOPE   C2819329   1.214   2.310   7.438  0.2330  0.3954  0.1197
  171SOPE   H8R19330   1.113   2.349   7.461  0.0023  1.0302 -1.8057
  171SOPE   H8S19331   1.214   2.199   7.447  0.8937  0.4040  0.3158
  171SOPE   C2919332   1.320   2.354   7.529 -0.5382 -0.3719 -0.3846
  171SOPE   H9119333   1.425   2.354   7.497 -0.7521  3.9241 -1.6096
  171SOPE  C21019334   1.295   2.390   7.660  0.0055 -0.9883  0.3368
  171SOPE  H10119335   1.384   2.421   7.717  2.3078 -0.7319 -3.0983
  171SOPE  C21119336   1.170   2.390   7.742  0.1625  0.4753  0.0117
  171SOPE  H11R19337   1.083   2.394   7.674 -1.4164 -1.5548  1.7592
  171SOPE  H11S19338   1.163   2.486   7.797  1.1965  0.5051  0.1258
  171SOPE  C21219339   1.166   2.287   7.849 -0.3850  1.0751  0.6080
  171SOPE  H12R19340   1.184   2.185   7.809  0.0809 -0.4282  4.2317
  171SOPE  H12S19341   1.069   2.283   7.903 -0.2187 -0.9692  0.8225
  171SOPE  C21319342   1.265   2.317   7.963  1.0563  0.0445  0.1325
  171SOPE  H13R19343   1.236   2.419   7.998  3.3598  1.3733 -1.5229
  171SOPE  H13S19344   1.372   2.321   7.933  1.2275  1.0530  0.8082
  171SOPE  C21419345   1.262   2.227   8.089 -0.1020  0.0804  0.3576
  171SOPE  H14R19346   1.351   2.255   8.150  0.6406  0.7213 -0.9752
  171SOPE  H14S19347   1.261   2.121   8.058  1.9573  0.7849 -2.4369
  171SOPE  C21519348   1.139   2.262   8.171  0.4279 -0.3428 -0.5044
  171SOPE  H15R19349   1.053   2.209   8.125  1.2779 -1.1636 -1.1882
  171SOPE  H15S19350   1.112   2.369   8.168 -1.5104 -0.8039 -0.9572
  171SOPE  C21619351   1.135   2.223   8.326  0.3996  0.4189 -0.6976
  171SOPE  H16R19352   1.221   2.269   8.379 -0.3298 -1.2427  2.1140
  171SOPE  H16S19353   1.137   2.113   8.340 -1.9613  0.3909 -0.1264
  171SOPE  C21719354   1.017   2.288   8.405 -1.0792 -0.0472  0.3765
  171SOPE  H17R19355   0.934   2.248   8.343  0.4347 -0.3817 -1.5381
  171SOPE  H17S19356   1.020   2.399   8.395 -2.4157 -0.1159 -1.3576
  171SOPE  C21819357   1.006   2.238   8.548  0.0050 -0.4408  0.0277
  171SOPE  H18R19358   0.909   2.272   8.592  0.8181 -0.1102  1.6393
  171SOPE  H18S19359   1.091   2.258   8.616  0.5876 -3.3214  0.2816
  171SOPE  H18T19360   1.010   2.127   8.550  1.0705 -0.4038  0.7201
  171SOPE   C3319361   1.714   2.463   7.220 -0.1518 -0.3876  0.6489
  171SOPE   H3X19362   1.616   2.512   7.200  1.2070  1.8772 -0.9969
  171SOPE   H3Y19363   1.774   2.557   7.217  0.2445 -0.6236  1.1059
  171SOPE   C3419364   1.718   2.404   7.359  0.6860 -0.1260 -0.2327
  171SOPE   H4X19365   1.826   2.382   7.371  1.2458  1.5815 -1.7307
  171SOPE   H4Y19366   1.653   2.314   7.364 -1.4782  1.2645 -1.7992
  171SOPE   C3519367   1.687   2.509   7.458 -0.5299 -0.0407  0.1526
  171SOPE   H5X19368   1.579   2.534   7.464 -0.3234  0.6864  0.9313
  171SOPE   H5Y19369   1.747   2.599   7.434  1.3168 -1.3486 -0.4111
  171SOPE   C3619370   1.710   2.460   7.605 -0.2690  0.4235  0.2442
  171SOPE   H6X19371   1.818   2.439   7.618  0.0767 -0.7632 -3.5204
  171SOPE   H6Y19372   1.653   2.367   7.627 -0.6868  0.1255 -1.9262
  171SOPE   C3719373   1.668   2.569   7.702 -0.1362  0.4641  0.2324
  171SOPE   H7X19374   1.567   2.600   7.667 -0.3039 -0.5828 -0.2335
  171SOPE   H7Y19375   1.730   2.659   7.684  1.3444 -0.5218  0.2935
  171SOPE   C3819376   1.660   2.521   7.847  0.1368  1.0302 -0.2447
  171SOPE   H8X19377   1.760   2.521   7.895  0.6806 -0.5804 -1.3269
  171SOPE   H8Y19378   1.616   2.419   7.855  0.9839  0.5865 -1.1522
  171SOPE   C3919379   1.566   2.603   7.935  0.0541  0.0251  0.3295
  171SOPE   H9X19380   1.463   2.583   7.897  0.6404  0.3799 -1.5987
  171SOPE   H9Y19381   1.605   2.706   7.920 -1.6811  0.9038  1.5631
  171SOPE  C31019382   1.575   2.572   8.084  0.7638  0.1583 -0.5711
  171SOPE  H10X19383   1.678   2.605   8.113  1.1104 -0.9522 -0.5041
  171SOPE  H10Y19384   1.548   2.467   8.106  0.1504  0.3043 -0.6169
  171SOPE  C31119385   1.489   2.661   8.174 -0.1776 -0.1062  0.7910
  171SOPE  H11X19386   1.508   2.771   8.175 -0.8102  0.0180 -0.1075
  171SOPE  H11Y19387   1.510   2.646   8.282  1.4745  0.6576  0.6097
  171SOPE  C31219388   1.343   2.651   8.160 -0.5113 -0.2629  0.8653
  171SOPE  H12X19389   1.305   2.547   8.152 -0.9759 -0.1070  0.9827
  171SOPE  H12Y19390   1.339   2.684   8.054  0.3369 -1.6198  0.3877
  171SOPE  C31319391   1.251   2.734   8.259 -0.1689 -0.0682  0.4477
  171SOPE  H13X19392   1.273   2.840   8.234  0.7374 -0.4331 -0.3486
  171SOPE  H13Y19393   1.287   2.713   8.362 -1.9590 -0.7222  0.9701
  171SOPE  C31419394   1.098   2.709   8.254  0.2997  0.0542  0.3301
  171SOPE  H14X19395   1.076   2.601   8.240 -1.7786  0.3381  1.0086
  171SOPE  H14Y19396   1.057   2.762   8.165  0.8558 -0.9684 -0.5639
  171SOPE  C31519397   1.001   2.765   8.359  0.3773 -0.4519 -0.3048
  171SOPE  H15X19398   0.899   2.746   8.319 -0.8625  2.7752  0.9648
  171SOPE  H15Y19399   1.008   2.874   8.380 -0.3020 -0.9056  2.8803
  171SOPE  C31619400   0.996   2.707   8.503  0.5254 -0.3730  0.0809
  171SOPE  H16X19401   0.937   2.614   8.490  0.9692 -0.3521 -2.7069
  171SOPE  H16Y19402   0.939   2.776   8.569  2.2327  1.8055 -0.5957
  171SOPE  C31719403   1.129   2.681   8.571 -0.0416  0.7463 -0.1057
  171SOPE  H17X19404   1.197   2.766   8.548 -0.6436  1.3211  0.2215
  171SOPE  H17Y19405   1.173   2.593   8.519  0.0721  0.9619 -0.3740
  171SOPE  C31819406   1.130   2.658   8.729 -0.5593  0.0562  0.5402
  171SOPE  H18X19407   1.063   2.577   8.767 -2.3595  1.7643  1.1744
  171SOPE  H18Y19408   1.085   2.748   8.775  1.3106  1.2666  0.1011
  171SOPE  H18Z19409   1.228   2.654   8.779 -0.7393  0.0814  0.8961
  172SOPE     N19410   3.961   4.286   6.292  0.0119  0.1951  0.0641
  172SOPE   HN119411   3.885   4.223   6.326 -0.1176  0.0451 -0.5018
  172SOPE   HN219412   4.022   4.235   6.226  1.1449  0.8568  0.5732
  172SOPE   HN319413   4.016   4.318   6.374 -0.5184  0.3793  0.3528
  172SOPE   C1219414   3.902   4.418   6.248 -0.4733 -0.5028 -0.3452
  172SOPE  H12A19415   3.821   4.393   6.176 -0.7940 -2.2761  0.5475
  172SOPE  H12B19416   3.988   4.476   6.211 -1.3255  0.9834 -0.0554
  172SOPE   C1119417   3.824   4.487   6.361 -0.3119  0.2033  1.0302
  172SOPE  H11A19418   3.804   4.588   6.319 -3.1345 -0.2961  0.9881
  172SOPE  H11B19419   3.888   4.506   6.450  0.6346 -0.8289  0.5933
  172SOPE     P19420   3.564   4.485   6.415  0.0030  0.7301  0.2262
  172SOPE   O1319421   3.464   4.373   6.443  0.3424 -0.5388 -0.2675
  172SOPE   O1419422   3.534   4.587   6.315  0.6304 -0.2790  0.0767
  172SOPE   O1219423   3.699   4.420   6.381 -0.4653  0.6668 -0.3726
  172SOPE   O1119424   3.582   4.553   6.555  0.6913 -0.0344 -0.0284
  172SOPE    C119425   3.580   4.485   6.680  0.2366 -0.5122 -0.2767
  172SOPE    HA19426   3.489   4.420   6.684 -1.2132  1.4100 -0.6045
  172SOPE    HB19427   3.549   4.553   6.762 -2.4065 -4.1446  2.0757
  172SOPE    C219428   3.710   4.424   6.731 -0.0718 -0.0807  0.0705
  172SOPE    HS19429   3.731   4.337   6.665  0.0056  1.1021 -1.5001
  172SOPE   O2119430   3.691   4.372   6.867  0.4592  0.3709 -0.1849
  172SOPE   C2119431   3.760   4.267   6.901  0.0746  0.0346 -0.0479
  172SOPE   O2219432   3.851   4.215   6.840  0.1911  0.3270  0.2964
  172SOPE   C2219433   3.716   4.225   7.042  0.1114 -0.3919  0.4990
  172SOPE   H2R19434   3.770   4.130   7.062 -0.0961 -0.2009  2.0359
  172SOPE   H2S19435   3.609   4.196   7.030  0.4351 -2.0136  1.2100
  172SOPE    C319436   3.834   4.516   6.735  0.4224  0.3541 -0.3898
  172SOPE    HX19437   3.857   4.551   6.632 -1.9481 -0.7132 -1.3599
  172SOPE    HY19438   3.920   4.462   6.780  0.7609  1.3323  0.1720
  172SOPE   O3119439   3.782   4.631   6.811 -0.4428  0.2224 -0.4048
  172SOPE   C3119440   3.851   4.663   6.921 -0.1160 -0.7582 -0.0330
  172SOPE   O3219441   3.940   4.597   6.972  0.0097  0.1256 -0.4716
  172SOPE   C3219442   3.791   4.798   6.964  0.3659  0.9140 -0.0676
  172SOPE   H2X19443   3.682   4.778   6.971  0.1738  1.2796 -1.5639
  172SOPE   H2Y19444   3.813   4.873   6.885  2.9514  1.7115  1.3062
  172SOPE   C2319445   3.733   4.337   7.145 -0.6686 -0.2443  0.0831
  172SOPE   H3R19446   3.688   4.432   7.108  1.2091  0.6406 -0.0592
  172SOPE   H3S19447   3.843   4.352   7.141 -0.5317 -0.9825 -4.3649
  172SOPE   C2419448   3.677   4.291   7.284 -0.0929 -0.8685  0.1370
  172SOPE   H4R19449   3.575   4.249   7.277 -0.0817 -1.6189  3.3234
  172SOPE   H4S19450   3.744   4.212   7.324 -1.0426 -1.9834 -0.4216
  172SOPE   C2519451   3.693   4.394   7.399  0.1593  0.0097 -0.7181
  172SOPE   H5R19452   3.796   4.387   7.439  0.4030 -2.7790 -1.6367
  172SOPE   H5S19453   3.662   4.496   7.366  0.2037  0.4141  0.4421
  172SOPE   C2619454   3.604   4.352   7.522  0.5963 -0.4836 -0.0953
  172SOPE   H6R19455   3.507   4.329   7.472  0.7374 -1.0758 -0.1086
  172SOPE   H6S19456   3.643   4.259   7.568 -0.2408 -0.0008  1.6920
  172SOPE   C2719457   3.568   4.458   7.633  0.3901 -0.6616  0.0069
  172SOPE   H7R19458   3.660   4.478   7.692  2.0214 -0.5258 -2.4394
  172SOPE   H7S19459   3.548   4.557   7.586  0.8790  1.0191  3.0627
  172SOPE   C2819460   3.445   4.428   7.721 -0.1891  0.2815 -0.2494
  172SOPE   H8R19461   3.351   4.413   7.664 -0.4641  1.5381 -0.1681
  172SOPE   H8S19462   3.458   4.325   7.759 -1.9622 -0.4386 -1.4463
  172SOPE   C2919463   3.417   4.521   7.842  0.4011  0.5291  0.7309
  172SOPE   H9119464   3.428   4.630   7.828 -0.2087  0.2328 -3.3151
  172SOPE  C21019465   3.366   4.474   7.957 -1.0296 -0.0979 -0.3135
  172SOPE  H10119466   3.323   4.544   8.031 -0.2043  2.2239 -1.9115
  172SOPE  C21119467   3.317   4.331   7.995  0.1761 -0.3726  0.3955
  172SOPE  H11R19468   3.386   4.275   8.062 -0.3853  0.4497  1.6834
  172SOPE  H11S19469   3.301   4.263   7.908  0.4582  1.2731 -1.0082
  172SOPE  C21219470   3.184   4.335   8.072 -0.1222 -0.5610  0.5747
  172SOPE  H12R19471   3.151   4.229   8.067  0.0481 -0.5793 -0.3484
  172SOPE  H12S19472   3.111   4.399   8.020 -0.1290 -0.9552  0.0906
  172SOPE  C21319473   3.184   4.386   8.218  0.6497  0.2711  0.1947
  172SOPE  H13R19474   3.077   4.386   8.251  0.8567  0.3692  0.8928
  172SOPE  H13S19475   3.213   4.493   8.219 -4.5711  2.0229 -1.4961
  172SOPE  C21419476   3.263   4.318   8.326  0.3407 -0.8706 -0.3914
  172SOPE  H14R19477   3.260   4.384   8.416  1.3078 -0.6056 -0.5428
  172SOPE  H14S19478   3.371   4.320   8.299  0.9816  1.2794  1.9055
  172SOPE  C21519479   3.212   4.174   8.364  0.3970 -0.9196  0.4357
  172SOPE  H15R19480   3.224   4.099   8.282  1.6106 -0.9738  0.6506
  172SOPE  H15S19481   3.110   4.185   8.406  1.3645 -0.4248  2.7763
  172SOPE  C21619482   3.284   4.100   8.478 -0.0697 -0.7348  0.0728
  172SOPE  H16R19483   3.393   4.122   8.469 -0.0937 -0.1531  1.0233
  172SOPE  H16S19484   3.289   3.991   8.456 -0.6500 -0.9459  0.9486
  172SOPE  C21719485   3.223   4.119   8.617  0.5688  0.2827 -0.4680
  172SOPE  H17R19486   3.122   4.071   8.621  2.2626 -3.6428 -0.0971
  172SOPE  H17S19487   3.201   4.226   8.636  2.2474  0.2644  1.9117
  172SOPE  C21819488   3.305   4.046   8.730  0.8336  0.7111 -0.3048
  172SOPE  H18R19489   3.319   3.940   8.700  1.0607  0.2691  1.2386
  172SOPE  H18S19490   3.261   4.055   8.832  0.8761  0.6333 -0.2794
  172SOPE  H18T19491   3.406   4.091   8.745 -0.1692  2.6248  1.2659
  172SOPE   C3319492   3.849   4.868   7.092 -0.6883 -0.3220 -0.5984
  172SOPE   H3X19493   3.817   4.975   7.090  1.3167  0.3177 -1.9332
  172SOPE   H3Y19494   3.960   4.875   7.089 -0.4251 -1.4574  2.7908
  172SOPE   C3419495   3.827   4.796   7.228 -0.0547 -1.3661 -0.0857
  172SOPE   H4X19496   3.837   4.686   7.216  2.4321 -1.4531  1.7460
  172SOPE   H4Y19497   3.723   4.817   7.261 -0.1475 -0.8943 -0.6587
  172SOPE   C3519498   3.922   4.843   7.338  0.3807  0.0152  0.4131
  172SOPE   H5X19499   3.899   4.950   7.356  0.0960 -0.0633  0.5213
  172SOPE   H5Y19500   4.029   4.837   7.309  0.6209  2.6033  0.5624
  172SOPE   C3619501   3.894   4.771   7.471  0.9835 -0.1229  0.3445
  172SOPE   H6X19502   3.910   4.665   7.442 -0.7983 -0.0963 -0.9107
  172SOPE   H6Y19503   3.786   4.778   7.495  0.6868  0.8721 -1.1207
  172SOPE   C3719504   3.989   4.796   7.594 -0.4065  0.5263 -0.1937
  172SOPE   H7X19505   3.986   4.900   7.632 -0.7129 -0.4455  2.6914
  172SOPE   H7Y19506   4.090   4.773   7.553 -1.6254 -1.0678 -2.5322
  172SOPE   C3819507   3.967   4.704   7.711 -0.6699 -0.6426 -0.1590
  172SOPE   H8X19508   3.959   4.600   7.672 -2.2557 -0.1028 -1.3544
  172SOPE   H8Y19509   3.864   4.731   7.741 -0.7100 -1.6276  0.6615
  172SOPE   C3919510   4.059   4.718   7.830  0.0715  0.2101 -0.4776
  172SOPE   H9X19511   4.071   4.825   7.857 -2.0623  0.6617 -1.0816
  172SOPE   H9Y19512   4.162   4.687   7.803  1.1932  3.0256  0.3057
  172SOPE  C31019513   4.006   4.643   7.952  0.2521 -0.3784 -0.6741
  172SOPE  H10X19514   4.004   4.533   7.940  1.1113 -0.5391  0.4617
  172SOPE  H10Y19515   3.909   4.680   7.992 -0.4368 -1.0998 -1.6337
  172SOPE  C31119516   4.103   4.653   8.066  0.3287 -0.6146  0.0326
  172SOPE  H11X19517   4.117   4.755   8.107  1.1435 -0.8321  0.3159
  172SOPE  H11Y19518   4.202   4.619   8.029  0.7911  0.4246  0.3029
  172SOPE  C31219519   4.068   4.556   8.187  0.1049  0.0212 -0.0039
  172SOPE  H12X19520   4.158   4.531   8.249  0.4747 -0.2169 -0.6316
  172SOPE  H12Y19521   4.041   4.459   8.142  2.4700 -0.2774 -0.8985
  172SOPE  C31319522   3.959   4.605   8.281  0.2255 -0.4462 -0.0270
  172SOPE  H13X19523   3.870   4.638   8.223  0.3285  0.8572  0.5178
  172SOPE  H13Y19524   3.982   4.705   8.324  1.4399 -0.4566 -0.6201
  172SOPE  C31419525   3.927   4.516   8.407  0.3439 -0.1521  0.2716
  172SOPE  H14X19526   3.880   4.580   8.484 -1.7879  0.5231 -1.5145
  172SOPE  H14Y19527   4.024   4.480   8.449 -0.6769  0.6984  3.6673
  172SOPE  C31519528   3.822   4.401   8.380 -0.3470 -0.6426 -0.2712
  172SOPE  H15X19529   3.814   4.340   8.472  0.9412  0.7523  0.8032
  172SOPE  H15Y19530   3.860   4.335   8.299 -1.6575 -0.8572 -0.7467
  172SOPE  C31619531   3.679   4.448   8.348 -0.2833 -0.5230  0.5055
  172SOPE  H16X19532   3.613   4.359   8.348 -0.0554 -0.7387  2.6840
  172SOPE  H16Y19533   3.692   4.494   8.248 -0.5282 -0.4583  0.5019
  172SOPE  C31719534   3.633   4.554   8.444 -0.5572  0.3520 -0.4814
  172SOPE  H17X19535   3.698   4.644   8.434  0.5439 -0.3580  0.1685
  172SOPE  H17Y19536   3.624   4.525   8.551  0.8686 -0.5517 -0.5833
  172SOPE  C31819537   3.495   4.618   8.411 -0.2694 -0.3309 -0.2271
  172SOPE  H18X19538   3.464   4.674   8.501 -1.0120  0.2544 -0.8313
  172SOPE  H18Y19539   3.418   4.538   8.413 -0.7878  0.1758  1.4079
  172SOPE  H18Z19540   3.488   4.685   8.322 -0.6521 -0.8974 -0.6346
  173SAPI   C1219541   5.591   1.829  10.988  1.1673  0.4910  1.1413
  173SAPI    H219542   5.543   1.746  11.044  2.0438  0.2174  1.4944
  173SAPI    O219543   5.532   1.948  11.038 -0.1205 -0.1376  0.2062
  173SAPI   HO219544   5.451   1.947  10.987  0.0205 -1.1507 -0.0296
  173SAPI   C1319545   5.737   1.810  11.016 -0.6920  0.1815 -0.5040
  173SAPI    H319546   5.765   1.706  10.990 -2.5006 -0.3004 -0.6810
  173SAPI    O319547   5.765   1.809  11.157 -0.1168 -0.6273  0.4552
  173SAPI   HO319548   5.802   1.895  11.179  0.6932 -1.3224  1.9861
  173SAPI   C1419549   5.822   1.907  10.938  0.2781 -0.3871  0.0399
  173SAPI    H419550   5.807   2.013  10.968 -0.5976  0.8489 -4.1024
  173SAPI    O419551   5.961   1.876  10.950  0.2754  0.3385 -0.0751
  173SAPI   HO419552   6.016   1.942  10.906 -0.5479  1.4156  0.4669
  173SAPI   C1519553   5.788   1.898  10.790  0.8526  0.2903  0.7117
  173SAPI    H519554   5.836   1.811  10.742  1.8666  1.2674 -0.1137
  173SAPI    O519555   5.854   2.004  10.715 -0.9235  0.1789  0.5184
  173SAPI   HO519556   5.800   2.084  10.721 -0.9991  0.1667  0.0535
  173SAPI   C1619557   5.631   1.909  10.763 -0.2430  0.2037  0.1464
  173SAPI    H619558   5.599   2.008  10.803  1.8861  0.4128  1.5272
  173SAPI    O619559   5.603   1.896  10.624 -0.5164  0.1420  0.1128
  173SAPI   HO619560   5.545   1.967  10.595 -0.4502  0.7495  1.3876
  173SAPI   C1119561   5.559   1.808  10.840 -0.3977 -0.0419 -0.1865
  173SAPI    H119562   5.596   1.707  10.814  0.0876  0.4965 -1.6819
  173SAPI     P19563   5.324   1.676  10.812  0.2763 -0.0748 -0.0467
  173SAPI   O1319564   5.188   1.709  10.860 -0.2978  0.0110 -0.4430
  173SAPI   O1419565   5.403   1.576  10.889  0.5118 -0.2748 -0.2245
  173SAPI   O1219566   5.417   1.811  10.817  0.0604 -0.0100  0.7189
  173SAPI   O1119567   5.325   1.637  10.661  0.2762 -0.3030 -0.0946
  173SAPI    C119568   5.216   1.640  10.571 -0.2418 -0.1727  0.0301
  173SAPI    HA19569   5.138   1.713  10.599  0.6639 -0.5539  4.2593
  173SAPI    HB19570   5.244   1.682  10.473 -0.4026 -1.5546 -0.6394
  173SAPI    C219571   5.136   1.514  10.554 -0.5694 -0.3059 -0.7030
  173SAPI    HS19572   5.105   1.476  10.654 -1.3785  1.3763 -0.2870
  173SAPI   O2119573   5.209   1.414  10.477 -0.9876  0.0247 -0.2587
  173SAPI   C2119574   5.170   1.294  10.461  0.3237 -0.4489 -0.4297
  173SAPI   O2219575   5.063   1.243  10.497 -0.8260  0.1888 -0.1353
  173SAPI   C2219576   5.278   1.207  10.396 -0.3668  0.4363 -0.6218
  173SAPI   H2R19577   5.363   1.268  10.360  1.2367 -0.2985  1.7143
  173SAPI   H2S19578   5.313   1.133  10.471  0.1346 -0.4302 -1.6890
  173SAPI    C319579   4.995   1.547  10.490  0.0975 -0.2608  0.0156
  173SAPI    HX19580   4.940   1.634  10.531  0.6029  0.6703 -1.2163
  173SAPI    HY19581   4.931   1.458  10.509  0.3215 -0.9233 -2.0730
  173SAPI   O3119582   5.013   1.575  10.348  0.1910  0.1827 -0.5970
  173SAPI   C3119583   4.909   1.546  10.271  0.5913 -0.2844  0.1287
  173SAPI   O3219584   4.814   1.479  10.306  0.1119 -0.1497  0.1623
  173SAPI   C3219585   4.923   1.622  10.143 -0.2121  0.0688  0.3397
  173SAPI   H2X19586   5.008   1.694  10.141 -1.2792  1.3497 -0.2035
  173SAPI   H2Y19587   4.826   1.673  10.125  0.4566  0.4141 -2.8336
  173SAPI   C2319588   5.208   1.126  10.275 -0.3608 -0.0366 -0.5189
  173SAPI   H3R19589   5.108   1.095  10.312 -0.0032  1.0880  1.5690
  173SAPI   H3S19590   5.273   1.041  10.245  0.0214  0.2243 -0.4426
  173SAPI   C2419591   5.184   1.207  10.148 -0.7765  0.1231  0.2622
  173SAPI   H4R19592   5.100   1.279  10.162 -1.6691 -0.8580  0.1301
  173SAPI   H4S19593   5.141   1.136  10.074 -0.7179 -0.6989  0.9934
  173SAPI   C2519594   5.311   1.270  10.093 -0.3751  0.9292  0.3377
  173SAPI   H5R19595   5.365   1.331  10.167  0.9661  1.0923 -0.7244
  173SAPI   C2619596   5.362   1.247   9.966 -0.2288  0.2337 -0.3747
  173SAPI   H6R19597   5.453   1.296   9.928  0.6387  0.4435  1.8178
  173SAPI   C2719598   5.292   1.164   9.859  0.3882 -0.4441 -0.5073
  173SAPI   H7R19599   5.285   1.228   9.768 -0.2857 -1.5775 -1.2730
  173SAPI   H7S19600   5.189   1.132   9.885  0.1523  0.4439 -0.3052
  173SAPI   C2819601   5.391   1.048   9.838  0.7078 -0.7037 -0.3096
  173SAPI   H8R19602   5.417   0.993   9.930 -0.0647  0.9596  0.9703
  173SAPI   C2919603   5.439   1.007   9.717  0.4955 -0.1563  0.2429
  173SAPI   H9R19604   5.504   0.919   9.708  1.2224  0.4185 -0.2377
  173SAPI  C21019605   5.402   1.074   9.591 -0.6860 -0.0862 -0.3693
  173SAPI  H10R19606   5.432   1.181   9.587 -1.0983 -0.0033 -1.8809
  173SAPI  H10S19607   5.291   1.079   9.580 -0.5064  3.6578 -2.2440
  173SAPI  C21119608   5.463   0.998   9.473 -0.2921 -0.5643 -0.0898
  173SAPI  H11R19609   5.499   0.895   9.486 -2.3249 -1.3447 -0.2869
  173SAPI  C21219610   5.469   1.037   9.343  0.2167  0.3572 -0.5521
  173SAPI  H12R19611   5.535   0.981   9.275  1.2216 -2.1243  2.2228
  173SAPI  C21319612   5.418   1.163   9.290  0.7303 -0.7761 -0.2130
  173SAPI  H13R19613   5.478   1.191   9.200  2.1842 -2.9049  0.0144
  173SAPI  H13S19614   5.438   1.239   9.368  0.7124 -1.5685  0.5745
  173SAPI  C21419615   5.271   1.154   9.257  0.3771  0.2906 -0.8758
  173SAPI  H14R19616   5.216   1.061   9.279 -0.5047  0.7779 -0.9423
  173SAPI  C21519617   5.198   1.244   9.189 -0.3970 -0.8342 -0.3692
  173SAPI  H15R19618   5.102   1.210   9.147 -1.0787  2.1532 -1.5014
  173SAPI  C21619619   5.241   1.377   9.140  0.2844  0.8737 -0.4561
  173SAPI  H16R19620   5.337   1.414   9.184 -0.7889  0.6197  2.2651
  173SAPI  H16S19621   5.167   1.453   9.173 -0.4229 -0.1393  0.3244
  173SAPI  C21719622   5.259   1.373   8.992  0.5010 -0.2073  0.7690
  173SAPI  H17R19623   5.312   1.285   8.950 -0.0859  0.3362 -1.2126
  173SAPI  H17S19624   5.315   1.463   8.960  0.1496 -0.8152 -1.7448
  173SAPI  C21819625   5.125   1.376   8.917 -0.2354  0.1641 -0.2849
  173SAPI  H18R19626   5.078   1.466   8.961 -1.4605 -0.4957 -0.1829
  173SAPI  H18S19627   5.062   1.290   8.947 -1.3293  1.2678  0.6850
  173SAPI  C21919628   5.147   1.380   8.768  0.4498  0.6500  0.2100
  173SAPI  H19R19629   5.048   1.346   8.730 -0.3609 -0.3027  2.9056
  173SAPI  H19S19630   5.232   1.315   8.742 -0.6710 -0.3068 -1.2152
  173SAPI  C22019631   5.187   1.520   8.712 -0.4106 -0.1217 -0.4336
  173SAPI  H20R19632   5.276   1.561   8.765 -0.2215  1.0942 -1.6444
  173SAPI  H20S19633   5.114   1.602   8.732  0.1594 -0.1513  2.1624
  173SAPI  H20T19634   5.192   1.523   8.601 -0.2821 -0.5414 -0.4393
  173SAPI   C3319635   4.952   1.521  10.017 -0.1643 -0.5314 -0.2630
  173SAPI   H3X19636   4.862   1.456  10.013  0.5373 -1.7568  2.0893
  173SAPI   H3Y19637   5.039   1.454  10.031 -1.6481 -2.9897 -2.1212
  173SAPI   C3419638   4.967   1.606   9.893 -0.0227 -0.5847  0.7497
  173SAPI   H4X19639   4.910   1.701   9.888 -1.6750 -1.5892 -1.4748
  173SAPI   H4Y19640   4.942   1.544   9.804 -2.0469 -0.8853  1.4775
  173SAPI   C3519641   5.121   1.647   9.875 -0.5587 -0.4410 -0.3647
  173SAPI   H5X19642   5.172   1.662   9.972  1.7123  1.3453 -1.7377
  173SAPI   H5Y19643   5.116   1.745   9.824  0.3435  0.9271  2.0560
  173SAPI   C3619644   5.204   1.544   9.789  0.1243 -0.7219  0.0144
  173SAPI   H6X19645   5.163   1.533   9.686 -0.7000  0.3102  0.2130
  173SAPI   H6Y19646   5.202   1.444   9.839  2.0703 -0.8941 -0.1637
  173SAPI   C3719647   5.353   1.573   9.787 -0.1457 -0.9204 -0.3760
  173SAPI   H7X19648   5.384   1.549   9.891 -0.0091 -0.8778 -0.4068
  173SAPI   H7Y19649   5.374   1.679   9.762 -0.6526 -0.7293 -0.0126
  173SAPI   C3819650   5.418   1.490   9.680  0.0955  0.3430  0.3353
  173SAPI   H8X19651   5.364   1.495   9.583  3.3255 -0.4428 -1.6423
  173SAPI   H8Y19652   5.407   1.381   9.698  1.5987 -0.0359 -0.8537
  173SAPI   C3919653   5.564   1.516   9.659 -0.1673 -0.5451 -0.0514
  173SAPI   H9X19654   5.623   1.482   9.747 -0.0738  1.2614  0.6386
  173SAPI   H9Y19655   5.579   1.626   9.665 -2.8382 -0.1267  0.6695
  173SAPI  C31019656   5.617   1.453   9.534 -0.1998  0.1949  0.0862
  173SAPI  H10X19657   5.598   1.343   9.530 -0.3737  0.2632 -1.6388
  173SAPI  H10Y19658   5.726   1.450   9.511 -0.7299 -1.8799 -2.7839
  173SAPI  C31119659   5.567   1.536   9.410  0.3607  0.4005 -0.1090
  173SAPI  H11X19660   5.603   1.641   9.410  0.4841  0.4302 -2.8028
  173SAPI  H11Y19661   5.456   1.541   9.404  0.4431  1.7278 -0.9213
  173SAPI  C31219662   5.625   1.484   9.273  0.3186  0.7809  0.3723
  173SAPI  H12X19663   5.597   1.377   9.260  1.2953  0.5660 -0.0183
  173SAPI  H12Y19664   5.734   1.464   9.273 -0.0273 -1.5787  2.2074
  173SAPI  C31319665   5.570   1.558   9.161  0.4915 -0.2207 -0.0013
  173SAPI  H13X19666   5.593   1.667   9.171  0.6838 -0.4869  4.2377
  173SAPI  H13Y19667   5.460   1.567   9.166  0.3929 -0.4762 -1.2603
  173SAPI  C31419668   5.595   1.506   9.025  0.4048  1.2352 -0.1193
  173SAPI  H14X19669   5.542   1.409   9.010  0.2223  0.9640  2.0330
  173SAPI  H14Y19670   5.699   1.474   9.005  0.1152  1.4620 -2.3271
  173SAPI  C31519671   5.566   1.614   8.914  0.1502  0.1265 -0.0733
  173SAPI  H15X19672   5.616   1.709   8.944  0.2387  0.4778 -1.2959
  173SAPI  H15Y19673   5.457   1.631   8.926  0.2375  0.3389  0.4782
  173SAPI  C31619674   5.604   1.583   8.767 -0.1169  0.3487 -0.4152
  173SAPI  H16X19675   5.524   1.509   8.745 -0.6927  1.1611 -1.0736
  173SAPI  H16Y19676   5.698   1.525   8.752 -0.1712  0.8011 -3.0893
  173SAPI  C31719677   5.592   1.698   8.668  0.0354 -0.1762 -0.0583
  173SAPI  H17X19678   5.665   1.776   8.700  1.8427 -2.2122  1.0256
  173SAPI  H17Y19679   5.492   1.745   8.675  0.7951  1.4273  0.5377
  173SAPI  C31819680   5.602   1.664   8.518 -0.4066  0.1518  0.1557
  173SAPI  H18X19681   5.706   1.636   8.490 -1.3494 -1.1169 -2.4188
  173SAPI  H18Y19682   5.582   1.755   8.458  0.4045 -0.3754 -0.9465
  173SAPI  H18Z19683   5.532   1.583   8.488 -0.6631  0.8072 -1.0613
  174SAPI   C1219684   0.907   2.972  10.848  0.6113 -0.1372 -0.0806
  174SAPI    H219685   1.000   2.959  10.909 -0.0981 -1.0276  0.8476
  174SAPI    O219686   0.808   2.900  10.909 -0.6019 -0.3086 -0.3474
  174SAPI   HO219687   0.791   2.939  10.995 -0.5063 -1.4183  0.1903
  174SAPI   C1319688   0.871   3.115  10.859  0.3288  0.2507 -0.0275
  174SAPI    H319689   0.953   3.179  10.821  0.4317  0.5008  0.6081
  174SAPI    O319690   0.846   3.166  10.987  0.5434  0.2680 -0.3345
  174SAPI   HO319691   0.920   3.207  11.033 -0.5606 -0.4610  2.2891
  174SAPI   C1419692   0.748   3.140  10.772  0.4907 -0.5151 -0.4164
  174SAPI    H419693   0.663   3.093  10.824 -0.1760  2.1211  1.0796
  174SAPI    O419694   0.701   3.276  10.772 -0.1274  0.1842 -0.5171
  174SAPI   HO419695   0.772   3.336  10.797 -1.8027  3.3277 -2.5756
  174SAPI   C1519696   0.766   3.085  10.632  0.6373  0.7536 -0.0155
  174SAPI    H519697   0.854   3.137  10.588 -0.4158  2.0187 -0.6731
  174SAPI    O519698   0.654   3.112  10.549  0.1557  0.4504 -0.2330
  174SAPI   HO519699   0.674   3.179  10.483 -0.5431  0.3364 -0.5644
  174SAPI   C1619700   0.813   2.947  10.630 -0.0518 -0.1441 -0.1838
  174SAPI    H619701   0.736   2.879  10.674  0.7229 -1.1233 -0.2995
  174SAPI    O619702   0.826   2.890  10.507 -0.2646  0.1862  0.0276
  174SAPI   HO619703   0.895   2.827  10.531  1.4904  1.1893 -2.0514
  174SAPI   C1119704   0.936   2.927  10.706  0.3159  0.5552 -0.1805
  174SAPI    H119705   1.011   2.997  10.663  2.7183  0.9780  4.1090
  174SAPI     P19706   1.143   2.759  10.715  0.3359 -0.3451 -0.1364
  174SAPI   O1319707   1.167   2.614  10.742  0.2060  0.5039  0.1784
  174SAPI   O1419708   1.205   2.853  10.807  0.3718 -0.0715  0.2785
  174SAPI   O1219709   0.986   2.792  10.688  0.4232 -0.4252  0.0816
  174SAPI   O1119710   1.199   2.788  10.570 -0.8289 -0.3539  0.1724
  174SAPI    C119711   1.205   2.680  10.469  0.3902 -0.6861 -1.1389
  174SAPI    HA19712   1.294   2.615  10.483  0.6097  0.2091  2.3689
  174SAPI    HB19713   1.115   2.614  10.472  0.1074 -0.2784 -0.5137
  174SAPI    C219714   1.223   2.737  10.322 -0.0329  0.0569  0.3026
  174SAPI    HS19715   1.192   2.657  10.251 -1.9856  1.4011 -0.4567
  174SAPI   O2119716   1.356   2.790  10.318  0.5520  0.0310 -0.2084
  174SAPI   C2119717   1.416   2.767  10.200  0.5399 -0.0837  0.5430
  174SAPI   O2219718   1.375   2.686  10.116  0.2146 -0.4324  0.3843
  174SAPI   C2219719   1.548   2.845  10.191  0.1342 -0.2271 -0.3588
  174SAPI   H2R19720   1.534   2.954  10.203  0.4835 -0.0825 -1.2021
  174SAPI   H2S19721   1.617   2.819  10.274 -0.4725 -2.2323 -0.4137
  174SAPI    C319722   1.118   2.847  10.292 -0.0857  0.2347  0.0284
  174SAPI    HX19723   1.113   2.915  10.380 -2.1970 -1.9684  1.7457
  174SAPI    HY19724   1.016   2.803  10.298  0.0882 -0.2548 -0.5126
  174SAPI   O3119725   1.140   2.919  10.169 -0.3128 -0.2374  0.2067
  174SAPI   C3119726   1.079   2.867  10.063 -0.0679 -0.3307  0.5572
  174SAPI   O3219727   1.002   2.770  10.069 -0.2865 -0.0535 -0.2955
  174SAPI   C3219728   1.100   2.952   9.937  0.0706  0.2374  0.7725
  174SAPI   H2X19729   1.204   2.993   9.944 -0.0862  1.1476 -1.4292
  174SAPI   H2Y19730   1.027   3.035   9.949  0.6467  0.6408  1.6284
  174SAPI   C2319731   1.620   2.833  10.053  0.5180  0.5353 -0.3466
  174SAPI   H3R19732   1.612   2.725  10.029  1.1973  0.7166 -1.4786
  174SAPI   H3S19733   1.723   2.865  10.078  1.1735 -0.8415 -1.1568
  174SAPI   C2419734   1.541   2.904   9.938  0.6030  0.1664 -1.0042
  174SAPI   H4R19735   1.538   3.013   9.958 -0.9820 -0.0175 -0.0546
  174SAPI   H4S19736   1.437   2.866   9.937  1.2348 -2.3456  2.9215
  174SAPI   C2519737   1.616   2.876   9.810 -0.3034 -0.0744 -0.7099
  174SAPI   H5R19738   1.659   2.774   9.809  2.9444  1.1687 -0.4180
  174SAPI   C2619739   1.636   2.961   9.704  0.7988  0.1424  0.2508
  174SAPI   H6R19740   1.685   2.907   9.622 -3.4402 -3.4944 -0.2651
  174SAPI   C2719741   1.579   3.109   9.681 -0.0815 -0.5074 -0.7523
  174SAPI   H7R19742   1.620   3.168   9.765  3.0146 -1.7349 -1.2854
  174SAPI   H7S19743   1.468   3.115   9.685  0.0223  1.1971  1.2951
  174SAPI   C2819744   1.622   3.170   9.550 -0.7100 -0.0372  0.6534
  174SAPI   H8R19745   1.730   3.154   9.539 -1.1158 -2.3390 -0.9987
  174SAPI   C2919746   1.553   3.220   9.448 -0.1207 -0.5835  0.7422
  174SAPI   H9R19747   1.603   3.259   9.358  0.8566 -2.5239  0.3852
  174SAPI  C21019748   1.402   3.225   9.442 -0.0506  0.1488 -0.1712
  174SAPI  H10R19749   1.371   3.315   9.500 -2.2199  0.3566 -1.5247
  174SAPI  H10S19750   1.360   3.135   9.492  0.3998 -0.2566 -0.5194
  174SAPI  C21119751   1.346   3.251   9.304 -0.1409  0.4844 -0.1382
  174SAPI  H11R19752   1.383   3.338   9.248 -1.3769  0.2897 -1.3171
  174SAPI  C21219753   1.273   3.165   9.236  0.9185 -0.4286 -0.0323
  174SAPI  H12R19754   1.228   3.193   9.140 -1.3511 -1.6745  0.5832
  174SAPI  C21319755   1.232   3.028   9.278 -0.3212  0.0862  0.5446
  174SAPI  H13R19756   1.124   3.005   9.260 -0.2598 -0.8926  1.3696
  174SAPI  H13S19757   1.231   3.028   9.389 -1.7857 -0.4798  0.5524
  174SAPI  C21419758   1.330   2.908   9.242 -0.5081 -0.9699  0.0118
  174SAPI  H14R19759   1.368   2.846   9.324 -1.2237 -0.2695  0.8923
  174SAPI  C21519760   1.372   2.871   9.123  0.4200  0.2118 -0.0359
  174SAPI  H15R19761   1.440   2.788   9.101 -0.9881 -1.1934  0.7894
  174SAPI  C21619762   1.328   2.938   8.998  0.3108  0.3143  0.2818
  174SAPI  H16R19763   1.347   3.048   9.006 -1.8502  1.0035 -2.4203
  174SAPI  H16S19764   1.222   2.918   8.970  0.7240 -0.4316 -0.8310
  174SAPI  C21719765   1.421   2.908   8.875 -0.4128  0.1416 -0.1644
  174SAPI  H17R19766   1.404   2.802   8.844  2.1670 -0.1829 -0.7052
  174SAPI  H17S19767   1.524   2.934   8.907 -1.3010 -0.1762  3.4772
  174SAPI  C21819768   1.384   2.990   8.746 -0.7661 -0.3490 -0.3401
  174SAPI  H18R19769   1.372   3.098   8.769  2.0079  0.0817 -0.6795
  174SAPI  H18S19770   1.283   2.952   8.718 -1.1940  0.7033 -0.2799
  174SAPI  C21919771   1.458   2.958   8.613  0.1578 -0.4795 -0.8468
  174SAPI  H19R19772   1.397   2.990   8.526  1.1690 -3.8759 -3.0133
  174SAPI  H19S19773   1.456   2.847   8.606 -2.2543 -0.4936 -0.5057
  174SAPI  C22019774   1.600   3.009   8.615 -0.3882  0.7674  0.3948
  174SAPI  H20R19775   1.652   2.977   8.522 -0.2517  0.0552  0.7072
  174SAPI  H20S19776   1.660   2.968   8.699  0.4396  0.3151 -0.3883
  174SAPI  H20T19777   1.609   3.119   8.607 -0.0708  0.6611 -1.2216
  174SAPI   C3319778   1.073   2.881   9.805  0.4365  0.3364 -0.1396
  174SAPI   H3X19779   0.982   2.817   9.808 -1.7455  2.8375 -4.1313
  174SAPI   H3Y19780   1.157   2.809   9.794 -0.7309 -1.0074 -0.6235
  174SAPI   C3419781   1.064   2.985   9.687  0.2448  0.0400 -0.4943
  174SAPI   H4X19782   1.070   2.933   9.589  0.1113 -2.2322  0.6305
  174SAPI   H4Y19783   1.146   3.060   9.688  0.2436  0.0458  0.2455
  174SAPI   C3519784   0.928   3.065   9.684 -0.0030  0.0164  0.3812
  174SAPI   H5X19785   0.902   3.126   9.774 -1.7875  0.1340 -0.1771
  174SAPI   H5Y19786   0.844   2.993   9.698 -0.5226  0.7117  0.9668
  174SAPI   C3619787   0.901   3.149   9.561  0.4004 -0.0400  0.7577
  174SAPI   H6X19788   0.895   3.076   9.477 -1.2668 -0.7204  1.4247
  174SAPI   H6Y19789   0.986   3.217   9.539 -0.9422  0.7949 -2.3297
  174SAPI   C3719790   0.776   3.233   9.554  0.0153 -0.3250 -0.8020
  174SAPI   H7X19791   0.791   3.312   9.630  0.4695 -0.7651 -0.4318
  174SAPI   H7Y19792   0.696   3.167   9.594  1.3589 -0.5086  1.7938
  174SAPI   C3819793   0.751   3.325   9.428 -0.1850 -0.6761 -0.3762
  174SAPI   H8X19794   0.836   3.396   9.414  0.1186 -0.5708  1.7533
  174SAPI   H8Y19795   0.657   3.383   9.442 -0.6326 -1.3941 -0.3720
  174SAPI   C3919796   0.736   3.243   9.295 -0.2565  0.1610  0.1896
  174SAPI   H9X19797   0.665   3.158   9.306  0.9839 -0.9305 -0.0044
  174SAPI   H9Y19798   0.834   3.195   9.276  0.7715  2.0748  0.3904
  174SAPI  C31019799   0.699   3.321   9.170  0.0364  0.2604  0.1597
  174SAPI  H10X19800   0.776   3.396   9.142 -0.0383 -0.1633 -1.2622
  174SAPI  H10Y19801   0.600   3.368   9.188  0.7922  1.2697  1.8623
  174SAPI  C31119802   0.685   3.219   9.059  0.5355 -0.2930  0.6744
  174SAPI  H11X19803   0.633   3.271   8.975  1.7640  0.5167  0.3845
  174SAPI  H11Y19804   0.612   3.142   9.093 -0.1240  0.1600  0.3155
  174SAPI  C31219805   0.819   3.167   8.996  0.1875 -0.4585 -0.5935
  174SAPI  H12X19806   0.891   3.145   9.077 -0.1144  1.5434  0.2741
  174SAPI  H12Y19807   0.865   3.256   8.947 -1.9331  1.3236  0.4900
  174SAPI  C31319808   0.808   3.057   8.886  0.3647  0.3647  0.1285
  174SAPI  H13X19809   0.740   2.978   8.923  0.6404 -0.6682 -1.4241
  174SAPI  H13Y19810   0.904   3.003   8.868 -0.2796 -0.0567 -2.4405
  174SAPI  C31419811   0.741   3.095   8.752  0.0522 -0.3126  0.0907
  174SAPI  H14X19812   0.811   3.169   8.709 -1.7383  0.9459 -0.8283
  174SAPI  H14Y19813   0.640   3.135   8.777  0.9297  1.9574  0.2125
  174SAPI  C31519814   0.730   2.983   8.644  0.5618 -0.0504 -0.3680
  174SAPI  H15X19815   0.718   2.887   8.700  1.6064 -0.0123 -0.0659
  174SAPI  H15Y19816   0.837   2.984   8.616  0.9523  0.6689  1.0662
  174SAPI  C31619817   0.631   3.007   8.532  0.0779  0.3822 -0.1889
  174SAPI  H16X19818   0.642   3.110   8.490 -0.2695  0.8768  0.8895
  174SAPI  H16Y19819   0.535   2.995   8.586 -0.3446 -2.8070 -1.4759
  174SAPI  C31719820   0.632   2.898   8.417  0.0736  0.3172  0.3795
  174SAPI  H17X19821   0.594   2.801   8.455  3.4913 -1.1277  0.4521
  174SAPI  H17Y19822   0.739   2.880   8.394 -0.3480 -1.3169 -0.4112
  174SAPI  C31819823   0.553   2.925   8.289 -0.1630 -1.1643 -0.1514
  174SAPI  H18X19824   0.447   2.939   8.322  0.4440 -0.0217  1.4276
  174SAPI  H18Y19825   0.560   2.846   8.212 -0.0211  0.0225 -1.3783
  174SAPI  H18Z19826   0.585   3.020   8.243  1.5499 -1.9262 -0.6171
  175SAPI   C1219827   2.203   1.731   6.190  0.0114 -0.2405  0.0728
  175SAPI    H219828   2.256   1.723   6.092 -0.4707 -3.0087 -0.0271
  175SAPI    O219829   2.108   1.841   6.177  0.2370  0.6582 -0.5632
  175SAPI   HO219830   2.155   1.907   6.125 -0.4544  0.9350 -0.8523
  175SAPI   C1319831   2.132   1.606   6.216  0.5346 -0.3382  0.0963
  175SAPI    H319832   2.205   1.527   6.245  0.7130  0.1714  1.0821
  175SAPI    O319833   2.053   1.568   6.105 -0.0694  0.2974 -0.6937
  175SAPI   HO319834   1.970   1.529   6.134  0.7897 -1.3043 -0.2510
  175SAPI   C1419835   2.041   1.621   6.339 -0.4387 -1.0526 -0.4724
  175SAPI    H419836   1.974   1.708   6.323  1.0230 -0.0686 -1.5968
  175SAPI    O419837   1.965   1.499   6.359  0.3000 -0.2755  0.0134
  175SAPI   HO419838   2.029   1.439   6.398  1.2277 -0.3170 -1.5020
  175SAPI   C1519839   2.129   1.655   6.457  0.0673 -0.0388  0.7293
  175SAPI    H519840   2.194   1.566   6.471  0.4426  0.0759 -0.1998
  175SAPI    O519841   2.059   1.671   6.575  0.5853  0.2253  0.1423
  175SAPI   HO519842   2.046   1.585   6.614 -3.0510 -0.1047 -1.4194
  175SAPI   C1619843   2.225   1.768   6.431 -0.1607 -0.2324  0.1003
  175SAPI    H619844   2.169   1.863   6.420 -0.7779 -0.6367 -0.2700
  175SAPI    O619845   2.314   1.786   6.542  0.2675  0.0253  0.1928
  175SAPI   HO619846   2.375   1.860   6.535 -0.8896  1.1950  1.6767
  175SAPI   C1119847   2.304   1.753   6.302 -0.1136  0.7679  0.3129
  175SAPI    H119848   2.372   1.666   6.315 -0.4390  0.4425 -0.1251
  175SAPI     P19849   2.519   1.872   6.207 -0.3379  0.3248  0.0464
  175SAPI   O1319850   2.544   1.993   6.128 -0.1437 -0.0039  0.2234
  175SAPI   O1419851   2.560   1.748   6.146  0.0628 -0.0452  0.1889
  175SAPI   O1219852   2.368   1.874   6.263  0.4416 -0.3563 -0.2523
  175SAPI   O1119853   2.599   1.897   6.345  0.4711 -0.6439  0.0772
  175SAPI    C119854   2.578   2.019   6.411 -0.0292 -1.1336 -0.3737
  175SAPI    HA19855   2.618   2.103   6.349  0.7997 -1.4814 -0.3268
  175SAPI    HB19856   2.470   2.033   6.433 -0.1836 -3.3426  0.5279
  175SAPI    C219857   2.632   2.019   6.564  0.0967  0.3584 -0.3968
  175SAPI    HS19858   2.740   1.993   6.557  0.1052 -0.0806  1.0260
  175SAPI   O2119859   2.564   1.913   6.632  0.0185 -0.3971 -0.0389
  175SAPI   C2119860   2.615   1.879   6.756 -0.2160  0.1615 -0.2493
  175SAPI   O2219861   2.727   1.915   6.796 -0.0287  0.3214 -0.4743
  175SAPI   C2219862   2.509   1.797   6.835  0.1918  0.0178  0.2567
  175SAPI   H2R19863   2.413   1.853   6.847  0.5361  0.2618  2.1838
  175SAPI   H2S19864   2.482   1.712   6.770  0.2665 -0.6796  1.1177
  175SAPI    C319865   2.630   2.157   6.636  0.0430  0.5169 -0.2501
  175SAPI    HX19866   2.677   2.235   6.572  0.4311 -0.0394 -0.6596
  175SAPI    HY19867   2.695   2.148   6.725  0.1554 -0.6576 -0.4258
  175SAPI   O3119868   2.499   2.194   6.691 -0.3492  0.2224 -0.1206
  175SAPI   C3119869   2.439   2.290   6.625 -0.3757  0.3770  0.1013
  175SAPI   O3219870   2.482   2.352   6.529  0.4250  0.1298 -0.1057
  175SAPI   C3219871   2.291   2.287   6.673 -0.8107  0.1184 -0.7001
  175SAPI   H2X19872   2.283   2.233   6.770 -1.8141  0.3922 -0.6197
  175SAPI   H2Y19873   2.236   2.232   6.594  1.6625 -0.3578 -2.2158
  175SAPI   C2319874   2.562   1.748   6.973 -0.2850 -0.1667  0.2645
  175SAPI   H3R19875   2.652   1.687   6.948 -0.0859  0.2535 -0.0479
  175SAPI   H3S19876   2.491   1.676   7.020  1.9663 -1.0200  2.6191
  175SAPI   C2419877   2.592   1.855   7.089 -0.0516  0.3618  0.4990
  175SAPI   H4R19878   2.633   1.945   7.040 -0.3881 -0.8466 -2.2013
  175SAPI   H4S19879   2.675   1.813   7.150 -0.4728  2.4912  2.6808
  175SAPI   C2519880   2.468   1.877   7.181 -0.2885 -0.2540  0.4119
  175SAPI   H5R19881   2.375   1.907   7.131 -1.0853 -2.2668  0.6033
  175SAPI   C2619882   2.468   1.872   7.314 -0.4566 -0.5666 -0.5704
  175SAPI   H6R19883   2.381   1.889   7.378  0.8533  0.1779  1.1054
  175SAPI   C2719884   2.583   1.839   7.411 -0.4391 -0.0573 -0.3103
  175SAPI   H7R19885   2.561   1.873   7.515 -0.5510 -0.6984 -0.1160
  175SAPI   H7S19886   2.678   1.882   7.374 -0.9200  0.2097 -1.2512
  175SAPI   C2819887   2.603   1.687   7.412  0.7936  0.0926  0.4150
  175SAPI   H8R19888   2.563   1.636   7.323 -0.1367 -1.7436  1.8460
  175SAPI   C2919889   2.664   1.619   7.510  0.5605 -0.6166 -0.3675
  175SAPI   H9R19890   2.682   1.512   7.494 -0.3119 -0.9861  1.0018
  175SAPI  C21019891   2.721   1.691   7.639 -0.2811  0.5493  0.4614
  175SAPI  H10R19892   2.634   1.741   7.686 -0.4343 -0.5825  1.4675
  175SAPI  H10S19893   2.792   1.768   7.603 -2.0229  1.0898 -2.0072
  175SAPI  C21119894   2.775   1.589   7.744  0.2163 -0.1408  0.2280
  175SAPI  H11R19895   2.799   1.488   7.708  4.1602 -0.7679  3.8897
  175SAPI  C21219896   2.832   1.609   7.863  0.7001 -0.4344  0.3471
  175SAPI  H12R19897   2.862   1.519   7.919  1.0607 -1.5402 -1.5042
  175SAPI  C21319898   2.856   1.738   7.937 -0.4185  0.1235 -0.4975
  175SAPI  H13R19899   2.775   1.810   7.911  0.0922  1.8238  2.2164
  175SAPI  H13S19900   2.947   1.791   7.902 -0.3418  0.2602 -0.0993
  175SAPI  C21419901   2.853   1.719   8.089 -0.6280  0.6305 -0.2083
  175SAPI  H14R19902   2.767   1.774   8.130 -0.0264  1.8076 -0.4682
  175SAPI  C21519903   2.916   1.628   8.162  0.0428  0.0333  0.3074
  175SAPI  H15R19904   2.891   1.626   8.269 -2.2102  0.9073 -0.1573
  175SAPI  C21619905   3.015   1.530   8.115 -0.3079 -0.4888  0.2410
  175SAPI  H16R19906   3.062   1.558   8.018 -1.5327 -1.7862 -0.7656
  175SAPI  H16S19907   2.973   1.429   8.095  0.3478 -1.0563  1.6587
  175SAPI  C21719908   3.134   1.508   8.214 -0.0721 -0.0062 -0.3900
  175SAPI  H17R19909   3.182   1.606   8.231  1.5552 -0.7055 -0.7521
  175SAPI  H17S19910   3.210   1.447   8.161 -0.4761 -0.7539 -0.1257
  175SAPI  C21819911   3.090   1.437   8.340  0.4698  0.0303 -0.1840
  175SAPI  H18R19912   3.008   1.362   8.331 -1.3709  1.5351  2.5869
  175SAPI  H18S19913   3.035   1.508   8.405 -0.7870 -1.5204  0.5494
  175SAPI  C21919914   3.207   1.378   8.425 -0.4025 -0.0973  0.1081
  175SAPI  H19R19915   3.280   1.339   8.351 -0.0348  2.1930 -0.8369
  175SAPI  H19S19916   3.160   1.293   8.479 -1.9400  0.4938 -0.2353
  175SAPI  C22019917   3.263   1.471   8.533 -0.7592  0.2503  0.2443
  175SAPI  H20R19918   3.201   1.487   8.623 -0.2681 -0.7906  0.7833
  175SAPI  H20S19919   3.273   1.572   8.487  2.0986 -0.0618  0.0002
  175SAPI  H20T19920   3.364   1.446   8.574 -1.5848 -0.1217  2.1454
  175SAPI   C3319921   2.227   2.429   6.694 -1.0569 -0.1370  0.1183
  175SAPI   H3X19922   2.118   2.417   6.705 -0.9083 -1.0071  0.7803
  175SAPI   H3Y19923   2.248   2.486   6.601 -0.5287  1.5572  1.2435
  175SAPI   C3419924   2.266   2.512   6.810  0.0618  0.1304  0.3987
  175SAPI   H4X19925   2.223   2.614   6.803  1.3567  0.5962 -1.2606
  175SAPI   H4Y19926   2.374   2.537   6.813  0.3434 -0.9501 -0.3596
  175SAPI   C3519927   2.229   2.440   6.940  0.3722 -0.2484  0.2771
  175SAPI   H5X19928   2.290   2.347   6.950 -0.1888 -0.8449 -1.6014
  175SAPI   H5Y19929   2.123   2.408   6.944  0.2148 -0.0848 -1.7455
  175SAPI   C3619930   2.248   2.524   7.071 -0.4841  0.1844 -0.0560
  175SAPI   H6X19931   2.177   2.610   7.066 -1.2323 -0.4840 -1.2246
  175SAPI   H6Y19932   2.352   2.553   7.097 -0.7971 -0.4415  2.0596
  175SAPI   C3719933   2.208   2.448   7.195  0.3406 -0.5153  0.2905
  175SAPI   H7X19934   2.253   2.347   7.210 -1.8422 -1.6312 -0.2028
  175SAPI   H7Y19935   2.101   2.418   7.182  0.7706 -2.4787  0.9638
  175SAPI   C3819936   2.235   2.534   7.320  0.4059 -0.0185 -0.3082
  175SAPI   H8X19937   2.178   2.629   7.304  0.1278 -0.0365  0.5593
  175SAPI   H8Y19938   2.340   2.571   7.322  0.3385  0.3217 -1.8221
  175SAPI   C3919939   2.188   2.468   7.448  0.1729 -0.2649 -0.6646
  175SAPI   H9X19940   2.279   2.419   7.489  0.9122 -1.6810 -3.7143
  175SAPI   H9Y19941   2.118   2.384   7.427 -0.1776 -0.4220  0.9926
  175SAPI  C31019942   2.137   2.568   7.551 -0.0660 -0.4938  0.1661
  175SAPI  H10X19943   2.051   2.629   7.518  0.7502  0.5997  0.0007
  175SAPI  H10Y19944   2.222   2.636   7.576  2.8131 -2.7114 -2.6950
  175SAPI  C31119945   2.106   2.504   7.686 -1.2681  0.2403 -0.0381
  175SAPI  H11X19946   2.205   2.460   7.712 -0.4228  1.9857 -0.1678
  175SAPI  H11Y19947   2.032   2.425   7.663  0.2391 -0.5708 -2.5565
  175SAPI  C31219948   2.061   2.589   7.802  0.3245  0.3700  0.2022
  175SAPI  H12X19949   1.967   2.638   7.768  0.1835 -0.8886 -1.3725
  175SAPI  H12Y19950   2.137   2.667   7.823 -1.3725  1.8958  0.8534
  175SAPI  C31319951   2.049   2.513   7.933  0.4543 -0.1660 -0.5212
  175SAPI  H13X19952   2.145   2.461   7.955 -0.1456 -1.9651 -1.8794
  175SAPI  H13Y19953   1.968   2.438   7.923 -0.7191  1.0642 -0.5300
  175SAPI  C31419954   2.000   2.603   8.049 -0.1027 -0.1963  0.2803
  175SAPI  H14X19955   1.917   2.660   8.004  1.1432  1.8465  0.4634
  175SAPI  H14Y19956   2.080   2.675   8.075  0.1458 -0.7411  1.0531
  175SAPI  C31519957   1.959   2.528   8.181 -0.2190  0.8284 -0.8655
  175SAPI  H15X19958   2.048   2.468   8.210 -2.0660 -0.9069  1.6600
  175SAPI  H15Y19959   1.874   2.462   8.155  0.2427 -0.3240  0.4417
  175SAPI  C31619960   1.930   2.630   8.289  0.0325 -0.3059  0.5291
  175SAPI  H16X19961   1.828   2.674   8.284 -0.2014 -0.7404  1.2940
  175SAPI  H16Y19962   2.004   2.711   8.273  0.7677 -1.2154 -0.9763
  175SAPI  C31719963   1.936   2.564   8.431 -0.1746  0.2347  0.4284
  175SAPI  H17X19964   2.040   2.528   8.448 -1.0125 -2.5345  0.1530
  175SAPI  H17Y19965   1.876   2.472   8.415  0.5088 -0.3891  1.2967
  175SAPI  C31819966   1.893   2.669   8.532 -0.1290  0.1017  0.3027
  175SAPI  H18X19967   1.950   2.764   8.516  1.7169 -0.8934  0.6807
  175SAPI  H18Y19968   1.914   2.635   8.636  0.7958  1.4622  0.5969
  175SAPI  H18Z19969   1.785   2.693   8.522 -0.8240 -2.3116  1.3938
  176SAPI   C1219970   3.868   5.538   6.295  0.4626 -0.0672  0.2563
  176SAPI    H219971   3.971   5.513   6.328  1.5065  2.9674 -0.3778
  176SAPI    O219972   3.881   5.605   6.170 -0.0692  0.8152 -0.1099
  176SAPI   HO219973   3.901   5.697   6.184  0.1784  0.3371  3.7432
  176SAPI   C1319974   3.801   5.409   6.281  0.0275 -0.4550 -0.9160
  176SAPI    H319975   3.805   5.365   6.383  0.8007  2.6705  0.4951
  176SAPI    O319976   3.865   5.316   6.194 -0.2677 -0.2055 -0.6126
  176SAPI   HO319977   3.879   5.361   6.110  0.9897 -1.6200 -1.2115
  176SAPI   C1419978   3.656   5.425   6.248  0.1764  0.0319  0.1750
  176SAPI    H419979   3.661   5.470   6.147  1.8589  0.0119  0.2310
  176SAPI    O419980   3.581   5.302   6.234 -0.4604 -0.4568  0.0058
  176SAPI   HO419981   3.485   5.303   6.233 -0.4536  0.1673 -0.4669
  176SAPI   C1519982   3.583   5.521   6.344  0.5384 -0.0856  0.4212
  176SAPI    H519983   3.589   5.469   6.442  1.5749  1.3504  1.1625
  176SAPI    O519984   3.448   5.543   6.302 -0.2600  0.6752  0.4619
  176SAPI   HO519985   3.389   5.517   6.373 -0.7559 -0.8227 -0.4321
  176SAPI   C1619986   3.653   5.651   6.360 -0.2213  0.4738 -0.5108
  176SAPI    H619987   3.641   5.703   6.263 -1.0808  0.2244 -0.5416
  176SAPI    O619988   3.598   5.742   6.456  0.2301  0.0872  0.2395
  176SAPI   HO619989   3.579   5.690   6.535  4.3889  0.8319  1.9893
  176SAPI   C1119990   3.795   5.623   6.399 -0.6456  0.9056 -0.3420
  176SAPI    H119991   3.779   5.572   6.496 -0.2605  0.3490 -0.5699
  176SAPI     P19992   3.987   5.734   6.550 -0.5521 -0.3463 -0.1723
  176SAPI   O1319993   4.055   5.872   6.554 -0.6540 -0.3021  0.2791
  176SAPI   O1419994   4.073   5.613   6.542 -0.3820  0.0714 -0.8070
  176SAPI   O1219995   3.874   5.741   6.428 -0.2947  0.3108  0.7488
  176SAPI   O1119996   3.884   5.722   6.673 -0.4075 -0.4041 -0.4217
  176SAPI    C119997   3.834   5.842   6.740  0.3672 -0.2090  0.2907
  176SAPI    HA19998   3.837   5.932   6.675 -1.0248 -1.0061 -0.9437
  176SAPI    HB19999   3.728   5.826   6.766  0.1367 -0.4831 -0.7539
  176SAPI    C220000   3.903   5.860   6.872 -0.7588 -0.5822 -0.2473
  176SAPI    HS20001   4.008   5.890   6.848 -0.4393 -1.4149  0.0868
  176SAPI   O2120002   3.889   5.742   6.946  0.2730 -0.1601 -0.3055
  176SAPI   C2120003   3.973   5.734   7.038 -0.1140  0.2154 -0.0866
  176SAPI   O2220004   4.069   5.812   7.062  0.4255 -0.1847 -0.5573
  176SAPI   C2220005   3.941   5.607   7.124 -0.5568  0.0827  0.0728
  176SAPI   H2R20006   3.914   5.638   7.228  1.0217 -1.8806  1.1487
  176SAPI   H2S20007   3.863   5.540   7.083 -0.4972 -1.1600  1.8282
  176SAPI    C320008   3.831   5.987   6.937  0.1520  0.7068  0.0813
  176SAPI    HX20009   3.723   5.960   6.943  0.2807 -0.4322 -1.8236
  176SAPI    HY20010   3.835   6.072   6.866 -0.6231  0.6370 -0.0660
  176SAPI   O3120011   3.882   6.013   7.065 -0.3016  0.0061 -0.6374
  176SAPI   C3120012   3.978   6.109   7.069 -0.6257 -0.2707  0.1631
  176SAPI   O3220013   4.017   6.166   6.969 -0.1502  0.2348  0.6263
  176SAPI   C3220014   4.037   6.128   7.207 -0.5534 -0.2210 -0.3526
  176SAPI   H2X20015   4.115   6.049   7.209 -2.3594 -2.0756 -0.0915
  176SAPI   H2Y20016   3.972   6.095   7.290 -0.0546  0.7864  0.4582
  176SAPI   C2320017   4.054   5.501   7.139  0.0778  0.0181 -0.2582
  176SAPI   H3R20018   4.085   5.487   7.033 -2.4415  0.9270 -1.1694
  176SAPI   H3S20019   4.016   5.402   7.173  0.7174 -0.5038 -1.0144
  176SAPI   C2420020   4.151   5.548   7.243 -0.8408  0.2450 -0.1967
  176SAPI   H4R20021   4.092   5.553   7.337 -0.9584 -0.0849 -0.2529
  176SAPI   H4S20022   4.187   5.650   7.216  0.6029  0.0264  0.7437
  176SAPI   C2520023   4.268   5.457   7.249 -0.2074  0.3574  0.5273
  176SAPI   H5R20024   4.307   5.423   7.152 -0.3281  1.5831  0.0327
  176SAPI   C2620025   4.336   5.409   7.361  0.4784 -0.3219  0.3999
  176SAPI   H6R20026   4.423   5.341   7.352 -1.2873 -2.7087  0.3995
  176SAPI   C2720027   4.313   5.443   7.508 -0.5576 -0.1552 -0.0139
  176SAPI   H7R20028   4.320   5.349   7.567 -0.6969  0.0058  0.2618
  176SAPI   H7S20029   4.207   5.475   7.522 -0.3725  1.7891 -2.3095
  176SAPI   C2820030   4.394   5.557   7.573  0.4309  0.2417  0.2567
  176SAPI   H8R20031   4.397   5.635   7.495 -3.8951 -0.2531 -0.6961
  176SAPI   C2920032   4.444   5.569   7.699 -0.1820 -0.2430 -1.0394
  176SAPI   H9R20033   4.499   5.658   7.732 -2.1968  2.4635 -4.3393
  176SAPI  C21020034   4.433   5.471   7.819 -0.4504 -0.3115  0.0284
  176SAPI  H10R20035   4.533   5.427   7.840 -0.1576  0.9729  1.4998
  176SAPI  H10S20036   4.363   5.388   7.795 -1.4460  0.9269 -1.4542
  176SAPI  C21120037   4.399   5.533   7.947 -0.3685  0.0179  0.2681
  176SAPI  H11R20038   4.386   5.642   7.939  1.4727  0.1488 -2.5916
  176SAPI  C21220039   4.375   5.466   8.058  0.3554 -0.4112  0.2611
  176SAPI  H12R20040   4.347   5.525   8.146 -0.0150 -0.8271  0.4289
  176SAPI  C21320041   4.372   5.315   8.077 -0.0495  0.2590 -0.4093
  176SAPI  H13R20042   4.435   5.270   8.157 -0.2494 -0.1646 -0.4847
  176SAPI  H13S20043   4.403   5.269   7.980  1.1262 -1.9203  0.9112
  176SAPI  C21420044   4.224   5.268   8.095 -0.9138  0.0802  0.2366
  176SAPI  H14R20045   4.155   5.274   8.009 -1.1186  2.2759  0.5000
  176SAPI  C21520046   4.172   5.225   8.213  0.9726 -0.4050  0.4652
  176SAPI  H15R20047   4.066   5.196   8.210  0.7205  0.5160  0.1325
  176SAPI  C21620048   4.249   5.206   8.342 -0.4107  0.9100 -0.0679
  176SAPI  H16R20049   4.311   5.297   8.359  1.3349 -0.3420  0.6060
  176SAPI  H16S20050   4.310   5.113   8.346 -0.6081  0.7743 -0.2185
  176SAPI  C21720051   4.156   5.207   8.466  0.9972 -0.3231 -0.0003
  176SAPI  H17R20052   4.080   5.128   8.446  0.2871  0.0059  1.2725
  176SAPI  H17S20053   4.108   5.307   8.475  2.1280  0.4247 -1.7863
  176SAPI  C21820054   4.228   5.177   8.596  0.1528 -0.0917 -0.1497
  176SAPI  H18R20055   4.255   5.070   8.582  1.2345  0.4961 -3.5678
  176SAPI  H18S20056   4.151   5.191   8.675 -1.6672  2.3108 -2.1882
  176SAPI  C21920057   4.354   5.260   8.621 -0.4780 -0.3301 -0.4533
  176SAPI  H19R20058   4.323   5.366   8.616  0.0654 -0.2153 -1.7378
  176SAPI  H19S20059   4.428   5.249   8.539  0.1801  0.2196  0.0553
  176SAPI  C22020060   4.438   5.216   8.750  0.5460  0.9556  1.1944
  176SAPI  H20R20061   4.512   5.147   8.705  0.7970  0.5651  2.1827
  176SAPI  H20S20062   4.380   5.153   8.821  0.5777 -0.6927 -0.1854
  176SAPI  H20T20063   4.500   5.297   8.795 -0.5025  1.4200  1.8330
  176SAPI   C3320064   4.097   6.273   7.224 -0.1156  0.5447 -0.2383
  176SAPI   H3X20065   4.013   6.346   7.230  0.7433  1.6448 -0.9906
  176SAPI   H3Y20066   4.164   6.300   7.139  1.9444 -2.5739  0.2439
  176SAPI   C3420067   4.178   6.294   7.358  0.3486 -0.3512 -0.8313
  176SAPI   H4X20068   4.209   6.400   7.366  1.2410 -0.7328  2.9119
  176SAPI   H4Y20069   4.266   6.228   7.349 -1.1050 -2.6690  0.7504
  176SAPI   C3520070   4.113   6.252   7.490 -0.3334  0.0833 -0.1763
  176SAPI   H5X20071   4.079   6.147   7.479  2.9178 -0.9696 -1.4135
  176SAPI   H5Y20072   4.022   6.314   7.502  0.0941  0.8222 -0.6458
  176SAPI   C3620073   4.208   6.275   7.609 -0.4443  1.0724  0.5375
  176SAPI   H6X20074   4.195   6.368   7.668  0.2304  0.7975  1.1418
  176SAPI   H6Y20075   4.315   6.281   7.576 -0.8695 -1.5963 -1.7000
  176SAPI   C3720076   4.220   6.148   7.697  0.4888  0.5656 -0.1596
  176SAPI   H7X20077   4.264   6.065   7.639  2.8657  1.7193 -0.1314
  176SAPI   H7Y20078   4.118   6.125   7.733  0.3812  0.6274 -0.4287
  176SAPI   C3820079   4.311   6.175   7.819  0.2820  1.1954 -1.2636
  176SAPI   H8X20080   4.264   6.264   7.868  1.9487  2.1617 -1.3527
  176SAPI   H8Y20081   4.415   6.202   7.793  0.4454  2.6437  0.6804
  176SAPI   C3920082   4.323   6.057   7.923 -0.2000 -0.5544  0.3281
  176SAPI   H9X20083   4.397   6.099   7.994  0.4129 -2.1402  0.6680
  176SAPI   H9Y20084   4.367   5.970   7.870 -0.0569 -1.2647  1.6014
  176SAPI  C31020085   4.195   6.022   8.002  0.1987 -0.4256  0.0198
  176SAPI  H10X20086   4.117   5.988   7.930 -0.6832  0.9266  0.3028
  176SAPI  H10Y20087   4.163   6.107   8.066  0.7757 -1.1083  1.2546
  176SAPI  C31120088   4.212   5.907   8.096  0.3191  0.1350 -0.1594
  176SAPI  H11X20089   4.247   5.818   8.041  1.1974  0.5807 -0.3372
  176SAPI  H11Y20090   4.111   5.884   8.136  0.6898 -0.2374  0.5937
  176SAPI  C31220091   4.302   5.930   8.219  0.8888  0.0098  0.5481
  176SAPI  H12X20092   4.261   5.995   8.300  1.0866 -0.1400  0.7725
  176SAPI  H12Y20093   4.388   5.986   8.175  0.7182 -1.7518 -2.2671
  176SAPI  C31320094   4.363   5.806   8.278  0.2578 -0.5488  0.1146
  176SAPI  H13X20095   4.421   5.746   8.204  0.7707  0.4637 -0.3212
  176SAPI  H13Y20096   4.271   5.750   8.306  1.1035 -0.6346  3.0603
  176SAPI  C31420097   4.442   5.832   8.404 -0.6618  0.4522 -0.4167
  176SAPI  H14X20098   4.378   5.894   8.469 -0.7605 -0.0901  0.0082
  176SAPI  H14Y20099   4.536   5.882   8.370  0.1666  0.0717  1.2142
  176SAPI  C31520100   4.477   5.709   8.488  0.4055  0.4613 -0.1222
  176SAPI  H15X20101   4.541   5.646   8.423 -0.2722 -0.0894 -0.2592
  176SAPI  H15Y20102   4.384   5.653   8.511 -0.4573  1.2761 -1.4638
  176SAPI  C31620103   4.542   5.739   8.621 -0.3339 -0.7074  0.4990
  176SAPI  H16X20104   4.472   5.806   8.675  2.3246  2.3529  0.4847
  176SAPI  H16Y20105   4.640   5.791   8.607 -0.4968 -0.9942 -2.2529
  176SAPI  C31720106   4.570   5.632   8.718 -0.1278  0.0564  0.2748
  176SAPI  H17X20107   4.619   5.542   8.675  1.5268  2.0806 -2.4332
  176SAPI  H17Y20108   4.477   5.593   8.763 -0.1241  0.4286  0.6143
  176SAPI  C31820109   4.666   5.674   8.824  0.5969  0.0033 -0.1580
  176SAPI  H18X20110   4.643   5.600   8.904  1.1484  0.0964  0.0962
  176SAPI  H18Y20111   4.650   5.780   8.853  0.4607  1.0084 -3.5058
  176SAPI  H18Z20112   4.772   5.668   8.791  0.9746 -1.4071  1.2142
  177SLPC     N20113   1.727   4.184  11.064  0.5616 -0.8581  0.1919
  177SLPC   C1320114   1.725   4.282  11.173  0.1696  0.0165 -0.0635
  177SLPC  H13A20115   1.781   4.373  11.156  0.7991 -0.2729  0.4036
  177SLPC  H13B20116   1.623   4.314  11.182 -0.1147 -1.0685  0.7224
  177SLPC  H13C20117   1.750   4.241  11.269 -1.1232 -0.6318  0.0090
  177SLPC   C1420118   1.656   4.057  11.111  0.1098  0.9122  0.0217
  177SLPC  H14A20119   1.672   3.980  11.037 -0.2522 -0.3742  1.2211
  177SLPC  H14B20120   1.700   4.029  11.206 -0.4726 -0.4304 -0.0808
  177SLPC  H14C20121   1.552   4.069  11.137 -0.1928 -1.8019  0.4119
  177SLPC   C1520122   1.861   4.154  11.020 -0.2842  0.6280 -0.3270
  177SLPC  H15A20123   1.860   4.096  10.929 -1.6239  0.7713 -0.4283
  177SLPC  H15B20124   1.912   4.248  11.001 -0.1351  0.9031  1.3202
  177SLPC  H15C20125   1.922   4.110  11.097  0.3370  2.4376  0.2819
  177SLPC   C1220126   1.656   4.244  10.948  0.4268 -0.2854  0.3914
  177SLPC  H12A20127   1.681   4.348  10.929 -1.6134  0.1079 -0.4632
  177SLPC  H12B20128   1.553   4.271  10.969  1.3446  2.8790  1.3434
  177SLPC   C1120129   1.645   4.156  10.815 -0.0090 -0.2605 -0.6132
  177SLPC  H11A20130   1.748   4.141  10.776 -0.3283  1.3012 -2.1754
  177SLPC  H11B20131   1.598   4.228  10.745  0.7261  1.4650  0.5951
  177SLPC     P20132   1.402   4.036  10.832 -0.0404  0.6661  0.1531
  177SLPC   O1320133   1.355   3.897  10.842 -0.4566  0.2380 -0.0903
  177SLPC   O1420134   1.358   4.137  10.928  0.1848  0.4000 -0.2965
  177SLPC   O1220135   1.567   4.035  10.830 -0.2381 -0.0281 -0.2693
  177SLPC   O1120136   1.381   4.078  10.681  0.5862 -0.2007 -0.3449
  177SLPC    C120137   1.392   3.991  10.567 -0.7788 -0.3280 -0.4790
  177SLPC    HA20138   1.478   3.922  10.582 -2.1173 -1.9814 -0.1031
  177SLPC    HB20139   1.296   3.935  10.563 -0.7397 -0.4892  0.4761
  177SLPC    C220140   1.418   4.057  10.433  0.1096 -0.3214  0.2624
  177SLPC    HS20141   1.434   3.990  10.346  3.8145  2.4654 -1.4989
  177SLPC   O2120142   1.532   4.144  10.437 -0.2720 -0.0091 -0.0212
  177SLPC   C2120143   1.651   4.086  10.437  0.5391  0.0305 -0.5681
  177SLPC   O2220144   1.674   3.970  10.427  1.0657 -0.9109 -0.4182
  177SLPC   C2220145   1.765   4.188  10.451  0.1808  0.0265  0.2473
  177SLPC   H2R20146   1.751   4.232  10.552 -0.6829  0.3674 -0.0170
  177SLPC   H2S20147   1.863   4.134  10.451 -0.0499 -0.4408  1.6960
  177SLPC    C320148   1.300   4.140  10.390  0.2855  0.3432 -0.6138
  177SLPC    HX20149   1.260   4.212  10.465 -3.5707 -0.5034 -1.6018
  177SLPC    HY20150   1.209   4.077  10.374  0.0252  0.4975  0.2307
  177SLPC   O3120151   1.328   4.210  10.267 -0.1401 -0.0935  0.1391
  177SLPC   C3120152   1.321   4.129  10.157  0.3492  1.0633  0.5250
  177SLPC   O3220153   1.283   4.012  10.155 -0.2307  0.3742 -0.1634
  177SLPC   C3220154   1.357   4.215  10.032  0.0696 -0.0439 -0.5450
  177SLPC   H2X20155   1.463   4.245  10.040 -0.1864  0.6198  0.5843
  177SLPC   H2Y20156   1.298   4.307  10.052 -0.8843 -1.1897  2.6999
  177SLPC   C2320157   1.765   4.316  10.357  0.4705  0.0923 -0.6289
  177SLPC   H3R20158   1.807   4.399  10.417  0.8079  1.1173 -2.2336
  177SLPC   H3S20159   1.656   4.328  10.340  0.0459 -2.4531 -0.1858
  177SLPC   C2420160   1.828   4.298  10.220 -0.5838 -0.2313 -0.0691
  177SLPC   H4R20161   1.764   4.231  10.160 -1.9895  0.0562  1.0451
  177SLPC   H4S20162   1.925   4.245  10.232  0.4409  1.8471  1.6330
  177SLPC   C2520163   1.848   4.437  10.156  0.3590 -0.1785 -0.1166
  177SLPC   H5R20164   1.909   4.506  10.218 -1.6340  2.9306 -1.3809
  177SLPC   H5S20165   1.746   4.480  10.143  0.0982 -0.8284 -0.2526
  177SLPC   C2620166   1.931   4.433  10.027  0.2235  0.3834  0.3820
  177SLPC   H6R20167   2.035   4.404  10.056 -0.2136 -0.4924  1.1316
  177SLPC   H6S20168   1.937   4.525   9.966  0.8537  0.6874  0.8811
  177SLPC   C2720169   1.892   4.325   9.922 -0.1073  0.4646  0.3213
  177SLPC   H7R20170   1.903   4.229   9.976 -1.1136  1.0191  1.5862
  177SLPC   H7S20171   1.965   4.335   9.839 -0.8868 -0.8378 -0.5515
  177SLPC   C2820172   1.749   4.340   9.865  0.1577 -0.6792 -0.3683
  177SLPC   H8R20173   1.678   4.330   9.950  1.6743 -0.2182  0.9838
  177SLPC   H8S20174   1.744   4.256   9.793  0.8167  0.2510 -1.5374
  177SLPC   C2920175   1.728   4.462   9.785 -0.5182 -0.5295  0.3626
  177SLPC   H9R20176   1.743   4.559   9.836  2.2197  0.3378 -1.8222
  177SLPC  C21020177   1.706   4.465   9.653 -0.3381 -0.2381 -0.1601
  177SLPC  H10R20178   1.685   4.563   9.609  1.1162  0.8228  1.3826
  177SLPC  C21120179   1.699   4.348   9.557 -0.7397  0.2217 -0.4723
  177SLPC  H11R20180   1.666   4.255   9.608 -0.6862  2.1473  3.4024
  177SLPC  H11S20181   1.615   4.371   9.487 -1.1650  1.5877  0.4440
  177SLPC  C21220182   1.838   4.338   9.493 -0.3597 -0.2120  0.2338
  177SLPC  H12R20183   1.923   4.350   9.562 -0.7441  0.6047  0.5892
  177SLPC  C21320184   1.862   4.310   9.365 -0.3401 -1.1794 -0.1533
  177SLPC  H13R20185   1.969   4.306   9.340 -0.1487  0.6625  0.2379
  177SLPC  C21420186   1.762   4.295   9.251  0.1068 -0.7948  0.1990
  177SLPC  H14R20187   1.657   4.300   9.286  0.1826 -0.7723  0.4247
  177SLPC  H14S20188   1.780   4.205   9.189  0.5551 -0.0788 -0.7257
  177SLPC  C21520189   1.764   4.416   9.149  0.4584  0.0344 -0.3883
  177SLPC  H15R20190   1.862   4.432   9.098  0.2436 -1.6935 -1.4171
  177SLPC  H15S20191   1.743   4.510   9.204 -0.3289  0.4379 -1.3600
  177SLPC  C21620192   1.653   4.399   9.042 -0.4294 -0.6784 -0.0303
  177SLPC  H16R20193   1.553   4.389   9.090 -1.2092 -1.5191 -1.7440
  177SLPC  H16S20194   1.678   4.304   8.991  2.7608  0.3423 -0.6035
  177SLPC  C21720195   1.651   4.524   8.947  0.1699  0.3664 -0.1939
  177SLPC  H17R20196   1.752   4.544   8.907 -1.0398  1.5574 -2.9160
  177SLPC  H17S20197   1.624   4.612   9.009  2.2054  0.8617  0.0371
  177SLPC  C21820198   1.554   4.523   8.837 -0.4150  0.4232  0.9002
  177SLPC  H18R20199   1.449   4.524   8.875 -1.7425  1.6125 -2.3971
  177SLPC  H18S20200   1.568   4.439   8.766 -2.4884 -0.0467  0.9755
  177SLPC  H18T20201   1.576   4.615   8.778 -1.2225 -0.8983 -1.6185
  177SLPC   C3320202   1.313   4.146   9.899 -1.1876 -0.5105 -0.2799
  177SLPC   H3X20203   1.210   4.107   9.916 -1.8158  1.4370  0.6506
  177SLPC   H3Y20204   1.381   4.064   9.868 -1.1840 -0.1909 -1.1442
  177SLPC   C3420205   1.316   4.258   9.793  0.0457 -0.0195 -0.3562
  177SLPC   H4X20206   1.413   4.311   9.801 -0.3914  0.5731  1.1923
  177SLPC   H4Y20207   1.235   4.332   9.807  2.0475  2.0430  0.8600
  177SLPC   C3520208   1.297   4.196   9.646  0.1993 -0.4834  0.2265
  177SLPC   H5X20209   1.197   4.148   9.648 -0.4497  0.7629 -0.5966
  177SLPC   H5Y20210   1.383   4.126   9.645  0.5218 -0.0954 -0.5274
  177SLPC   C3620211   1.301   4.299   9.535  0.0872  0.7983  0.6620
  177SLPC   H6X20212   1.401   4.342   9.516 -1.2527  2.8363 -2.5814
  177SLPC   H6Y20213   1.237   4.384   9.568  1.2806  1.4749  1.2757
  177SLPC   C3720214   1.269   4.232   9.399  0.0240 -0.0590  0.2343
  177SLPC   H7X20215   1.170   4.182   9.398 -0.0452  0.0890 -0.2662
  177SLPC   H7Y20216   1.354   4.163   9.380 -0.3063 -0.6480  0.8263
  177SLPC   C3820217   1.285   4.342   9.288  0.3203 -0.2509 -0.1338
  177SLPC   H8X20218   1.390   4.379   9.281 -0.5119  2.2955 -0.3682
  177SLPC   H8Y20219   1.220   4.430   9.307 -0.1423 -1.1122  2.6504
  177SLPC   C3920220   1.227   4.292   9.154 -0.3750  0.2552  0.3296
  177SLPC   H9X20221   1.249   4.379   9.089  0.4191 -0.3976 -0.2977
  177SLPC   H9Y20222   1.117   4.278   9.169 -0.5599  1.9795  0.8011
  177SLPC  C31020223   1.295   4.171   9.090 -0.0095  0.9308  0.0866
  177SLPC  H10X20224   1.240   4.078   9.113  1.2556  0.5170  1.5533
  177SLPC  H10Y20225   1.397   4.167   9.132 -0.5074  2.2610  1.5155
  177SLPC  C31120226   1.301   4.175   8.933  0.0613  0.2928 -0.5827
  177SLPC  H11X20227   1.350   4.076   8.918 -3.1101 -1.6229  0.7439
  177SLPC  H11Y20228   1.370   4.248   8.885  1.8848 -1.8722 -1.4681
  177SLPC  C31220229   1.171   4.164   8.860  0.0766  0.2375  0.1166
  177SLPC  H12X20230   1.127   4.261   8.889  1.2632  0.9096 -0.2493
  177SLPC  H12Y20231   1.103   4.092   8.910  2.2695 -0.8715  1.6961
  177SLPC  C31320232   1.180   4.141   8.711  0.4032 -0.2243  0.2324
  177SLPC  H13X20233   1.277   4.180   8.674 -0.5330  0.3517 -1.7714
  177SLPC  H13Y20234   1.097   4.195   8.660 -0.3046 -2.3780 -1.0116
  177SLPC  C31420235   1.159   3.990   8.665 -0.2674  0.5767 -0.6581
  177SLPC  H14X20236   1.158   3.994   8.554 -0.8148  2.7979 -0.6294
  177SLPC  H14Y20237   1.060   3.950   8.694  0.0809  0.3247  0.2035
  177SLPC  C31520238   1.264   3.900   8.725 -0.0640 -0.5804  1.0504
  177SLPC  H15X20239   1.270   3.890   8.836  0.6371 -0.6781  1.0114
  177SLPC  H15Y20240   1.356   3.954   8.695 -0.7449 -0.5531 -1.1637
  177SLPC  C31620241   1.276   3.763   8.652  0.2107  0.5995  0.2761
  177SLPC  H16X20242   1.379   3.723   8.665  0.2187  0.4575 -0.2221
  177SLPC  H16Y20243   1.256   3.783   8.545  0.4122  0.6524  0.2474
  177SLPC  C31720244   1.193   3.638   8.699  0.3001 -0.2691  0.2137
  177SLPC  H17X20245   1.089   3.675   8.684  0.4536 -0.1734 -0.6581
  177SLPC  H17Y20246   1.215   3.616   8.806 -0.3348  1.3231  0.6968
  177SLPC  C31820247   1.227   3.516   8.608 -0.0740 -0.2587 -0.3061
  177SLPC  H18X20248   1.336   3.497   8.601 -0.1220 -2.4473  2.8001
  177SLPC  H18Y20249   1.190   3.538   8.505 -1.1028 -1.5376 -0.2356
  177SLPC  H18Z20250   1.177   3.424   8.645 -1.2852  0.8727  0.9699
  178SLPC     N20251   5.216   5.760  11.108 -0.5920 -0.2717  0.2231
  178SLPC   C1320252   5.222   5.856  11.223 -0.4256  0.1775 -0.6645
  178SLPC  H13A20253   5.128   5.908  11.234 -2.0914 -2.4761 -1.3340
  178SLPC  H13B20254   5.234   5.805  11.318  0.8242  0.2954 -0.7426
  178SLPC  H13C20255   5.303   5.925  11.208 -0.4763  0.2732 -0.4999
  178SLPC   C1420256   5.350   5.688  11.093  0.1466 -0.1857  0.1462
  178SLPC  H14A20257   5.370   5.624  11.177 -0.6964 -0.3087  0.2540
  178SLPC  H14B20258   5.350   5.627  11.004  0.0578 -1.5945  1.0821
  178SLPC  H14C20259   5.429   5.762  11.083 -0.6265  0.4881 -1.2505
  178SLPC   C1520260   5.211   5.855  10.987  0.2647  0.5002 -0.0035
  178SLPC  H15A20261   5.131   5.927  10.991  0.7208  1.2368 -2.4027
  178SLPC  H15B20262   5.300   5.916  10.980 -0.4365  1.6721  0.9633
  178SLPC  H15C20263   5.196   5.787  10.904 -0.6449 -2.1916  2.1959
  178SLPC   C1220264   5.098   5.669  11.110  0.4128 -0.8895 -0.1251
  178SLPC  H12A20265   5.110   5.605  11.196  0.9711  0.4544  0.8278
  178SLPC  H12B20266   5.097   5.599  11.027  0.1187 -1.4457  0.3347
  178SLPC   C1120267   4.956   5.739  11.122  0.6995 -0.0791  0.1099
  178SLPC  H11A20268   4.925   5.807  11.040 -0.8890 -0.6734  0.1822
  178SLPC  H11B20269   4.961   5.807  11.210 -0.6507  0.1757 -0.0022
  178SLPC     P20270   4.835   5.539  11.007  0.5099 -0.0479  0.1483
  178SLPC   O1320271   4.944   5.440  11.018 -0.3812 -0.4992 -0.0226
  178SLPC   O1420272   4.695   5.499  11.003  0.2476  0.0408 -0.2638
  178SLPC   O1220273   4.852   5.638  11.136  0.1027 -0.4914  0.2675
  178SLPC   O1120274   4.861   5.626  10.879 -0.1124 -0.0004  0.2926
  178SLPC    C120275   4.760   5.642  10.781 -0.3447  0.2331  0.2406
  178SLPC    HA20276   4.717   5.543  10.751  0.1969  0.0226  0.1592
  178SLPC    HB20277   4.676   5.705  10.818 -0.6672 -0.4161  0.6411
  178SLPC    C220278   4.817   5.707  10.653  0.5049  0.1179  0.1193
  178SLPC    HS20279   4.734   5.716  10.579  0.3558 -0.5614  0.1965
  178SLPC   O2120280   4.924   5.628  10.610  0.0165  0.2355 -0.5088
  178SLPC   C2120281   4.887   5.528  10.532 -0.4658  0.4619 -0.1169
  178SLPC   O2220282   4.778   5.487  10.509  0.5023 -0.0094  0.1892
  178SLPC   C2220283   5.022   5.461  10.488 -0.7599 -0.8128  0.3633
  178SLPC   H2R20284   5.094   5.527  10.435 -1.8364  0.2823  0.2224
  178SLPC   H2S20285   5.078   5.442  10.582 -1.7574 -0.9239  0.9515
  178SLPC    C320286   4.872   5.852  10.669 -0.1989 -0.2964 -0.2044
  178SLPC    HX20287   4.942   5.876  10.752  0.3499 -3.3744  0.3380
  178SLPC    HY20288   4.787   5.919  10.690  0.1892 -0.0879  0.7575
  178SLPC   O3120289   4.928   5.896  10.545 -0.0395  0.0998 -0.1384
  178SLPC   C3120290   5.050   5.866  10.528 -0.6340  0.4224 -0.2044
  178SLPC   O3220291   5.120   5.803  10.606 -0.2411 -0.1225 -0.5953
  178SLPC   C3220292   5.096   5.933  10.399  0.6058  0.0236 -0.4451
  178SLPC   H2X20293   5.193   5.891  10.365 -0.2579 -3.3908  0.8469
  178SLPC   H2Y20294   5.105   6.035  10.442  0.4884  1.9114 -4.4516
  178SLPC   C2320295   4.995   5.327  10.403  0.0542 -0.1574 -0.0766
  178SLPC   H3R20296   4.913   5.271  10.453  0.4268 -1.1689 -0.5834
  178SLPC   H3S20297   5.084   5.262  10.402  1.1881  1.3421 -0.3401
  178SLPC   C2420298   4.963   5.356  10.258  0.9226  0.0356  0.0348
  178SLPC   H4R20299   5.018   5.432  10.199 -1.5447  0.3487 -2.0411
  178SLPC   H4S20300   4.867   5.411  10.254  1.0863  0.3733  0.5773
  178SLPC   C2520301   4.952   5.231  10.174  0.4648  1.0139  0.7433
  178SLPC   H5R20302   4.912   5.156  10.246 -0.3537  0.5412 -0.1770
  178SLPC   H5S20303   5.050   5.211  10.126  0.9135  1.5062  1.4433
  178SLPC   C2620304   4.852   5.248  10.058 -0.7048  0.3961 -0.3234
  178SLPC   H6R20305   4.758   5.269  10.113  0.1067  2.0741  0.5018
  178SLPC   H6S20306   4.854   5.150  10.006  1.6749  1.1033 -1.7389
  178SLPC   C2720307   4.893   5.369   9.969  0.3408 -0.0653  0.2169
  178SLPC   H7R20308   4.901   5.469  10.015 -0.5130  0.9207 -1.6591
  178SLPC   H7S20309   4.813   5.385   9.894  3.3826  2.8106 -2.7977
  178SLPC   C2820310   5.024   5.353   9.882  0.4519 -0.3021  0.2884
  178SLPC   H8R20311   5.109   5.380   9.948  1.5625  1.3861 -1.7430
  178SLPC   H8S20312   5.020   5.428   9.801 -0.1678 -0.1456  0.4530
  178SLPC   C2920313   5.039   5.219   9.818 -0.4023  0.1646  0.1567
  178SLPC   H9R20314   5.097   5.143   9.874 -1.2277 -0.2452  0.4746
  178SLPC  C21020315   4.978   5.179   9.706  0.6191  0.1733  0.4164
  178SLPC  H10R20316   4.989   5.074   9.677  1.3646 -0.0206  1.3502
  178SLPC  C21120317   4.871   5.262   9.638  0.2137 -0.0333  0.1669
  178SLPC  H11R20318   4.927   5.330   9.570 -2.5049  2.1232 -0.0914
  178SLPC  H11S20319   4.812   5.332   9.702  0.0783 -0.4364  0.4913
  178SLPC  C21220320   4.754   5.197   9.568 -0.0210 -0.5013 -0.0986
  178SLPC  H12R20321   4.671   5.182   9.639 -0.3460  0.2699 -0.3079
  178SLPC  C21320322   4.745   5.155   9.445  0.4439  0.7014 -0.4165
  178SLPC  H13R20323   4.653   5.105   9.410 -0.3930  2.3515 -0.6534
  178SLPC  C21420324   4.845   5.163   9.336 -0.7059 -0.9175  0.1756
  178SLPC  H14R20325   4.829   5.079   9.265 -2.2820  0.1092 -0.7405
  178SLPC  H14S20326   4.952   5.162   9.364 -0.3710  0.4443 -0.9350
  178SLPC  C21520327   4.818   5.286   9.244 -0.9177  0.1008 -1.0431
  178SLPC  H15R20328   4.850   5.374   9.304  0.9005 -1.4337  0.3436
  178SLPC  H15S20329   4.709   5.283   9.222 -0.9244 -4.3541 -1.1856
  178SLPC  C21620330   4.900   5.293   9.110  0.1080  0.4142  0.7925
  178SLPC  H16R20331   4.861   5.214   9.043 -0.1465  0.4869  0.8544
  178SLPC  H16S20332   5.008   5.282   9.135  0.4172  0.0138 -0.6665
  178SLPC  C21720333   4.871   5.417   9.037  0.2627 -0.4543 -0.7020
  178SLPC  H17R20334   4.909   5.506   9.093  0.7932 -0.9530 -0.2616
  178SLPC  H17S20335   4.762   5.432   9.025  0.2354  0.4205  0.3980
  178SLPC  C21820336   4.950   5.427   8.905  0.5328  0.5242 -0.2389
  178SLPC  H18R20337   4.904   5.507   8.843 -0.9545 -0.2656 -0.1860
  178SLPC  H18S20338   4.940   5.335   8.844 -1.5214 -1.8618  3.2769
  178SLPC  H18T20339   5.057   5.457   8.907  0.7616  0.0426 -2.8937
  178SLPC   C3320340   4.988   5.961  10.291 -0.5007 -0.5424  0.3339
  178SLPC   H3X20341   5.023   6.040  10.221  0.5181 -0.1633  1.2450
  178SLPC   H3Y20342   4.890   5.995  10.332 -1.5228 -0.0020 -2.3239
  178SLPC   C3420343   4.953   5.842  10.195  0.3057  0.2075 -0.6395
  178SLPC   H4X20344   4.901   5.761  10.250  0.0655  0.0510 -1.0936
  178SLPC   H4Y20345   5.044   5.787  10.164  0.0440 -0.9901  0.6179
  178SLPC   C3520346   4.899   5.889  10.067 -0.3729 -0.0761  0.1971
  178SLPC   H5X20347   4.971   5.952  10.011 -1.7707  0.1723 -1.4001
  178SLPC   H5Y20348   4.811   5.954  10.086 -0.3863  0.1177 -0.4921
  178SLPC   C3620349   4.870   5.772   9.969  0.0740  0.2193 -0.2034
  178SLPC   H6X20350   4.794   5.708  10.019 -0.2485  0.4639 -0.3811
  178SLPC   H6Y20351   4.955   5.703   9.950 -0.0367 -0.6956  2.2500
  178SLPC   C3720352   4.804   5.814   9.837 -0.3473  0.8677 -0.5040
  178SLPC   H7X20353   4.866   5.893   9.790 -1.1942  1.6301 -0.3684
  178SLPC   H7Y20354   4.711   5.868   9.866 -0.8457 -1.2989  2.4033
  178SLPC   C3820355   4.781   5.707   9.737 -0.0561 -0.0819 -0.6551
  178SLPC   H8X20356   4.700   5.648   9.785 -1.1610  2.5377  0.9774
  178SLPC   H8Y20357   4.869   5.640   9.737 -1.4092 -2.0504  1.8103
  178SLPC   C3920358   4.741   5.765   9.601  0.7074  0.3214 -0.3503
  178SLPC   H9X20359   4.805   5.850   9.567  2.1386 -0.6174 -0.0763
  178SLPC   H9Y20360   4.643   5.814   9.622 -0.3791 -1.2667 -1.4978
  178SLPC  C31020361   4.707   5.662   9.493 -0.6325  0.3278 -0.1080
  178SLPC  H10X20362   4.597   5.654   9.475 -0.7107 -4.3502  1.0236
  178SLPC  H10Y20363   4.735   5.566   9.541  0.5163  0.2259 -0.9480
  178SLPC  C31120364   4.783   5.681   9.364 -0.6036  0.2282  0.0523
  178SLPC  H11X20365   4.780   5.588   9.305  1.1760  1.3580 -1.9317
  178SLPC  H11Y20366   4.890   5.692   9.390  0.0185 -0.0021 -2.2599
  178SLPC  C31220367   4.731   5.796   9.272 -0.6100 -0.3979 -0.6880
  178SLPC  H12X20368   4.725   5.890   9.330 -3.3571  0.6423 -2.4344
  178SLPC  H12Y20369   4.628   5.770   9.238  0.2486 -4.6745 -0.5800
  178SLPC  C31320370   4.821   5.807   9.151  0.5286 -0.7244  0.2272
  178SLPC  H13X20371   4.811   5.716   9.088 -0.8152 -1.5188  1.5422
  178SLPC  H13Y20372   4.924   5.815   9.191  0.7525  1.0942 -0.5994
  178SLPC  C31420373   4.799   5.935   9.067  0.5148  0.6985 -0.3979
  178SLPC  H14X20374   4.769   6.014   9.140 -1.5205  0.9228 -1.4127
  178SLPC  H14Y20375   4.714   5.929   8.995 -0.8248 -0.7612  1.2137
  178SLPC  C31520376   4.920   5.982   8.991 -0.2724  0.3717  0.5412
  178SLPC  H15X20377   5.003   5.975   9.064  0.7155  1.6096 -0.4108
  178SLPC  H15Y20378   4.936   5.908   8.910  2.7256 -0.3424  1.6567
  178SLPC  C31620379   4.896   6.123   8.939 -0.4370 -0.5524  0.8826
  178SLPC  H16X20380   4.866   6.193   9.019  0.9485 -1.7565  2.5346
  178SLPC  H16Y20381   4.819   6.122   8.858  2.7171  1.3090 -2.4594
  178SLPC  C31720382   5.028   6.185   8.873  0.1966 -0.2855 -0.4121
  178SLPC  H17X20383   5.061   6.106   8.802  0.3988  0.8525 -1.6093
  178SLPC  H17Y20384   5.107   6.203   8.950 -0.5584  2.2635 -0.1485
  178SLPC  C31820385   4.997   6.305   8.788 -0.4313 -0.5397  0.8064
  178SLPC  H18X20386   4.916   6.286   8.713 -1.6819  0.8738  1.7527
  178SLPC  H18Y20387   5.088   6.333   8.730 -1.4091  3.0112  0.7683
  178SLPC  H18Z20388   4.968   6.393   8.848  3.2399  1.6751 -0.3211
  179SLPC     N20389   4.747   2.169  10.770 -0.1798 -0.1277 -0.1337
  179SLPC   C1320390   4.802   2.060  10.855 -0.0450  0.7418 -0.0749
  179SLPC  H13A20391   4.730   1.982  10.871 -0.2696  0.5614 -1.8190
  179SLPC  H13B20392   4.885   2.018  10.801 -0.6944  0.0192 -0.5262
  179SLPC  H13C20393   4.824   2.099  10.954  1.5413  0.2931 -0.2197
  179SLPC   C1420394   4.615   2.207  10.833 -0.0044 -0.0393  0.3667
  179SLPC  H14A20395   4.555   2.117  10.840  0.0379 -0.0834  0.1910
  179SLPC  H14B20396   4.623   2.246  10.933  1.1889  2.5201 -0.6449
  179SLPC  H14C20397   4.560   2.275  10.770  1.6233 -1.1637 -2.4825
  179SLPC   C1520398   4.727   2.113  10.634  0.6188 -0.8219 -0.1341
  179SLPC  H15A20399   4.822   2.085  10.593  1.5988  0.4854  1.1156
  179SLPC  H15B20400   4.669   2.023  10.626  0.5383 -1.1726  3.0115
  179SLPC  H15C20401   4.691   2.193  10.571  2.6580 -0.9207 -1.5155
  179SLPC   C1220402   4.840   2.283  10.778  0.0513  0.5140  0.1426
  179SLPC  H12A20403   4.935   2.253  10.735 -1.5982 -0.7752 -2.9023
  179SLPC  H12B20404   4.855   2.310  10.881  0.8069  0.0483  0.1626
  179SLPC   C1120405   4.792   2.413  10.707  1.0060  0.3883  0.0475
  179SLPC  H11A20406   4.864   2.494  10.731 -0.3089  1.7096 -0.2990
  179SLPC  H11B20407   4.696   2.443  10.755  0.5207 -1.1241  0.0819
  179SLPC     P20408   4.917   2.396  10.467  0.2375  0.1513 -0.3549
  179SLPC   O1320409   4.972   2.529  10.477  0.1277  0.6971 -0.3962
  179SLPC   O1420410   5.006   2.284  10.511  0.6426 -0.3099 -0.5189
  179SLPC   O1220411   4.782   2.397  10.558  0.1779 -0.1094  0.4870
  179SLPC   O1120412   4.858   2.370  10.325  0.0939  0.4148 -0.4136
  179SLPC    C120413   4.824   2.237  10.290  0.2855  0.1256  0.6039
  179SLPC    HA20414   4.907   2.168  10.316 -0.7869 -1.3487  0.2460
  179SLPC    HB20415   4.737   2.209  10.354  0.2094  1.5856  1.1891
  179SLPC    C220416   4.782   2.228  10.139 -0.4728 -0.8739  0.4051
  179SLPC    HS20417   4.744   2.125  10.125 -1.2592 -0.2971 -2.0207
  179SLPC   O2120418   4.901   2.248  10.059  0.2200  0.1404 -0.6579
  179SLPC   C2120419   4.957   2.142  10.012  0.0380 -0.3133 -0.4608
  179SLPC   O2220420   4.928   2.021  10.027 -0.2682 -0.5304  0.5946
  179SLPC   C2220421   5.089   2.191   9.940  0.0708  0.2164 -0.0347
  179SLPC   H2R20422   5.051   2.280   9.885  1.2702  1.4112  1.0114
  179SLPC   H2S20423   5.167   2.211  10.017  0.4127 -0.8677 -0.0803
  179SLPC    C320424   4.671   2.337  10.104  0.1706 -0.3942  0.1770
  179SLPC    HX20425   4.698   2.436  10.147 -0.4989 -0.3724  0.5712
  179SLPC    HY20426   4.576   2.309  10.155 -1.7582  0.1315 -2.8387
  179SLPC   O3120427   4.654   2.350   9.963  0.5910  0.5824  0.5737
  179SLPC   C3120428   4.707   2.440   9.896  0.1534 -1.1044  0.8395
  179SLPC   O3220429   4.785   2.525   9.935  0.0423  0.1818 -0.4982
  179SLPC   C3220430   4.630   2.458   9.762  0.5258  0.1315  0.4248
  179SLPC   H2X20431   4.521   2.469   9.782 -0.4474 -0.2616 -3.7514
  179SLPC   H2Y20432   4.640   2.368   9.697 -0.9550 -0.0609  0.4309
  179SLPC   C2320433   5.129   2.087   9.836 -0.2977 -0.2030 -0.5861
  179SLPC   H3R20434   5.037   2.063   9.778  0.1113  3.1832 -2.8961
  179SLPC   H3S20435   5.164   1.988   9.875  3.0444  0.1455 -2.3533
  179SLPC   C2420436   5.246   2.124   9.741 -0.4260  0.1073 -0.6102
  179SLPC   H4R20437   5.337   2.143   9.802  1.2130 -0.7913 -2.6491
  179SLPC   H4S20438   5.211   2.212   9.683  1.5877  0.9473 -0.6371
  179SLPC   C2520439   5.254   2.012   9.635 -0.9949 -0.5905  0.3253
  179SLPC   H5R20440   5.258   1.916   9.690 -1.7407 -0.3227  0.8773
  179SLPC   H5S20441   5.348   2.019   9.577 -0.6144 -1.9526  0.7399
  179SLPC   C2620442   5.137   2.007   9.541  0.1860 -0.5633  0.7592
  179SLPC   H6R20443   5.129   2.109   9.497  1.9809  0.1189  1.9154
  179SLPC   H6S20444   5.041   1.979   9.589 -1.3261  2.0434 -0.5067
  179SLPC   C2720445   5.170   1.898   9.432  0.5904 -0.3040 -0.2037
  179SLPC   H7R20446   5.173   1.800   9.483  1.6067  0.3665  1.0839
  179SLPC   H7S20447   5.270   1.910   9.385  0.6658  0.5132  0.1412
  179SLPC   C2820448   5.058   1.898   9.322  0.0342  0.2775 -0.4018
  179SLPC   H8R20449   5.066   1.992   9.263  0.3645  0.9228  0.6414
  179SLPC   H8S20450   4.962   1.892   9.378  0.1105  1.5160 -0.1105
  179SLPC   C2920451   5.057   1.791   9.220 -0.4693 -0.0235  0.0706
  179SLPC   H9R20452   4.995   1.704   9.247  0.0384 -0.4676 -0.1594
  179SLPC  C21020453   5.140   1.777   9.112 -0.6473 -0.1981  0.5158
  179SLPC  H10R20454   5.128   1.703   9.031  0.5656  0.8788 -0.6843
  179SLPC  C21120455   5.235   1.891   9.077  0.5785  0.7128  0.7074
  179SLPC  H11R20456   5.303   1.900   9.165 -1.4187 -0.9069  2.5165
  179SLPC  H11S20457   5.177   1.985   9.072 -1.6043 -0.5870  0.1439
  179SLPC  C21220458   5.313   1.879   8.950  0.1328 -0.6528  0.0368
  179SLPC  H12R20459   5.412   1.831   8.960  1.5462  2.2560  1.5095
  179SLPC  C21320460   5.260   1.928   8.841  0.8199 -0.2115  0.4776
  179SLPC  H13R20461   5.317   1.926   8.748 -0.1852 -0.2860 -0.1537
  179SLPC  C21420462   5.121   1.990   8.816  0.0220  0.1506  0.6173
  179SLPC  H14R20463   5.127   2.084   8.757  0.8032  0.1765  0.7245
  179SLPC  H14S20464   5.067   2.019   8.908  0.5575  3.0759  0.1159
  179SLPC  C21520465   5.018   1.892   8.754 -0.1785  0.3816 -0.5332
  179SLPC  H15R20466   4.969   1.834   8.836  0.5265 -1.5431 -1.4271
  179SLPC  H15S20467   5.073   1.819   8.691 -2.3773  0.5738 -2.8594
  179SLPC  C21620468   4.913   1.967   8.671 -0.6172  0.0926  0.0265
  179SLPC  H16R20469   4.842   1.890   8.634  0.6328 -0.4577 -1.3467
  179SLPC  H16S20470   4.972   2.014   8.589  1.9626 -2.3759  0.3209
  179SLPC  C21720471   4.836   2.078   8.748 -0.5849  0.5836 -0.6780
  179SLPC  H17R20472   4.772   2.144   8.686  0.0903  3.3114  1.3678
  179SLPC  H17S20473   4.913   2.154   8.772 -0.3120  0.1634 -0.1998
  179SLPC  C21820474   4.758   2.039   8.874  0.7817 -0.4976 -0.2892
  179SLPC  H18R20475   4.711   2.130   8.918  1.3325 -0.5575  0.4462
  179SLPC  H18S20476   4.826   1.987   8.945 -1.4364 -0.4747  2.0066
  179SLPC  H18T20477   4.672   1.971   8.857  0.6684 -0.1032 -1.3362
  179SLPC   C3320478   4.691   2.565   9.669 -0.4377  0.2017  0.6285
  179SLPC   H3X20479   4.797   2.536   9.652 -0.6114 -0.3097  0.4077
  179SLPC   H3Y20480   4.689   2.667   9.712  1.9110  1.0300 -1.0047
  179SLPC   C3420481   4.625   2.579   9.530 -0.3614 -0.2108 -0.6391
  179SLPC   H4X20482   4.516   2.591   9.548 -0.6589  0.2628 -2.4886
  179SLPC   H4Y20483   4.639   2.482   9.478 -0.8850 -1.2207  1.0438
  179SLPC   C3520484   4.681   2.692   9.448 -0.1201  0.1142 -0.5305
  179SLPC   H5X20485   4.784   2.666   9.417  0.1554  0.8612 -0.2475
  179SLPC   H5Y20486   4.689   2.777   9.518  0.9456  1.3361 -2.0932
  179SLPC   C3620487   4.606   2.734   9.327 -0.0499 -0.6179 -0.6893
  179SLPC   H6X20488   4.673   2.809   9.280  0.8207 -1.0596 -0.1798
  179SLPC   H6Y20489   4.511   2.788   9.348  0.0474 -0.0563 -1.6325
  179SLPC   C3720490   4.584   2.631   9.218 -0.2141 -0.2643  0.5215
  179SLPC   H7X20491   4.539   2.541   9.266  0.9796 -0.9035  0.4645
  179SLPC   H7Y20492   4.679   2.602   9.169 -1.0334  0.5743 -1.6692
  179SLPC   C3820493   4.490   2.677   9.107 -0.6625  0.0705 -0.4387
  179SLPC   H8X20494   4.551   2.752   9.053  1.2070 -0.8479  0.2697
  179SLPC   H8Y20495   4.401   2.726   9.152  0.7987  1.0263  1.5630
  179SLPC   C3920496   4.461   2.557   9.016 -0.7358  0.1956 -0.2686
  179SLPC   H9X20497   4.377   2.571   8.945  1.0546  0.7895 -2.3790
  179SLPC   H9Y20498   4.444   2.471   9.085 -1.2774  0.0927 -0.5189
  179SLPC  C31020499   4.577   2.513   8.923  0.3971  0.5306  0.2822
  179SLPC  H10X20500   4.568   2.408   8.886  0.3471 -0.9153  4.0236
  179SLPC  H10Y20501   4.677   2.526   8.968 -0.3733 -0.0240  2.2674
  179SLPC  C31120502   4.567   2.599   8.795  1.0442  0.5734 -0.2630
  179SLPC  H11X20503   4.580   2.706   8.823  0.2180  0.7298 -0.4557
  179SLPC  H11Y20504   4.464   2.577   8.760  1.1084  0.7196 -0.5437
  179SLPC  C31220505   4.653   2.554   8.676  0.5987 -0.4158  0.4951
  179SLPC  H12X20506   4.611   2.570   8.574 -1.4186 -2.1328  0.9750
  179SLPC  H12Y20507   4.682   2.447   8.685 -0.6642 -0.7799  0.4749
  179SLPC  C31320508   4.798   2.625   8.690  0.2198 -0.3289 -0.1590
  179SLPC  H13X20509   4.849   2.568   8.770  1.5019 -0.0386 -0.7420
  179SLPC  H13Y20510   4.787   2.731   8.721 -0.3321 -0.8214  1.4072
  179SLPC  C31420511   4.890   2.621   8.570  0.0576  0.1674 -0.1950
  179SLPC  H14X20512   4.837   2.657   8.479  1.7708  0.1568 -1.2377
  179SLPC  H14Y20513   4.931   2.522   8.540 -0.1933  0.3520 -1.2116
  179SLPC  C31520514   5.014   2.713   8.594 -0.7519 -0.2054 -0.2139
  179SLPC  H15X20515   5.076   2.672   8.677  1.6413 -2.1218 -2.7206
  179SLPC  H15Y20516   4.973   2.811   8.626 -0.0369  0.1596 -0.3861
  179SLPC  C31620517   5.104   2.728   8.471  0.6557 -0.5569  0.2590
  179SLPC  H16X20518   5.040   2.735   8.380 -0.9478  0.1299  1.3936
  179SLPC  H16Y20519   5.164   2.637   8.452 -1.0338 -1.7293  0.3174
  179SLPC  C31720520   5.189   2.857   8.469  0.3989  0.5795 -0.0151
  179SLPC  H17X20521   5.262   2.852   8.553 -0.2257 -0.9439  0.4601
  179SLPC  H17Y20522   5.132   2.951   8.481  1.7933  1.3714  0.7212
  179SLPC  C31820523   5.257   2.873   8.332 -1.0291  0.0963  0.3984
  179SLPC  H18X20524   5.178   2.844   8.259 -0.2995 -0.8564 -0.0458
  179SLPC  H18Y20525   5.338   2.798   8.320  0.0640  1.3284 -0.0812
  179SLPC  H18Z20526   5.291   2.977   8.317 -0.9320  0.2145  1.3817
  180SLPC     N20527   6.725   5.837  11.160  0.7049 -0.4341 -0.3429
  180SLPC   C1320528   6.704   5.769  11.285  0.4066 -0.3057 -0.1018
  180SLPC  H13A20529   6.796   5.758  11.340  0.0152 -0.8753  0.4600
  180SLPC  H13B20530   6.638   5.821  11.353  1.0807 -1.9670  1.9558
  180SLPC  H13C20531   6.650   5.678  11.263 -0.7284  0.5431 -0.9321
  180SLPC   C1420532   6.745   5.980  11.190  0.5720  0.2215 -0.3558
  180SLPC  H14A20533   6.653   6.018  11.234  1.1680  1.4117 -0.0919
  180SLPC  H14B20534   6.827   6.003  11.256  1.8385 -1.2031 -1.3660
  180SLPC  H14C20535   6.752   6.048  11.106 -2.2878  0.1796 -0.7424
  180SLPC   C1520536   6.601   5.820  11.075 -0.2902  0.2069 -0.1373
  180SLPC  H15A20537   6.512   5.827  11.135  0.8330  1.3126  1.5166
  180SLPC  H15B20538   6.599   5.899  11.001 -1.2698  0.4291  0.1158
  180SLPC  H15C20539   6.595   5.729  11.018 -2.0612  0.0627  0.2387
  180SLPC   C1220540   6.845   5.778  11.087  0.9390 -0.2900  0.5689
  180SLPC  H12A20541   6.927   5.791  11.156 -0.9688  0.4821  2.8592
  180SLPC  H12B20542   6.866   5.818  10.989  2.6664  0.4446  1.2066
  180SLPC   C1120543   6.830   5.631  11.042  0.0068  0.5662  0.3130
  180SLPC  H11A20544   6.778   5.574  11.123  1.5417 -2.1614 -0.4937
  180SLPC  H11B20545   6.926   5.577  11.033 -0.5624 -0.7190  1.6048
  180SLPC     P20546   6.800   5.634  10.780  0.0811  0.1449  0.1716
  180SLPC   O1320547   6.897   5.532  10.744 -0.4682 -0.7639  0.1250
  180SLPC   O1420548   6.681   5.659  10.693 -0.2061  0.0021  0.0491
  180SLPC   O1220549   6.747   5.612  10.932 -0.2533 -0.6781  0.0143
  180SLPC   O1120550   6.876   5.777  10.796 -0.7186  0.2713 -0.2760
  180SLPC    C120551   6.810   5.896  10.757 -0.5638 -0.1501  0.0811
  180SLPC    HA20552   6.700   5.882  10.766 -0.8660  2.4646  1.3882
  180SLPC    HB20553   6.847   5.980  10.819  1.2779 -2.0837  1.7625
  180SLPC    C220554   6.836   5.935  10.606  0.6668  0.5500  0.6074
  180SLPC    HS20555   6.816   5.862  10.525  0.6499  1.8984 -0.6253
  180SLPC   O2120556   6.972   5.962  10.577 -0.2513  0.1000  0.7391
  180SLPC   C2120557   7.045   5.888  10.497  0.6491 -0.4070  0.0298
  180SLPC   O2220558   7.009   5.781  10.453  0.0526 -0.0621 -0.1882
  180SLPC   C2220559   7.172   5.960  10.464  0.2187  0.1066 -0.5243
  180SLPC   H2R20560   7.191   6.047  10.531 -2.0621  0.8400 -0.7220
  180SLPC   H2S20561   7.245   5.881  10.490  2.9732  2.8598  0.6968
  180SLPC    C320562   6.754   6.064  10.575  0.6322  0.2755 -0.3302
  180SLPC    HX20563   6.800   6.148  10.632 -0.3911  1.1464 -0.7556
  180SLPC    HY20564   6.650   6.055  10.612  1.2938 -2.6290  1.1440
  180SLPC   O3120565   6.759   6.095  10.438  0.0111 -0.1757  0.0840
  180SLPC   C3120566   6.670   6.037  10.358  0.2054  0.0786 -0.4039
  180SLPC   O3220567   6.580   5.964  10.391  0.1233 -0.0548 -0.4433
  180SLPC   C3220568   6.685   6.088  10.212 -0.1696 -0.2939  0.5780
  180SLPC   H2X20569   6.788   6.130  10.209  0.6025 -2.1473 -1.1226
  180SLPC   H2Y20570   6.606   6.166  10.206  0.8152  0.6976  0.2305
  180SLPC   C2320571   7.202   5.985  10.311 -0.3510 -1.2015  0.1609
  180SLPC   H3R20572   7.162   5.900  10.253  1.5199 -1.4616 -0.8222
  180SLPC   H3S20573   7.311   6.005  10.313 -0.5366 -0.1760  1.9418
  180SLPC   C2420574   7.141   6.119  10.275  0.4642 -0.1747 -0.1582
  180SLPC   H4R20575   7.174   6.221  10.304 -1.0543  0.2797  0.0659
  180SLPC   H4S20576   7.041   6.099  10.319  0.7249 -0.6893  0.2134
  180SLPC   C2520577   7.110   6.136  10.122  0.0340 -0.2262 -0.0447
  180SLPC   H5R20578   7.025   6.205  10.106 -1.3169 -2.0584 -1.2152
  180SLPC   H5S20579   7.064   6.036  10.107  1.1149 -0.5456 -1.3327
  180SLPC   C2620580   7.237   6.155  10.024  0.9224  0.4897 -0.5961
  180SLPC   H6R20581   7.318   6.117  10.090  0.5218  0.0332 -0.3593
  180SLPC   H6S20582   7.249   6.264  10.003 -0.2366  0.7307 -0.0835
  180SLPC   C2720583   7.219   6.082   9.890 -0.3121  0.9388  0.4059
  180SLPC   H7R20584   7.132   6.116   9.829 -2.4637 -2.4346  1.3233
  180SLPC   H7S20585   7.183   5.986   9.932  1.2183 -0.8049 -2.0265
  180SLPC   C2820586   7.348   6.042   9.823  0.3729  0.5742  1.0180
  180SLPC   H8R20587   7.424   6.011   9.898  0.0358 -2.0333  0.3958
  180SLPC   H8S20588   7.396   6.130   9.775  3.1681 -1.0938  0.5818
  180SLPC   C2920589   7.328   5.931   9.714 -0.6750  0.8399 -0.3692
  180SLPC   H9R20590   7.340   5.827   9.747  2.1084  1.3251  0.3955
  180SLPC  C21020591   7.309   5.949   9.578  0.3648  0.5259  0.3626
  180SLPC  H10R20592   7.297   5.859   9.516 -0.0174  1.9200 -1.6824
  180SLPC  C21120593   7.281   6.083   9.514  0.3859 -0.6016  0.2118
  180SLPC  H11R20594   7.375   6.142   9.519  0.4047 -0.6908  1.1625
  180SLPC  H11S20595   7.211   6.143   9.576 -0.0479  0.3090 -1.1178
  180SLPC  C21220596   7.212   6.060   9.379 -0.2642 -0.7259  0.3992
  180SLPC  H12R20597   7.163   5.962   9.366 -0.0442 -0.6853 -0.9688
  180SLPC  C21320598   7.235   6.130   9.266 -0.2943  0.2168  0.6901
  180SLPC  H13R20599   7.193   6.089   9.173 -3.8561  1.9991  1.3503
  180SLPC  C21420600   7.327   6.252   9.266  0.7595  0.5283 -0.4169
  180SLPC  H14R20601   7.403   6.247   9.347  0.5736 -1.2866 -0.3117
  180SLPC  H14S20602   7.267   6.345   9.277  0.0830  0.1741 -1.0171
  180SLPC  C21520603   7.390   6.270   9.134 -0.5290  0.5087  0.0569
  180SLPC  H15R20604   7.313   6.259   9.055 -0.1887  1.1677 -0.3740
  180SLPC  H15S20605   7.467   6.190   9.131 -1.4229 -0.3617 -0.3406
  180SLPC  C21620606   7.467   6.409   9.118  0.3612  0.1354  0.4026
  180SLPC  H16R20607   7.551   6.410   9.190  1.0790  0.7639 -0.4127
  180SLPC  H16S20608   7.401   6.494   9.145  0.0335  0.3020 -0.8596
  180SLPC  C21720609   7.518   6.417   8.972 -0.4144  0.3449 -0.7797
  180SLPC  H17R20610   7.437   6.410   8.897 -0.3685  2.3136 -1.0615
  180SLPC  H17S20611   7.598   6.341   8.961  0.7603  1.3173  0.6075
  180SLPC  C21820612   7.575   6.552   8.942  0.2084  0.2238 -0.1094
  180SLPC  H18R20613   7.579   6.560   8.831 -1.3709 -0.9203 -0.2848
  180SLPC  H18S20614   7.679   6.558   8.982  0.6735 -0.3956 -1.1730
  180SLPC  H18T20615   7.503   6.630   8.975 -2.9240 -2.3544 -0.3424
  180SLPC   C3320616   6.682   5.981  10.105 -0.1595 -0.3063  0.0642
  180SLPC   H3X20617   6.656   6.019  10.004 -0.3135  3.6090  1.4224
  180SLPC   H3Y20618   6.597   5.915  10.135 -1.1571  0.5105 -0.8998
  180SLPC   C3420619   6.803   5.885  10.089 -0.0390 -0.4293  0.2386
  180SLPC   H4X20620   6.868   5.870  10.178  0.2306  1.6818  0.4530
  180SLPC   H4Y20621   6.878   5.916  10.013 -1.0751 -1.6140 -1.3409
  180SLPC   C3520622   6.752   5.741  10.050 -0.5380 -0.4182 -0.0823
  180SLPC   H5X20623   6.693   5.737   9.955 -1.8325 -0.0109  0.6784
  180SLPC   H5Y20624   6.682   5.726  10.134  0.2553 -1.3685  0.4266
  180SLPC   C3620625   6.869   5.638  10.044  0.1590 -0.2015 -0.2906
  180SLPC   H6X20626   6.827   5.536  10.063  0.6136 -0.5557 -1.1514
  180SLPC   H6Y20627   6.923   5.664  10.137 -0.0277 -1.3865  0.1658
  180SLPC   C3720628   6.952   5.633   9.913  0.5597  0.9921  0.4815
  180SLPC   H7X20629   7.036   5.562   9.927  0.6148  1.0189  0.2937
  180SLPC   H7Y20630   6.995   5.734   9.897 -0.6398  1.5717  0.7918
  180SLPC   C3820631   6.865   5.579   9.794 -0.1438  0.2545  0.7418
  180SLPC   H8X20632   6.785   5.650   9.762  1.6881  1.0952 -2.3851
  180SLPC   H8Y20633   6.825   5.480   9.824 -0.1506  0.7150  2.3238
  180SLPC   C3920634   6.925   5.562   9.658  0.6723 -0.4912 -0.5136
  180SLPC   H9X20635   7.001   5.480   9.659  2.0477  0.7304  0.0801
  180SLPC   H9Y20636   6.976   5.655   9.624 -0.5679  1.2124  1.9387
  180SLPC  C31020637   6.812   5.523   9.559  0.0899  0.0852  0.4018
  180SLPC  H10X20638   6.717   5.579   9.573 -0.1292 -0.2146  0.1054
  180SLPC  H10Y20639   6.791   5.418   9.586  3.3938 -1.3827 -2.0288
  180SLPC  C31120640   6.855   5.538   9.410 -0.0276 -0.1731  0.4768
  180SLPC  H11X20641   6.956   5.495   9.404  0.4873  0.9875  0.4831
  180SLPC  H11Y20642   6.871   5.646   9.389  1.6057 -0.5964 -0.6445
  180SLPC  C31220643   6.748   5.494   9.306  0.8303 -0.4024  0.3441
  180SLPC  H12X20644   6.661   5.563   9.316  0.1920 -0.9534 -1.1639
  180SLPC  H12Y20645   6.719   5.388   9.323  0.8910 -0.9771 -2.6703
  180SLPC  C31320646   6.798   5.511   9.163  0.3300  0.3013  0.3684
  180SLPC  H13X20647   6.895   5.460   9.147 -0.1313  0.4299 -4.1462
  180SLPC  H13Y20648   6.827   5.614   9.136 -1.2347  0.7644  0.3495
  180SLPC  C31420649   6.708   5.447   9.057  0.1229  0.7185 -0.0299
  180SLPC  H14X20650   6.605   5.488   9.063 -0.1463  0.0237  0.3524
  180SLPC  H14Y20651   6.689   5.338   9.074 -0.6438  0.9639  0.7926
  180SLPC  C31520652   6.767   5.473   8.914  0.8047  0.2388  0.2173
  180SLPC  H15X20653   6.770   5.584   8.911  1.3324  0.3747  3.1914
  180SLPC  H15Y20654   6.687   5.431   8.849  0.4916  0.8062  0.2350
  180SLPC  C31620655   6.898   5.406   8.871  1.1230  0.4195 -0.7167
  180SLPC  H16X20656   6.975   5.410   8.951  0.2503 -1.6698  0.2956
  180SLPC  H16Y20657   6.947   5.456   8.785  2.3705 -0.3993 -0.5083
  180SLPC  C31720658   6.876   5.257   8.855 -0.4614  0.4000 -0.4869
  180SLPC  H17X20659   6.796   5.250   8.777 -1.0520  2.5790 -0.1325
  180SLPC  H17Y20660   6.824   5.219   8.945 -3.9466 -1.6694 -3.1067
  180SLPC  C31820661   7.004   5.180   8.819  0.1903 -0.4066 -0.5364
  180SLPC  H18X20662   7.063   5.223   8.735  1.0697 -1.4908 -0.4825
  180SLPC  H18Y20663   6.979   5.076   8.792  0.6071 -0.0670 -2.3657
  180SLPC  H18Z20664   7.067   5.178   8.910  0.5521  0.4094 -0.7613
  181SLPC     N20665   3.391   2.833  11.225 -0.8268 -0.0762  0.0469
  181SLPC   C1320666   3.344   2.727  11.320  0.1459  0.2656 -0.1150
  181SLPC  H13A20667   3.236   2.726  11.327  0.1681  1.8717  1.2301
  181SLPC  H13B20668   3.379   2.630  11.289 -0.1542  0.4466 -1.0474
  181SLPC  H13C20669   3.376   2.738  11.423  1.0401  0.4074 -0.3986
  181SLPC   C1420670   3.362   2.962  11.298  0.4980 -0.3864  0.0780
  181SLPC  H14A20671   3.384   3.047  11.235  1.1903 -1.0752 -0.6253
  181SLPC  H14B20672   3.258   2.974  11.323  1.0941  2.9500  1.5893
  181SLPC  H14C20673   3.428   2.972  11.383  1.0917 -0.1214 -0.4045
  181SLPC   C1520674   3.315   2.833  11.097 -0.3716  0.5290 -0.2206
  181SLPC  H15A20675   3.336   2.744  11.039 -2.1459 -0.6108  0.8184
  181SLPC  H15B20676   3.208   2.829  11.111 -0.3159 -2.0937 -0.0566
  181SLPC  H15C20677   3.360   2.910  11.037  0.8450 -0.2877 -0.4157
  181SLPC   C1220678   3.541   2.826  11.197  0.2535 -0.2014 -0.1190
  181SLPC  H12A20679   3.549   2.733  11.143 -1.2605 -0.6381  0.3728
  181SLPC  H12B20680   3.600   2.813  11.287  1.9538 -1.1046 -1.3060
  181SLPC   C1120681   3.607   2.938  11.109  0.2032  0.0455 -0.2295
  181SLPC  H11A20682   3.715   2.914  11.119 -0.1506 -1.5929 -0.1313
  181SLPC  H11B20683   3.587   3.042  11.144 -1.1706  0.4441 -2.0167
  181SLPC     P20684   3.606   2.809  10.872  0.1135  0.0125 -0.6190
  181SLPC   O1320685   3.708   2.862  10.782 -0.0889  0.0586 -0.3621
  181SLPC   O1420686   3.635   2.684  10.949 -0.0368  0.0095 -0.2407
  181SLPC   O1220687   3.568   2.930  10.974  0.4141 -0.3406 -0.7485
  181SLPC   O1120688   3.471   2.791  10.796  0.2550  0.9912  0.3934
  181SLPC    C120689   3.405   2.897  10.730  0.2445 -0.4567 -0.0565
  181SLPC    HA20690   3.361   2.964  10.807  1.3885  1.3943 -0.9174
  181SLPC    HB20691   3.474   2.944  10.656 -1.1232  0.2137 -0.9579
  181SLPC    C220692   3.283   2.852  10.637 -1.4908 -0.4579  0.0430
  181SLPC    HS20693   3.229   2.792  10.714 -2.2781  1.8186  1.3740
  181SLPC   O2120694   3.332   2.776  10.532 -0.6778  0.6032 -0.2110
  181SLPC   C2120695   3.237   2.713  10.457  0.3439  0.1105  0.7173
  181SLPC   O2220696   3.122   2.689  10.490 -0.8919 -0.1125 -0.3260
  181SLPC   C2220697   3.290   2.677  10.315 -0.6445 -0.5426 -0.6937
  181SLPC   H2R20698   3.370   2.751  10.294  0.0230 -0.8950  0.4937
  181SLPC   H2S20699   3.332   2.576  10.332 -0.1809 -0.5177 -1.6441
  181SLPC    C320700   3.208   2.972  10.587 -0.7851  0.3756  0.0976
  181SLPC    HX20701   3.154   3.015  10.673  1.1604  1.5482  0.7867
  181SLPC    HY20702   3.133   2.948  10.508 -1.0198  0.7132  0.2162
  181SLPC   O3120703   3.300   3.068  10.532  0.1471 -0.4529 -0.6303
  181SLPC   C3120704   3.237   3.185  10.519  0.2861 -0.4787  0.1518
  181SLPC   O3220705   3.115   3.207  10.539 -0.8630  0.1028  0.1687
  181SLPC   C3220706   3.344   3.279  10.458  0.3505 -0.4805  0.0628
  181SLPC   H2X20707   3.394   3.216  10.381 -0.1166  0.6150 -1.1694
  181SLPC   H2Y20708   3.412   3.293  10.545 -3.3634  0.2647  3.1104
  181SLPC   C2320709   3.187   2.660  10.201 -0.1016  0.2632 -0.1623
  181SLPC   H3R20710   3.124   2.751  10.198 -1.0617 -0.4155 -1.4351
  181SLPC   H3S20711   3.117   2.576  10.221 -1.1491  0.9234 -0.9698
  181SLPC   C2420712   3.257   2.625  10.065 -0.2797 -0.4423  0.0601
  181SLPC   H4R20713   3.324   2.538  10.084  2.7847  1.9581  1.2619
  181SLPC   H4S20714   3.320   2.716  10.047 -0.5144 -0.3721 -0.4339
  181SLPC   C2520715   3.163   2.597   9.944  1.2057 -0.5243  0.2442
  181SLPC   H5R20716   3.117   2.696   9.924  2.2784 -0.4454 -2.2020
  181SLPC   H5S20717   3.090   2.523   9.982  1.9124 -0.7499  1.2062
  181SLPC   C2620718   3.236   2.539   9.820 -0.6356  0.1177 -0.0953
  181SLPC   H6R20719   3.257   2.433   9.846 -0.9561  0.2248  0.6175
  181SLPC   H6S20720   3.326   2.601   9.800 -0.7958  0.2936 -0.2808
  181SLPC   C2720721   3.162   2.542   9.682  0.3973  0.4379  0.0836
  181SLPC   H7R20722   3.133   2.650   9.676 -1.3891  0.1952  2.7376
  181SLPC   H7S20723   3.071   2.479   9.677  0.6041  0.2288 -2.1228
  181SLPC   C2820724   3.255   2.512   9.567  0.0427 -0.1958  0.4715
  181SLPC   H8R20725   3.259   2.402   9.549  0.6234 -0.0835 -0.1054
  181SLPC   H8S20726   3.353   2.559   9.587 -0.0639  0.3209 -0.1930
  181SLPC   C2920727   3.213   2.578   9.432  0.8121  0.6143 -0.3017
  181SLPC   H9R20728   3.246   2.683   9.423 -0.0938  1.1756  2.0837
  181SLPC  C21020729   3.150   2.517   9.329  0.1671 -1.0093 -0.2709
  181SLPC  H10R20730   3.139   2.579   9.239  0.6801 -0.8859 -0.2554
  181SLPC  C21120731   3.106   2.375   9.322  0.4692 -0.4418 -0.2777
  181SLPC  H11R20732   3.154   2.325   9.409 -0.4930 -0.9627 -0.0310
  181SLPC  H11S20733   3.149   2.325   9.233  2.3223 -1.6833  1.2089
  181SLPC  C21220734   2.954   2.367   9.328 -0.0858  0.8501  0.7213
  181SLPC  H12R20735   2.920   2.353   9.431 -2.3242  0.3298 -0.0337
  181SLPC  C21320736   2.869   2.353   9.227  0.5769 -0.1708 -0.4771
  181SLPC  H13R20737   2.760   2.350   9.241  0.1442  0.4448 -3.1974
  181SLPC  C21420738   2.899   2.355   9.081  0.3420 -0.4623  0.0969
  181SLPC  H14R20739   3.010   2.359   9.074  0.3909  3.4668  0.6014
  181SLPC  H14S20740   2.841   2.439   9.037 -1.1330 -1.6388 -0.2465
  181SLPC  C21520741   2.843   2.227   9.016 -0.7568  0.6289  0.0474
  181SLPC  H15R20742   2.735   2.215   9.038 -1.3512  1.5801 -2.0899
  181SLPC  H15S20743   2.907   2.147   9.060 -1.9240 -0.2477  0.1960
  181SLPC  C21620744   2.857   2.233   8.865 -0.4633 -0.1094  0.6503
  181SLPC  H16R20745   2.961   2.218   8.831  0.0062  0.7074  1.6810
  181SLPC  H16S20746   2.816   2.333   8.839 -0.3099  0.0827  1.1453
  181SLPC  C21720747   2.769   2.119   8.799  0.0936 -0.5220 -0.0226
  181SLPC  H17R20748   2.677   2.093   8.855 -0.0273  1.4624  0.7969
  181SLPC  H17S20749   2.841   2.035   8.797 -0.0262 -0.6377  0.3651
  181SLPC  C21820750   2.729   2.162   8.657  0.2498  0.8068  0.5767
  181SLPC  H18R20751   2.626   2.203   8.655  0.2874  0.8692 -0.8237
  181SLPC  H18S20752   2.731   2.080   8.582 -2.3264  2.5035 -1.5584
  181SLPC  H18T20753   2.805   2.234   8.619 -0.1591  0.5297 -0.8062
  181SLPC   C3320754   3.282   3.409  10.396  1.2217 -0.4444 -0.3490
  181SLPC   H3X20755   3.369   3.478  10.383  0.4551  0.8238  1.0038
  181SLPC   H3Y20756   3.209   3.453  10.467  2.1008  0.3764  0.0749
  181SLPC   C3420757   3.209   3.397  10.259  0.2811 -0.2042  0.1948
  181SLPC   H4X20758   3.127   3.324  10.279  1.7733 -1.7132  1.1171
  181SLPC   H4Y20759   3.275   3.346  10.185 -0.8457 -1.1378 -0.2060
  181SLPC   C3520760   3.155   3.530  10.210 -0.4825  0.3236  0.8320
  181SLPC   H5X20761   3.219   3.619  10.227 -2.0875  1.4628  1.2584
  181SLPC   H5Y20762   3.067   3.544  10.277 -0.4255 -0.9760  1.2079
  181SLPC   C3620763   3.109   3.534  10.067  0.0336  0.0402  0.2192
  181SLPC   H6X20764   3.044   3.624  10.059  0.2978  0.2402  0.2866
  181SLPC   H6Y20765   3.038   3.451  10.049 -1.6356  1.2476  1.0482
  181SLPC   C3720766   3.221   3.532   9.961  0.4669 -0.4655  0.8993
  181SLPC   H7X20767   3.172   3.517   9.862 -0.0495 -2.3215  1.3800
  181SLPC   H7Y20768   3.295   3.455   9.991  1.6291 -0.0119 -0.6982
  181SLPC   C3820769   3.292   3.658   9.940  0.1916  0.4412 -0.0513
  181SLPC   H8X20770   3.288   3.704  10.041 -1.1120 -0.9222  0.5524
  181SLPC   H8Y20771   3.238   3.732   9.878 -2.7134 -2.4155 -1.2020
  181SLPC   C3920772   3.438   3.648   9.903 -0.2466 -0.5030  0.0400
  181SLPC   H9X20773   3.443   3.614   9.797  1.2874 -1.1926  0.3089
  181SLPC   H9Y20774   3.477   3.567   9.969 -2.4890 -0.5155  1.4464
  181SLPC  C31020775   3.525   3.777   9.931 -0.5968 -0.2839  0.0880
  181SLPC  H10X20776   3.461   3.868   9.928 -0.1461  0.1294  1.7636
  181SLPC  H10Y20777   3.623   3.779   9.880 -0.0295  0.3355  1.1670
  181SLPC  C31120778   3.578   3.781  10.077  0.7286 -0.3528 -0.4514
  181SLPC  H11X20779   3.660   3.707  10.081  0.6660 -0.7222 -3.5816
  181SLPC  H11Y20780   3.497   3.748  10.146  1.0402  1.5134  0.8801
  181SLPC  C31220781   3.623   3.920  10.116 -0.8841 -0.1941 -0.4636
  181SLPC  H12X20782   3.540   3.990  10.137  0.7866  2.3200 -1.7068
  181SLPC  H12Y20783   3.678   3.972  10.035 -1.9228  2.0703  0.2042
  181SLPC  C31320784   3.710   3.927  10.243 -0.4080 -0.7604 -0.4802
  181SLPC  H13X20785   3.803   3.868  10.225  0.2696 -0.6581  2.1925
  181SLPC  H13Y20786   3.640   3.888  10.320 -1.6057 -2.7997 -2.4819
  181SLPC  C31420787   3.744   4.070  10.278  0.1643  0.2489  0.7349
  181SLPC  H14X20788   3.650   4.127  10.294  0.0556  1.1317 -2.3695
  181SLPC  H14Y20789   3.792   4.126  10.195 -2.3075  0.0189 -0.9736
  181SLPC  C31520790   3.819   4.059  10.407  0.2094  0.1068  0.1221
  181SLPC  H15X20791   3.920   4.014  10.393  0.8370  1.0593  1.3534
  181SLPC  H15Y20792   3.772   3.987  10.477  0.9127 -1.2863 -0.7975
  181SLPC  C31620793   3.847   4.198  10.472  0.7826  0.2634  0.2698
  181SLPC  H16X20794   3.747   4.239  10.500 -0.5525 -2.0521 -0.7531
  181SLPC  H16Y20795   3.891   4.260  10.392  2.8781  0.3883  1.4639
  181SLPC  C31720796   3.945   4.188  10.590  0.0600 -0.1268  0.8561
  181SLPC  H17X20797   4.002   4.281  10.609 -0.7509  0.6737 -0.5045
  181SLPC  H17Y20798   4.009   4.101  10.563  0.9344  0.5237  0.7841
  181SLPC  C31820799   3.870   4.152  10.715  0.2212 -0.1634  0.0780
  181SLPC  H18X20800   3.784   4.221  10.733  2.4512  2.2470  2.4403
  181SLPC  H18Y20801   3.948   4.173  10.791 -0.1400  0.1301  0.3773
  181SLPC  H18Z20802   3.842   4.045  10.716  0.4067 -0.2060  1.1643
  182SLPC     N20803   1.677   4.959  10.966  0.1412  0.0966 -0.1517
  182SLPC   C1320804   1.736   5.096  11.004 -0.1720  0.2609 -0.5383
  182SLPC  H13A20805   1.701   5.131  11.101  1.6373 -0.8997  0.5804
  182SLPC  H13B20806   1.843   5.088  11.012 -0.3649 -1.0637  1.2907
  182SLPC  H13C20807   1.700   5.166  10.930 -3.6196 -1.6324 -0.8619
  182SLPC   C1420808   1.700   4.861  11.073  0.0177  0.6212 -0.4382
  182SLPC  H14A20809   1.674   4.910  11.166 -0.1506  1.5748 -0.9747
  182SLPC  H14B20810   1.631   4.778  11.071  0.6000  0.1142  0.0861
  182SLPC  H14C20811   1.802   4.827  11.080 -0.8961 -2.0766  1.5776
  182SLPC   C1520812   1.742   4.913  10.842 -0.0016 -0.3728 -0.8667
  182SLPC  H15A20813   1.691   4.826  10.805  0.8182 -1.2359 -0.0381
  182SLPC  H15B20814   1.740   4.985  10.762  0.0590  1.4540  0.6940
  182SLPC  H15C20815   1.847   4.894  10.862  0.0265  0.8116  0.2281
  182SLPC   C1220816   1.537   4.986  10.949  1.1103  0.7850 -0.1243
  182SLPC  H12A20817   1.497   5.023  11.042 -1.2809  1.7326 -1.4423
  182SLPC  H12B20818   1.489   4.889  10.943  2.1754  0.1825  0.7259
  182SLPC   C1120819   1.493   5.078  10.838 -0.0424  0.2931  0.2778
  182SLPC  H11A20820   1.550   5.173  10.828 -0.9605  0.7544 -0.7955
  182SLPC  H11B20821   1.388   5.110  10.855 -0.0571 -0.6216  2.2114
  182SLPC     P20822   1.384   4.997  10.619  0.0313 -0.0041 -0.2187
  182SLPC   O1320823   1.282   4.907  10.675  0.2917  0.7902 -0.2038
  182SLPC   O1420824   1.335   5.131  10.583  0.2346  0.4932 -0.1769
  182SLPC   O1220825   1.507   5.017  10.717 -0.6696  0.0266  0.9886
  182SLPC   O1120826   1.445   4.925  10.494  0.2034 -0.2988  0.1050
  182SLPC    C120827   1.577   4.951  10.445  0.7041  0.5068 -0.2902
  182SLPC    HA20828   1.659   4.941  10.519  1.8708 -0.2633 -1.6318
  182SLPC    HB20829   1.608   4.870  10.375  2.5108  1.1991 -0.3526
  182SLPC    C220830   1.588   5.093  10.372  0.1570 -0.2132 -0.0727
  182SLPC    HS20831   1.522   5.163  10.426  0.2551  0.6948 -1.0929
  182SLPC   O2120832   1.552   5.066  10.237  0.6068  0.0803 -0.1774
  182SLPC   C2120833   1.510   5.178  10.181  0.1372 -0.4063  0.0147
  182SLPC   O2220834   1.502   5.287  10.235  0.1029 -0.2051  0.1251
  182SLPC   C2220835   1.464   5.150  10.036  0.1077 -0.1910 -0.5504
  182SLPC   H2R20836   1.498   5.047  10.011 -1.7723 -1.1003  0.4509
  182SLPC   H2S20837   1.353   5.142  10.045  0.0933  0.7800  0.2443
  182SLPC    C320838   1.726   5.149  10.400  0.0033 -0.3526 -0.3432
  182SLPC    HX20839   1.785   5.063  10.361 -2.5373 -0.0975 -5.5774
  182SLPC    HY20840   1.757   5.170  10.504  2.1898  1.4614 -1.2747
  182SLPC   O3120841   1.768   5.261  10.309  0.1607  0.1076 -0.1944
  182SLPC   C3120842   1.770   5.384  10.375  0.1576  0.0897 -0.2146
  182SLPC   O3220843   1.739   5.399  10.490  0.3623  0.3786 -0.3924
  182SLPC   C3220844   1.791   5.508  10.279  0.7344  0.3536 -0.3630
  182SLPC   H2X20845   1.860   5.577  10.332 -0.9158  0.9810  1.0813
  182SLPC   H2Y20846   1.696   5.564  10.264  1.4979  1.6026 -0.6729
  182SLPC   C2320847   1.504   5.256   9.935 -0.0842  0.3156  0.8615
  182SLPC   H3R20848   1.613   5.248   9.913 -0.6328 -1.6034 -1.6371
  182SLPC   H3S20849   1.479   5.353   9.982 -1.7576  0.6581 -0.6141
  182SLPC   C2420850   1.452   5.241   9.796  0.5261  0.1281  0.7840
  182SLPC   H4R20851   1.342   5.259   9.799  0.8272  2.3550  0.3665
  182SLPC   H4S20852   1.457   5.137   9.757  1.6244  0.2405  0.5920
  182SLPC   C2520853   1.514   5.333   9.686  0.5581  0.2631  0.1475
  182SLPC   H5R20854   1.623   5.352   9.696  0.8431 -0.0958 -1.8584
  182SLPC   H5S20855   1.458   5.428   9.694  1.0381  0.9360 -3.0606
  182SLPC   C2620856   1.509   5.280   9.542 -0.1284 -0.8210 -0.2303
  182SLPC   H6R20857   1.406   5.250   9.515  0.0055 -1.6823  0.1694
  182SLPC   H6S20858   1.568   5.188   9.519 -0.0300 -0.7160 -0.4056
  182SLPC   C2720859   1.568   5.387   9.442  0.6334 -0.4778  0.0912
  182SLPC   H7R20860   1.665   5.411   9.491  0.1423 -0.5262  1.1292
  182SLPC   H7S20861   1.498   5.471   9.458  0.5975 -0.1417 -1.6978
  182SLPC   C2820862   1.573   5.362   9.292  0.4036 -0.4510  0.0618
  182SLPC   H8R20863   1.629   5.268   9.272  4.8437  1.3427  2.5069
  182SLPC   H8S20864   1.645   5.437   9.253  2.7267 -1.9575  1.2203
  182SLPC   C2920865   1.444   5.362   9.215 -0.0611 -0.7103 -0.2953
  182SLPC   H9R20866   1.364   5.317   9.274 -0.5296  1.3360  0.6901
  182SLPC  C21020867   1.415   5.427   9.097 -0.5830 -0.4354  0.1861
  182SLPC  H10R20868   1.317   5.430   9.049 -0.4791  0.8046  0.0218
  182SLPC  C21120869   1.510   5.508   9.017 -0.1645 -0.0260 -0.7570
  182SLPC  H11R20870   1.614   5.513   9.054 -0.8392  2.0262  1.0694
  182SLPC  H11S20871   1.473   5.612   9.022  0.1556  0.0665 -0.3266
  182SLPC  C21220872   1.528   5.459   8.877  0.4278  0.1769  0.1473
  182SLPC  H12R20873   1.507   5.351   8.879  0.0918  0.2362 -0.0250
  182SLPC  C21320874   1.570   5.519   8.767 -0.0779  0.0999  0.7000
  182SLPC  H13R20875   1.584   5.466   8.672  0.1277 -1.3147  1.5036
  182SLPC  C21420876   1.606   5.668   8.755 -0.2298  0.6240  0.6001
  182SLPC  H14R20877   1.710   5.675   8.719 -0.7528 -0.5730 -1.3365
  182SLPC  H14S20878   1.609   5.710   8.857  0.8700  3.0380 -0.3685
  182SLPC  C21520879   1.515   5.747   8.649  0.3682  0.0372 -0.1091
  182SLPC  H15R20880   1.536   5.854   8.631  0.5522 -0.1852 -1.3128
  182SLPC  H15S20881   1.411   5.732   8.683  0.5320  0.1035  0.4185
  182SLPC  C21620882   1.517   5.682   8.506 -0.5185  0.6590 -0.3660
  182SLPC  H16R20883   1.491   5.575   8.520  0.6240  0.4428  0.2484
  182SLPC  H16S20884   1.619   5.702   8.469  1.4628  0.7616  4.3938
  182SLPC  C21720885   1.430   5.749   8.414  0.1061 -0.6074  0.5055
  182SLPC  H17R20886   1.455   5.857   8.411 -2.0494 -0.0077  1.9481
  182SLPC  H17S20887   1.324   5.749   8.449 -1.0257 -0.7452 -2.6011
  182SLPC  C21820888   1.423   5.697   8.268 -0.4911  0.2594 -0.5043
  182SLPC  H18R20889   1.396   5.590   8.281 -0.0344  0.0796 -1.0056
  182SLPC  H18S20890   1.519   5.703   8.212  0.2848 -1.5811  0.5250
  182SLPC  H18T20891   1.334   5.734   8.214  0.1505  1.9428 -0.4485
  182SLPC   C3320892   1.855   5.457  10.144  0.4400 -0.3758  0.9085
  182SLPC   H3X20893   1.866   5.547  10.080 -1.4631 -0.3343  0.5569
  182SLPC   H3Y20894   1.775   5.390  10.104  0.9735 -0.6267  0.2423
  182SLPC   C3420895   1.993   5.398  10.150 -0.6557  0.2993  0.9160
  182SLPC   H4X20896   1.984   5.296  10.194  1.2505 -0.9832 -1.4856
  182SLPC   H4Y20897   2.064   5.455  10.213  0.7562 -1.3093  0.8473
  182SLPC   C3520898   2.064   5.391  10.010  0.1315  0.1326 -0.2488
  182SLPC   H5X20899   2.174   5.385  10.026  0.0432 -2.2471 -0.0316
  182SLPC   H5Y20900   2.035   5.491   9.973 -2.1782  0.2556  1.6604
  182SLPC   C3620901   2.007   5.273   9.930  0.4709  0.1659  0.5677
  182SLPC   H6X20902   1.898   5.271   9.954  0.1784  1.4701 -0.5241
  182SLPC   H6Y20903   2.049   5.178   9.969 -1.8538 -0.3243  2.1178
  182SLPC   C3720904   2.021   5.271   9.781  0.0577  0.2531 -0.4196
  182SLPC   H7X20905   1.993   5.175   9.733  0.4148  1.1356 -2.4950
  182SLPC   H7Y20906   2.130   5.283   9.763 -0.2261 -0.0612 -2.5946
  182SLPC   C3820907   1.950   5.383   9.701  0.6998  0.5536  0.8443
  182SLPC   H8X20908   1.978   5.480   9.748 -1.1040  2.0087 -0.8758
  182SLPC   H8Y20909   1.843   5.364   9.727  0.4171  1.6754  0.5717
  182SLPC   C3920910   1.993   5.387   9.550 -0.3222  0.1349 -0.3421
  182SLPC   H9X20911   2.102   5.394   9.532  0.0813 -3.7682 -0.3099
  182SLPC   H9Y20912   1.945   5.477   9.505 -1.0195 -0.8916 -1.6994
  182SLPC  C31020913   1.948   5.268   9.461  0.1194  0.3307  0.4482
  182SLPC  H10X20914   1.849   5.227   9.489  0.5567 -1.3067 -0.2994
  182SLPC  H10Y20915   2.013   5.190   9.506 -1.9391 -0.5229  2.1188
  182SLPC  C31120916   1.969   5.283   9.312 -0.5993  0.6105 -0.4064
  182SLPC  H11X20917   2.070   5.325   9.292  0.1217  0.1215  1.8701
  182SLPC  H11Y20918   1.896   5.352   9.265  1.5496  2.2252 -1.5608
  182SLPC  C31220919   1.941   5.153   9.233  0.0498  0.5055  0.5839
  182SLPC  H12X20920   1.834   5.127   9.246 -0.0299  0.7205  0.3780
  182SLPC  H12Y20921   2.006   5.070   9.266 -1.4443 -0.8410  0.2640
  182SLPC  C31320922   1.965   5.167   9.082 -0.8533 -0.0126 -0.7227
  182SLPC  H13X20923   2.037   5.089   9.049 -0.8827 -0.3479 -0.0213
  182SLPC  H13Y20924   2.013   5.266   9.066 -0.8223  0.1359  0.2482
  182SLPC  C31420925   1.846   5.162   8.985  0.4996 -0.2471 -0.1538
  182SLPC  H14X20926   1.765   5.220   9.033  1.2522  1.5805 -0.9811
  182SLPC  H14Y20927   1.812   5.058   8.968  0.3260 -0.1897 -0.1565
  182SLPC  C31520928   1.861   5.239   8.850 -0.6873 -0.1055 -0.7314
  182SLPC  H15X20929   1.892   5.345   8.865  0.7789 -0.8226  1.8540
  182SLPC  H15Y20930   1.756   5.246   8.815 -0.2002  1.9161 -1.9870
  182SLPC  C31620931   1.924   5.162   8.729 -0.0754  0.0106  0.7587
  182SLPC  H16X20932   1.907   5.229   8.642  0.5565 -1.0698 -0.2334
  182SLPC  H16Y20933   1.860   5.076   8.699 -0.1218  0.8101 -1.6879
  182SLPC  C31720934   2.074   5.132   8.742  0.2235  0.7472 -0.5070
  182SLPC  H17X20935   2.109   5.085   8.647  0.5451 -2.6057  1.1118
  182SLPC  H17Y20936   2.082   5.050   8.816 -1.0594  0.5529 -0.5591
  182SLPC  C31820937   2.160   5.258   8.776  0.1221 -0.7059 -0.3505
  182SLPC  H18X20938   2.153   5.344   8.705  0.7564 -0.1962  0.1827
  182SLPC  H18Y20939   2.266   5.225   8.777 -0.6428 -3.3512 -0.3457
  182SLPC  H18Z20940   2.140   5.292   8.880  0.0476  0.5481 -0.7537
  183SLPC     N20941   2.772   5.137  11.133 -0.1710  0.4387 -0.3022
  183SLPC   C1320942   2.893   5.164  11.215 -0.3100 -0.1159  0.4513
  183SLPC  H13A20943   2.874   5.223  11.303  0.9130  1.5711 -0.3515
  183SLPC  H13B20944   2.936   5.073  11.254  0.0747  0.6196  1.7997
  183SLPC  H13C20945   2.964   5.215  11.152 -1.8421 -1.0661 -2.2008
  183SLPC   C1420946   2.746   5.261  11.050  0.5930  0.0983  0.0483
  183SLPC  H14A20947   2.838   5.285  10.997  1.3275 -2.3470  0.0864
  183SLPC  H14B20948   2.671   5.238  10.976  0.4849  0.3396  0.0824
  183SLPC  H14C20949   2.717   5.351  11.102 -1.3292 -0.5874  0.2251
  183SLPC   C1520950   2.658   5.118  11.222  0.0098 -0.8025  0.7427
  183SLPC  H15A20951   2.559   5.125  11.180 -0.8376  0.7045  2.8055
  183SLPC  H15B20952   2.668   5.023  11.273  1.0352 -0.7567  0.6583
  183SLPC  H15C20953   2.664   5.203  11.288 -1.0634  0.2432 -0.4604
  183SLPC   C1220954   2.803   5.010  11.050  0.0384  0.1116  0.5497
  183SLPC  H12A20955   2.721   4.990  10.982  0.0864 -1.1480  0.8334
  183SLPC  H12B20956   2.795   4.930  11.122 -1.8214  1.2748  1.7171
  183SLPC   C1120957   2.936   5.004  10.976 -0.2052 -0.3946  0.6583
  183SLPC  H11A20958   2.941   4.907  10.923 -1.1815  1.3677 -2.9839
  183SLPC  H11B20959   3.026   5.022  11.039  1.4801  1.0520 -1.9667
  183SLPC     P20960   3.055   5.196  10.854  0.0121 -0.0540  0.0513
  183SLPC   O1320961   3.046   5.294  10.957  0.3317  0.1284 -0.0095
  183SLPC   O1420962   3.177   5.119  10.844 -0.6019  0.4432 -0.0573
  183SLPC   O1220963   2.939   5.098  10.874  0.1959 -0.1573 -0.3205
  183SLPC   O1120964   3.028   5.259  10.718 -0.0296 -0.1103 -0.5725
  183SLPC    C120965   2.915   5.291  10.640 -0.4068  0.0813  0.1353
  183SLPC    HA20966   2.826   5.260  10.698 -1.0891  1.1045 -0.3300
  183SLPC    HB20967   2.909   5.400  10.616  2.2271  0.2517 -0.0506
  183SLPC    C220968   2.928   5.219  10.503  0.0388 -0.7557 -0.3146
  183SLPC    HS20969   2.949   5.110  10.514  0.1028 -0.6177  1.0646
  183SLPC   O2120970   3.029   5.285  10.420  1.0726  0.3184 -0.7059
  183SLPC   C2120971   3.159   5.265  10.439  0.4587 -0.2332 -0.4604
  183SLPC   O2220972   3.201   5.169  10.503  0.4342 -0.3715 -0.1430
  183SLPC   C2220973   3.250   5.361  10.364  0.1455 -0.5094  0.3906
  183SLPC   H2R20974   3.248   5.466  10.401  2.0165 -0.4819  0.5301
  183SLPC   H2S20975   3.358   5.337  10.378  1.6746  1.8923 -4.7772
  183SLPC    C320976   2.784   5.220  10.435  0.0015  0.3688 -0.4949
  183SLPC    HX20977   2.750   5.326  10.440 -3.1937 -0.5827  3.2295
  183SLPC    HY20978   2.717   5.170  10.509 -1.8924  2.2270 -0.8787
  183SLPC   O3120979   2.782   5.167  10.298 -0.9909  0.1651  0.1181
  183SLPC   C3120980   2.662   5.191  10.236  0.3178 -0.0506 -0.6438
  183SLPC   O3220981   2.575   5.249  10.294 -0.1384 -0.1556  0.2116
  183SLPC   C3220982   2.646   5.132  10.092 -0.2257  0.8744  0.1225
  183SLPC   H2X20983   2.675   5.025  10.095 -0.9499  0.6449 -0.6850
  183SLPC   H2Y20984   2.714   5.185  10.022 -3.4484  4.7382 -0.4424
  183SLPC   C2320985   3.228   5.361  10.210  0.1783  0.0944  0.2491
  183SLPC   H3R20986   3.225   5.263  10.157 -1.8003  1.1886 -1.8516
  183SLPC   H3S20987   3.310   5.416  10.160  0.3030 -2.2132 -2.3357
  183SLPC   C2420988   3.097   5.430  10.177 -0.5278  0.2405  0.8384
  183SLPC   H4R20989   3.097   5.527  10.230 -1.1450  0.3030  0.7331
  183SLPC   H4S20990   3.015   5.368  10.220  0.1752 -0.6199  0.9813
  183SLPC   C2520991   3.074   5.447  10.028 -0.9787  0.6145 -0.4389
  183SLPC   H5R20992   2.978   5.503  10.021 -0.5912  1.3330 -0.1085
  183SLPC   H5S20993   3.046   5.354   9.974 -1.9080  0.8149 -0.3256
  183SLPC   C2620994   3.185   5.524   9.957  0.3872 -0.4188 -0.2652
  183SLPC   H6R20995   3.283   5.472   9.965  0.5683 -0.4600 -2.1643
  183SLPC   H6S20996   3.186   5.621  10.010  1.9535 -0.0677 -0.8795
  183SLPC   C2720997   3.163   5.542   9.808 -1.0803  0.4033  0.7356
  183SLPC   H7R20998   3.242   5.615   9.781 -0.3313 -0.5996  0.1185
  183SLPC   H7S20999   3.060   5.583   9.796 -1.7250 -1.4123 -0.4579
  183SLPC   C2821000   3.202   5.418   9.722  0.5679  0.2328 -0.1249
  183SLPC   H8R21001   3.155   5.430   9.621 -1.2789  0.5919  0.7261
  183SLPC   H8S21002   3.141   5.333   9.760 -1.2249  1.5755  0.1125
  183SLPC   C2921003   3.338   5.373   9.718  0.3976 -0.4786  0.9170
  183SLPC   H9R21004   3.377   5.352   9.819  0.0217  0.7921  1.3368
  183SLPC  C21021005   3.406   5.361   9.599 -0.4145  0.6322 -0.1491
  183SLPC  H10R21006   3.513   5.334   9.600 -0.5437  0.1191  0.2047
  183SLPC  C21121007   3.367   5.394   9.454  0.0613 -0.0871 -0.0278
  183SLPC  H11R21008   3.454   5.375   9.388 -0.3749 -4.4098  0.3000
  183SLPC  H11S21009   3.323   5.495   9.445 -1.8955 -0.5958  2.5516
  183SLPC  C21221010   3.249   5.309   9.412 -0.1761 -0.4046  0.2757
  183SLPC  H12R21011   3.202   5.256   9.496  2.7288 -0.7302  1.7804
  183SLPC  C21321012   3.193   5.313   9.286 -0.3257  0.6537 -0.0724
  183SLPC  H13R21013   3.102   5.253   9.268 -0.4285  0.4115  1.1240
  183SLPC  C21421014   3.251   5.382   9.170 -0.4181 -0.1889 -0.4411
  183SLPC  H14R21015   3.353   5.421   9.188  0.6265 -2.9619 -0.0110
  183SLPC  H14S21016   3.179   5.462   9.140 -0.4758 -1.0136 -2.6866
  183SLPC  C21521017   3.277   5.275   9.060 -0.2483 -0.2243  0.1351
  183SLPC  H15R21018   3.184   5.225   9.023  0.0739  0.3369 -1.4973
  183SLPC  H15S21019   3.345   5.195   9.097 -1.3431 -0.1491  2.5705
  183SLPC  C21621020   3.345   5.342   8.931 -0.2051  0.5025  0.4081
  183SLPC  H16R21021   3.368   5.262   8.857 -1.2912 -0.1635  0.7652
  183SLPC  H16S21022   3.435   5.400   8.959 -0.2016 -0.3556  2.3044
  183SLPC  C21721023   3.262   5.447   8.848  0.4202  0.5165 -0.1211
  183SLPC  H17R21024   3.280   5.545   8.896 -0.7737  1.3367 -1.2441
  183SLPC  H17S21025   3.155   5.415   8.853  0.2938  0.8873 -0.3411
  183SLPC  C21821026   3.294   5.475   8.703  0.6785 -0.6031  0.4729
  183SLPC  H18R21027   3.404   5.488   8.690  0.9319 -3.0048 -0.2361
  183SLPC  H18S21028   3.230   5.557   8.663 -0.1836 -0.5257  1.9695
  183SLPC  H18T21029   3.272   5.385   8.643 -1.7727  0.0270  0.3018
  183SLPC   C3321030   2.510   5.158  10.024  0.1911  0.4911 -0.6233
  183SLPC   H3X21031   2.488   5.266  10.022  1.2245  0.8088  1.7462
  183SLPC   H3Y21032   2.424   5.119  10.083 -1.5961  2.9545 -1.4305
  183SLPC   C3421033   2.516   5.113   9.885 -0.8210  0.7075 -0.0652
  183SLPC   H4X21034   2.527   5.003   9.897  2.4129  1.0070  0.6458
  183SLPC   H4Y21035   2.600   5.167   9.835  1.1084 -0.7192  1.4633
  183SLPC   C3521036   2.392   5.129   9.802 -0.0345  0.2187  0.5312
  183SLPC   H5X21037   2.371   5.238   9.797 -0.7823  0.0608  0.2119
  183SLPC   H5Y21038   2.306   5.070   9.841  0.7044 -0.7556  0.7291
  183SLPC   C3621039   2.418   5.073   9.663 -0.0346 -0.2966 -0.3394
  183SLPC   H6X21040   2.505   5.133   9.631 -2.2296  2.0566 -2.4065
  183SLPC   H6Y21041   2.331   5.091   9.596 -1.5311 -0.8904  1.3413
  183SLPC   C3721042   2.457   4.928   9.645  0.5471 -0.0757 -0.0237
  183SLPC   H7X21043   2.392   4.851   9.692 -1.7175  0.1037 -2.5667
  183SLPC   H7Y21044   2.557   4.913   9.691  1.9205  0.8073 -2.4921
  183SLPC   C3821045   2.449   4.882   9.498  0.3453  0.6682  0.4113
  183SLPC   H8X21046   2.509   4.960   9.446 -1.3355  2.3777  0.9329
  183SLPC   H8Y21047   2.343   4.889   9.463  0.8140 -2.9088 -2.3098
  183SLPC   C3921048   2.515   4.745   9.481 -0.0710 -0.4112  0.0476
  183SLPC   H9X21049   2.449   4.667   9.525 -0.3890  0.1741  0.6344
  183SLPC   H9Y21050   2.612   4.749   9.534 -0.1499  1.5658  0.1334
  183SLPC  C31021051   2.539   4.721   9.335 -0.7745  0.6778  0.0021
  183SLPC  H10X21052   2.610   4.803   9.309  0.0791  0.0329  0.2635
  183SLPC  H10Y21053   2.449   4.742   9.275 -1.7170 -1.3558  0.6275
  183SLPC  C31121054   2.577   4.579   9.303 -0.4627 -0.2898  0.0691
  183SLPC  H11X21055   2.495   4.509   9.328 -0.6289 -1.0454 -2.3876
  183SLPC  H11Y21056   2.660   4.551   9.372 -0.9896 -0.5028  0.6248
  183SLPC  C31221057   2.636   4.548   9.163  0.6900  0.7898  0.0426
  183SLPC  H12X21058   2.560   4.566   9.084  0.9435 -0.1750 -0.4517
  183SLPC  H12Y21059   2.663   4.440   9.170  1.8378  1.1711  2.5351
  183SLPC  C31321060   2.760   4.622   9.124  0.2199  0.7515  0.2892
  183SLPC  H13X21061   2.839   4.600   9.199 -0.3089  1.7877  1.1889
  183SLPC  H13Y21062   2.732   4.729   9.139 -2.2042  0.1343  0.7043
  183SLPC  C31421063   2.806   4.596   8.981 -1.1396  0.0700  0.1570
  183SLPC  H14X21064   2.725   4.644   8.922 -1.3548 -0.6576 -0.1497
  183SLPC  H14Y21065   2.802   4.486   8.965 -0.1508  0.1113 -0.4693
  183SLPC  C31521066   2.947   4.651   8.948 -0.3873 -0.2458  0.5374
  183SLPC  H15X21067   3.023   4.595   9.007 -1.2429 -0.1276  1.8102
  183SLPC  H15Y21068   2.948   4.757   8.982  1.5192 -0.4257  1.1242
  183SLPC  C31621069   2.982   4.662   8.804 -1.1534 -0.2917 -1.0039
  183SLPC  H16X21070   3.061   4.739   8.792 -0.0788 -1.0163  0.9442
  183SLPC  H16Y21071   2.890   4.696   8.751 -3.0149  0.6260  2.5039
  183SLPC  C31721072   3.027   4.535   8.735  0.1471 -0.2893  0.4232
  183SLPC  H17X21073   2.966   4.448   8.767 -0.5425  0.4552  1.1886
  183SLPC  H17Y21074   3.130   4.522   8.774 -0.1175 -3.5230  0.3701
  183SLPC  C31821075   3.021   4.552   8.582  0.1801 -0.0447  0.4559
  183SLPC  H18X21076   3.071   4.460   8.543 -0.6061 -1.0084  1.6307
  183SLPC  H18Y21077   3.086   4.635   8.547  1.9798 -1.4951  0.1737
  183SLPC  H18Z21078   2.920   4.560   8.539 -0.1050 -0.9256  0.9177
  184SLPC     N21079   4.291   2.737  10.574 -0.9108 -0.2613  0.1097
  184SLPC   C1321080   4.180   2.787  10.658  0.8613 -0.3883  0.4148
  184SLPC  H13A21081   4.086   2.764  10.612  1.2687 -0.5970 -0.3390
  184SLPC  H13B21082   4.178   2.735  10.752  1.8466  2.2556  2.0129
  184SLPC  H13C21083   4.190   2.894  10.672  0.6596 -0.3669  0.3926
  184SLPC   C1421084   4.288   2.587  10.582  0.2146 -0.7129 -0.7293
  184SLPC  H14A21085   4.289   2.555  10.685  1.9647  1.0925 -0.1068
  184SLPC  H14B21086   4.197   2.550  10.539 -1.9361  2.4393  0.7221
  184SLPC  H14C21087   4.374   2.536  10.539 -0.6820 -1.9456 -1.1124
  184SLPC   C1521088   4.420   2.785  10.630  0.1093  0.5349  0.0711
  184SLPC  H15A21089   4.497   2.728  10.580  0.0482 -0.9836  1.5864
  184SLPC  H15B21090   4.438   2.891  10.628 -0.0173  0.5788  0.8638
  184SLPC  H15C21091   4.431   2.752  10.733 -0.1242  1.5424  0.4293
  184SLPC   C1221092   4.283   2.786  10.425 -0.0115 -0.5290  0.3770
  184SLPC  H12A21093   4.223   2.716  10.369  0.7564 -0.7705 -0.1522
  184SLPC  H12B21094   4.382   2.769  10.387  0.0515 -1.2795  0.8632
  184SLPC   C1121095   4.246   2.935  10.390 -0.0052  0.3569 -0.0568
  184SLPC  H11A21096   4.139   2.953  10.415  0.3466  0.4013  1.5517
  184SLPC  H11B21097   4.248   2.953  10.280 -1.2269 -0.9788 -0.3229
  184SLPC     P21098   4.442   3.102  10.391  0.0061  0.0029 -0.1135
  184SLPC   O1321099   4.433   3.247  10.401  0.0193 -0.0109  0.2404
  184SLPC   O1421100   4.563   3.042  10.453 -0.0299 -0.2902 -0.3878
  184SLPC   O1221101   4.318   3.032  10.455  0.1881 -0.4630 -0.8120
  184SLPC   O1121102   4.437   3.060  10.245  0.1499 -0.3416 -0.0664
  184SLPC    C121103   4.505   2.940  10.191 -0.0964 -0.4818 -0.8204
  184SLPC    HA21104   4.501   2.857  10.265  0.4655  1.0474  1.0192
  184SLPC    HB21105   4.443   2.917  10.102 -2.1727 -0.0851  0.4541
  184SLPC    C221106   4.641   2.976  10.120 -0.5558  0.0992 -0.2361
  184SLPC    HS21107   4.718   3.000  10.197 -0.9935  3.8871 -0.7966
  184SLPC   O2121108   4.624   3.084  10.034  0.2748  0.0899  0.4025
  184SLPC   C2121109   4.654   3.204  10.069  0.4415 -0.3525 -0.6532
  184SLPC   O2221110   4.709   3.232  10.177 -0.2057 -0.0485  0.0269
  184SLPC   C2221111   4.603   3.314   9.968 -0.2092  0.4855 -0.1925
  184SLPC   H2R21112   4.627   3.412  10.014  0.9597  1.3310 -2.4443
  184SLPC   H2S21113   4.674   3.294   9.885 -0.8298 -0.5807 -0.4753
  184SLPC    C321114   4.690   2.858  10.034 -0.1302  0.3499 -0.0886
  184SLPC    HX21115   4.714   2.779  10.108 -0.6423 -1.2536 -1.5668
  184SLPC    HY21116   4.788   2.888   9.991 -0.4324 -1.8909 -2.5869
  184SLPC   O3121117   4.598   2.810   9.933 -0.3065 -0.4291 -0.4933
  184SLPC   C3121118   4.601   2.877   9.823 -0.1364 -0.2033  0.1949
  184SLPC   O3221119   4.694   2.944   9.781 -0.0035  0.1885  0.1959
  184SLPC   C3221120   4.467   2.867   9.746 -0.7464  0.3744 -0.0879
  184SLPC   H2X21121   4.390   2.901   9.819  1.0039  2.0371  1.0952
  184SLPC   H2Y21122   4.447   2.761   9.719 -1.4897  0.2714  0.8340
  184SLPC   C2321123   4.456   3.304   9.920 -0.0703  0.5318  0.9222
  184SLPC   H3R21124   4.387   3.337  10.002 -0.4135  0.1489  0.7872
  184SLPC   H3S21125   4.431   3.202   9.883  0.7805  0.8341 -0.5461
  184SLPC   C2421126   4.430   3.394   9.805  0.5683  0.4937 -0.2281
  184SLPC   H4R21127   4.484   3.360   9.715  0.9158  0.4626 -0.0085
  184SLPC   H4S21128   4.469   3.497   9.821  0.2801  0.7988 -1.3908
  184SLPC   C2521129   4.280   3.403   9.774  0.6873  0.3172 -0.5555
  184SLPC   H5R21130   4.231   3.434   9.869  1.4821 -1.3461  0.4589
  184SLPC   H5S21131   4.236   3.305   9.747 -2.0994  1.0154  1.0465
  184SLPC   C2621132   4.238   3.507   9.670  0.1084  0.3006  0.2668
  184SLPC   H6R21133   4.255   3.603   9.724 -2.2224  0.6575  0.4695
  184SLPC   H6S21134   4.127   3.502   9.665  0.0802 -0.1544  1.1345
  184SLPC   C2721135   4.299   3.504   9.535  0.5242 -0.5471 -0.1211
  184SLPC   H7R21136   4.284   3.403   9.489 -5.0766 -0.4583  0.7879
  184SLPC   H7S21137   4.409   3.516   9.541  0.5829  3.0920 -3.8942
  184SLPC   C2821138   4.244   3.607   9.438  0.5798 -0.4328 -0.1253
  184SLPC   H8R21139   4.272   3.712   9.458 -1.7087  0.3650 -0.7382
  184SLPC   H8S21140   4.133   3.600   9.451  0.6140  1.8070  2.3161
  184SLPC   C2921141   4.290   3.583   9.296  0.0537 -0.1970  0.1546
  184SLPC   H9R21142   4.398   3.603   9.286 -0.1939  1.2627  0.3331
  184SLPC  C21021143   4.212   3.531   9.197 -0.0203 -0.2607 -0.3319
  184SLPC  H10R21144   4.256   3.503   9.100  1.9469  1.4969 -0.0237
  184SLPC  C21121145   4.066   3.497   9.220 -0.3409  0.2220 -1.1663
  184SLPC  H11R21146   4.002   3.586   9.235 -2.1236 -1.3439  1.2822
  184SLPC  H11S21147   4.049   3.435   9.310 -1.9016  2.0728 -0.1216
  184SLPC  C21221148   4.019   3.403   9.110  0.0137  0.2263 -0.4791
  184SLPC  H12R21149   4.076   3.310   9.130  0.0884  0.7195  2.0175
  184SLPC  C21321150   3.923   3.410   9.013 -0.5117  0.2096  0.4734
  184SLPC  H13R21151   3.916   3.333   8.935 -2.0824  1.7465 -0.9771
  184SLPC  C21421152   3.837   3.525   8.979 -0.1618  0.3667 -0.4335
  184SLPC  H14R21153   3.855   3.610   9.048 -0.6458 -0.0296  0.1853
  184SLPC  H14S21154   3.730   3.500   8.989 -0.2250 -0.6986 -3.0034
  184SLPC  C21521155   3.871   3.575   8.833  0.7762  0.9504 -0.8076
  184SLPC  H15R21156   3.979   3.588   8.812  0.9144  2.5133  0.6572
  184SLPC  H15S21157   3.835   3.680   8.832  0.0963  0.7264 -0.4052
  184SLPC  C21621158   3.799   3.487   8.732 -0.2417  0.1285 -0.6051
  184SLPC  H16R21159   3.688   3.484   8.741 -0.2739  0.3042 -0.9706
  184SLPC  H16S21160   3.821   3.378   8.745 -0.4643 -0.1059 -2.0877
  184SLPC  C21721161   3.822   3.548   8.597  0.3131  0.3072  0.3809
  184SLPC  H17R21162   3.834   3.658   8.601 -0.3103  0.3485  1.4727
  184SLPC  H17S21163   3.739   3.530   8.526  1.5262 -0.2927 -0.9449
  184SLPC  C21821164   3.949   3.490   8.537 -0.3587 -0.3947  0.2109
  184SLPC  H18R21165   3.963   3.380   8.528  0.4693 -0.2899  0.1533
  184SLPC  H18S21166   4.042   3.529   8.583  0.3804 -0.8110 -0.9013
  184SLPC  H18T21167   3.965   3.507   8.429  4.0072 -6.8847 -0.7159
  184SLPC   C3321168   4.465   2.961   9.621  0.1097 -0.5457 -0.0595
  184SLPC   H3X21169   4.534   2.918   9.545  0.3994 -0.1541 -0.0192
  184SLPC   H3Y21170   4.514   3.059   9.640 -2.0503  0.3883  1.0195
  184SLPC   C3421171   4.324   2.993   9.563  0.4015  0.1500 -0.7642
  184SLPC   H4X21172   4.261   3.036   9.644  0.8141  0.8925 -0.8247
  184SLPC   H4Y21173   4.286   2.894   9.530  1.7436 -0.0848 -1.6653
  184SLPC   C3521174   4.329   3.079   9.445  0.2429 -1.2679  0.1533
  184SLPC   H5X21175   4.408   3.039   9.378 -0.5152  2.0035 -3.0485
  184SLPC   H5Y21176   4.351   3.185   9.471  1.1300 -1.1196 -1.0953
  184SLPC   C3621177   4.205   3.067   9.377  0.1379 -0.4233 -0.3392
  184SLPC   H6X21178   4.128   3.138   9.415 -0.0159 -0.8856  0.2104
  184SLPC   H6Y21179   4.169   2.962   9.379  3.3818 -1.6778 -1.1947
  184SLPC   C3721180   4.222   3.100   9.230  0.0946  0.6057  0.6057
  184SLPC   H7X21181   4.315   3.055   9.188  1.8603  2.0105  2.7118
  184SLPC   H7Y21182   4.233   3.211   9.233 -2.6311  1.0393 -1.7726
  184SLPC   C3821183   4.104   3.052   9.146 -0.0282  0.3430  0.8730
  184SLPC   H8X21184   4.017   3.115   9.174  1.3173  1.7193  2.1172
  184SLPC   H8Y21185   4.090   2.949   9.184 -0.2861 -0.3556 -1.0129
  184SLPC   C3921186   4.127   3.052   8.998 -0.5787  0.3254 -0.0130
  184SLPC   H9X21187   4.229   3.024   8.964 -0.5563 -0.6217  0.8056
  184SLPC   H9Y21188   4.103   3.160   8.983  0.6622  0.7121  0.6441
  184SLPC  C31021189   4.021   2.983   8.912 -0.1159  0.2849 -0.1182
  184SLPC  H10X21190   4.013   3.033   8.813 -3.0853  0.4116  0.1045
  184SLPC  H10Y21191   3.921   3.007   8.953  0.7507  1.9708  1.1069
  184SLPC  C31121192   4.056   2.836   8.873 -0.2399 -0.5035 -0.1252
  184SLPC  H11X21193   4.053   2.773   8.965 -0.6318  0.3667  0.4802
  184SLPC  H11Y21194   4.160   2.835   8.835 -1.1525 -1.9838 -2.8743
  184SLPC  C31221195   3.977   2.772   8.764 -0.0473  0.2531  0.4574
  184SLPC  H12X21196   4.005   2.666   8.745 -2.1110  0.0844 -2.1416
  184SLPC  H12Y21197   4.010   2.825   8.672 -0.3868  0.6595  0.5687
  184SLPC  C31321198   3.826   2.796   8.772  0.2346  0.0772 -0.2811
  184SLPC  H13X21199   3.809   2.902   8.799 -0.9206 -0.5101  1.4600
  184SLPC  H13Y21200   3.778   2.737   8.853  0.0357 -0.5123 -0.8199
  184SLPC  C31421201   3.759   2.774   8.638  0.2794  0.6631 -0.5202
  184SLPC  H14X21202   3.806   2.678   8.607  3.4526  1.8814  0.1293
  184SLPC  H14Y21203   3.787   2.856   8.570  0.7458 -0.2193 -1.4212
  184SLPC  C31521204   3.608   2.738   8.664  0.5254 -0.1154  0.6486
  184SLPC  H15X21205   3.558   2.834   8.690 -1.5033 -0.5269 -1.3863
  184SLPC  H15Y21206   3.579   2.673   8.749  1.0104  0.2744  1.1177
  184SLPC  C31621207   3.542   2.666   8.541  0.3833 -0.1691 -0.1989
  184SLPC  H16X21208   3.435   2.646   8.560  0.7390 -0.7065  1.3599
  184SLPC  H16Y21209   3.588   2.566   8.530  0.3930 -0.3427  1.1844
  184SLPC  C31721210   3.574   2.734   8.410  0.0624  0.2976  0.0343
  184SLPC  H17X21211   3.534   2.673   8.326 -0.5114  1.3850 -0.5038
  184SLPC  H17Y21212   3.683   2.743   8.388 -0.0483 -0.1638 -0.7774
  184SLPC  C31821213   3.494   2.863   8.389 -0.2899 -0.5075  0.2039
  184SLPC  H18X21214   3.510   2.890   8.282  1.4516 -2.2873 -0.0524
  184SLPC  H18Y21215   3.539   2.946   8.448 -1.1527 -0.0614  0.2487
  184SLPC  H18Z21216   3.386   2.859   8.414 -0.3971  0.7610  0.0226
  185SLPC     N21217   3.567   0.601   6.284 -0.1409  0.2351 -0.2246
  185SLPC   C1321218   3.613   0.553   6.418 -0.3977  0.0329  0.5205
  185SLPC  H13A21219   3.566   0.459   6.442 -3.5537  1.1228 -0.9227
  185SLPC  H13B21220   3.720   0.538   6.413  0.1847  2.8060  2.6100
  185SLPC  H13C21221   3.596   0.635   6.486  1.2734 -0.2077  1.2832
  185SLPC   C1421222   3.656   0.714   6.241  0.2991 -0.0021 -0.9123
  185SLPC  H14A21223   3.756   0.678   6.223  1.6540  2.2374  1.4589
  185SLPC  H14B21224   3.630   0.761   6.148 -2.2161  0.2308 -0.1680
  185SLPC  H14C21225   3.654   0.792   6.316  3.1442  0.3924 -1.1666
  185SLPC   C1521226   3.421   0.641   6.279  0.6493 -0.2532  0.3773
  185SLPC  H15A21227   3.359   0.557   6.307  1.1974  0.3981  4.0014
  185SLPC  H15B21228   3.399   0.719   6.351 -1.3479  0.5423 -1.0127
  185SLPC  H15C21229   3.393   0.674   6.180 -3.3760 -0.5282  1.2504
  185SLPC   C1221230   3.590   0.491   6.182  0.5346  0.1982  0.5786
  185SLPC  H12A21231   3.695   0.471   6.166  0.8534  2.6060 -0.7868
  185SLPC  H12B21232   3.561   0.523   6.083  1.9752  0.4451  0.2259
  185SLPC   C1121233   3.528   0.352   6.208  0.1999 -0.9450 -0.2527
  185SLPC  H11A21234   3.515   0.286   6.120 -0.6829 -2.1731  0.7614
  185SLPC  H11B21235   3.423   0.374   6.236  1.2271  1.6929  2.0606
  185SLPC     P21236   3.519   0.165   6.397  0.3072 -0.3413  0.1374
  185SLPC   O1321237   3.373   0.182   6.398 -0.0844  0.3503 -0.7241
  185SLPC   O1421238   3.577   0.042   6.349 -0.1463 -0.1785  0.0279
  185SLPC   O1221239   3.593   0.285   6.322  0.3721 -0.0957  0.0049
  185SLPC   O1121240   3.563   0.188   6.547  0.1380  0.3191  0.5258
  185SLPC    C121241   3.692   0.225   6.579  0.2814 -0.4949 -0.9300
  185SLPC    HA21242   3.762   0.183   6.504  0.2607 -0.8314 -0.7606
  185SLPC    HB21243   3.712   0.333   6.594  0.8582 -0.8714  1.4220
  185SLPC    C221244   3.739   0.144   6.711  0.3642  0.0287 -0.0206
  185SLPC    HS21245   3.844   0.175   6.726  0.6694  1.8759 -4.3118
  185SLPC   O2121246   3.708   0.004   6.722 -0.0930 -0.4491 -0.1010
  185SLPC   C2121247   3.764  -0.075   6.629 -0.3659  0.3222 -0.6493
  185SLPC   O2221248   3.866  -0.041   6.564  0.2464  0.6001  0.2854
  185SLPC   C2221249   3.686  -0.196   6.612  0.1805 -0.6897  0.2721
  185SLPC   H2R21250   3.581  -0.167   6.634 -0.3503 -2.2894 -0.0082
  185SLPC   H2S21251   3.686  -0.229   6.506  0.3976  2.2624 -0.7366
  185SLPC    C321252   3.675   0.205   6.841  0.2235 -0.1507  0.2900
  185SLPC    HX21253   3.570   0.170   6.830  0.4202 -0.4841 -0.6202
  185SLPC    HY21254   3.687   0.315   6.827 -2.9149  0.3116  0.6625
  185SLPC   O3121255   3.735   0.158   6.959  0.2354 -0.7000 -0.6299
  185SLPC   C3121256   3.709   0.224   7.069 -0.0674 -0.1005 -0.3713
  185SLPC   O3221257   3.644   0.325   7.068  0.6043 -0.2298 -0.1323
  185SLPC   C3221258   3.779   0.154   7.179 -0.4649 -0.2931  0.1346
  185SLPC   H2X21259   3.887   0.157   7.156 -0.4154 -0.3617  0.3534
  185SLPC   H2Y21260   3.751   0.047   7.174 -1.1928 -0.0631 -0.9690
  185SLPC   C2321261   3.726  -0.304   6.716 -0.0775 -0.0736 -0.8482
  185SLPC   H3R21262   3.836  -0.310   6.733  0.2863  2.3072 -2.0374
  185SLPC   H3S21263   3.676  -0.399   6.686  0.0985  0.1197 -1.7900
  185SLPC   C2421264   3.659  -0.273   6.851 -0.8032 -0.6247 -0.2559
  185SLPC   H4R21265   3.548  -0.277   6.856 -0.8288  0.0832 -0.1642
  185SLPC   H4S21266   3.681  -0.168   6.881  2.0024 -1.2511  0.1388
  185SLPC   C2521267   3.708  -0.373   6.964  0.0058 -0.0883  0.2540
  185SLPC   H5R21268   3.817  -0.372   6.983 -0.2524  0.7570  1.8847
  185SLPC   H5S21269   3.681  -0.474   6.928  0.9126  0.6825 -2.8626
  185SLPC   C2621270   3.647  -0.345   7.098 -0.7223 -0.1081 -0.7463
  185SLPC   H6R21271   3.536  -0.348   7.088 -0.8947 -0.8146  1.0335
  185SLPC   H6S21272   3.678  -0.244   7.131  0.6626  0.0235 -2.3161
  185SLPC   C2721273   3.687  -0.446   7.205  0.4046 -0.7274  0.1573
  185SLPC   H7R21274   3.794  -0.473   7.198  0.5066 -0.9720  2.1626
  185SLPC   H7S21275   3.639  -0.542   7.175 -3.6216  1.2729 -0.5123
  185SLPC   C2821276   3.647  -0.395   7.352 -0.4608  0.9662 -0.4546
  185SLPC   H8R21277   3.540  -0.372   7.368 -0.4854 -0.2740  1.5679
  185SLPC   H8S21278   3.693  -0.295   7.368  0.3402  0.4089  0.9014
  185SLPC   C2921279   3.694  -0.499   7.457 -0.0555 -0.2095  0.1887
  185SLPC   H9R21280   3.647  -0.596   7.435 -0.4161 -0.0735  0.3570
  185SLPC  C21021281   3.753  -0.473   7.575  0.1608  0.2012  0.3791
  185SLPC  H10R21282   3.771  -0.553   7.649 -0.7007 -0.9564 -0.6260
  185SLPC  C21121283   3.776  -0.332   7.615  0.5529 -0.9613 -0.3799
  185SLPC  H11R21284   3.689  -0.301   7.677 -1.3084 -0.9592 -2.8254
  185SLPC  H11S21285   3.767  -0.255   7.536 -0.2837 -0.1650  0.4695
  185SLPC  C21221286   3.900  -0.313   7.699 -0.7922  0.4664 -0.5090
  185SLPC  H12R21287   3.982  -0.257   7.652 -0.9756  0.6509 -0.6069
  185SLPC  C21321288   3.915  -0.364   7.824  0.1364  0.5588  0.2100
  185SLPC  H13R21289   4.013  -0.346   7.871  1.4194 -0.7742 -1.8265
  185SLPC  C21421290   3.815  -0.447   7.904  0.0007 -0.1530  0.2453
  185SLPC  H14R21291   3.716  -0.448   7.855 -0.0169 -3.2019  0.1871
  185SLPC  H14S21292   3.793  -0.405   8.005  1.0782 -0.1461  0.4888
  185SLPC  C21521293   3.864  -0.588   7.909  0.1031  0.4404 -0.3463
  185SLPC  H15R21294   3.960  -0.600   7.965 -0.3292 -1.7086  0.0274
  185SLPC  H15S21295   3.888  -0.635   7.811  2.4234 -0.7596  0.7149
  185SLPC  C21621296   3.765  -0.684   7.971 -0.6352 -0.0743 -0.7391
  185SLPC  H16R21297   3.796  -0.787   7.942  0.1198 -0.1494  0.2959
  185SLPC  H16S21298   3.668  -0.669   7.919 -1.8116  0.9628  1.6233
  185SLPC  C21721299   3.747  -0.679   8.125  0.5126  0.6217  0.3920
  185SLPC  H17R21300   3.654  -0.733   8.154  0.2055  1.0537  0.2284
  185SLPC  H17S21301   3.724  -0.575   8.159 -0.9060  0.9028 -1.2840
  185SLPC  C21821302   3.856  -0.741   8.200 -0.4525 -0.0117  0.1377
  185SLPC  H18R21303   3.856  -0.852   8.193 -0.1639 -0.0350  0.4475
  185SLPC  H18S21304   3.863  -0.707   8.305  1.0109  2.7241 -0.7315
  185SLPC  H18T21305   3.953  -0.715   8.151 -0.7869 -0.7632 -0.9706
  185SLPC   C3321306   3.754   0.214   7.323 -0.3545  0.9527 -0.7128
  185SLPC   H3X21307   3.752   0.127   7.393  0.1267  0.4897 -1.2633
  185SLPC   H3Y21308   3.652   0.257   7.336 -0.8590  0.5804 -2.9255
  185SLPC   C3421309   3.852   0.319   7.365 -0.5415 -0.4220 -0.5450
  185SLPC   H4X21310   3.839   0.402   7.293 -0.2138 -0.6579 -0.8799
  185SLPC   H4Y21311   3.954   0.275   7.358 -1.1643 -1.6710 -2.4913
  185SLPC   C3521312   3.831   0.363   7.511  0.5740  1.3089 -0.0044
  185SLPC   H5X21313   3.863   0.276   7.573  2.0917  2.3516  0.7382
  185SLPC   H5Y21314   3.721   0.370   7.531  0.3803 -1.6764  0.4543
  185SLPC   C3621315   3.895   0.500   7.540 -0.3378  0.1242  0.2442
  185SLPC   H6X21316   3.868   0.576   7.464  1.2185 -1.2807 -1.8299
  185SLPC   H6Y21317   4.006   0.501   7.536 -0.2547  0.8440  1.9563
  185SLPC   C3721318   3.848   0.561   7.675  0.3589  0.1169  0.0911
  185SLPC   H7X21319   3.746   0.599   7.652  0.9300  1.4280 -0.3897
  185SLPC   H7Y21320   3.906   0.651   7.704 -0.0981  0.7375 -0.8660
  185SLPC   C3821321   3.848   0.446   7.773 -0.1487  0.0474  0.1199
  185SLPC   H8X21322   3.943   0.389   7.772  0.4919  1.0190  1.5696
  185SLPC   H8Y21323   3.762   0.378   7.754  1.1673 -1.0524 -2.3291
  185SLPC   C3921324   3.829   0.505   7.917 -0.4394 -0.0775  0.3732
  185SLPC   H9X21325   3.871   0.608   7.922  1.8221 -0.9731  1.3645
  185SLPC   H9Y21326   3.903   0.453   7.981  2.9781  0.1463 -3.0502
  185SLPC  C31021327   3.683   0.502   7.966  0.1725 -0.0369 -0.0186
  185SLPC  H10X21328   3.640   0.401   7.948  2.0580 -0.9901  0.6003
  185SLPC  H10Y21329   3.621   0.564   7.897 -3.4619 -1.4138  1.7152
  185SLPC  C31121330   3.666   0.551   8.108 -0.0829 -0.5989  0.0654
  185SLPC  H11X21331   3.676   0.660   8.122 -0.4756 -0.6241  0.5527
  185SLPC  H11Y21332   3.746   0.513   8.175 -0.6756 -1.9734  0.0357
  185SLPC  C31221333   3.534   0.505   8.178  0.0400 -0.1459  0.4958
  185SLPC  H12X21334   3.451   0.545   8.116  0.8221 -1.7520 -1.7119
  185SLPC  H12Y21335   3.519   0.568   8.268  1.4285 -0.8661  1.2735
  185SLPC  C31321336   3.509   0.352   8.192  0.2290  0.4893  0.0059
  185SLPC  H13X21337   3.523   0.304   8.093  0.3576  1.0649 -0.2544
  185SLPC  H13Y21338   3.403   0.329   8.216 -0.8924  3.2388 -1.8148
  185SLPC  C31421339   3.595   0.283   8.293  0.3782  0.1756  0.0753
  185SLPC  H14X21340   3.694   0.334   8.290  1.3120 -1.5878 -0.5483
  185SLPC  H14Y21341   3.596   0.175   8.266 -2.2183  0.4073 -1.2310
  185SLPC  C31521342   3.556   0.316   8.439  0.7513  0.2059  0.2420
  185SLPC  H15X21343   3.472   0.245   8.455  1.3213 -1.2436 -2.5381
  185SLPC  H15Y21344   3.535   0.425   8.444  0.4157  0.1442  0.1727
  185SLPC  C31621345   3.667   0.292   8.532 -0.1351  0.2138 -0.3614
  185SLPC  H16X21346   3.631   0.297   8.637 -0.2907 -2.2587 -0.2370
  185SLPC  H16Y21347   3.744   0.371   8.523  2.0017 -1.7689 -0.5044
  185SLPC  C31721348   3.725   0.153   8.518 -0.4300  0.2711 -0.1840
  185SLPC  H17X21349   3.781   0.151   8.423  0.2172 -1.2893  0.1939
  185SLPC  H17Y21350   3.644   0.079   8.499  0.6840 -1.7081  2.1657
  185SLPC  C31821351   3.804   0.096   8.634  0.6981  0.2608 -1.0975
  185SLPC  H18X21352   3.845  -0.005   8.611  2.8220  0.6004  0.7877
  185SLPC  H18Y21353   3.744   0.107   8.726  0.2841 -1.7346 -1.0975
  185SLPC  H18Z21354   3.895   0.156   8.659  0.7373 -0.5562  0.8842
  186SLPC     N21355   3.346   2.614   6.175  0.6703 -0.3785  0.1522
  186SLPC   C1321356   3.282   2.748   6.203 -0.1785 -0.0765  0.3280
  186SLPC  H13A21357   3.356   2.821   6.229  0.3647 -0.9427  1.2883
  186SLPC  H13B21358   3.240   2.788   6.112 -0.3445  1.7460  1.1746
  186SLPC  H13C21359   3.192   2.726   6.259 -0.2341  0.1978  0.3448
  186SLPC   C1421360   3.446   2.657   6.071  0.8730 -0.1255  0.7200
  186SLPC  H14A21361   3.509   2.741   6.099  0.8917  0.2291 -0.3452
  186SLPC  H14B21362   3.516   2.580   6.042 -0.1437 -0.5865 -0.6378
  186SLPC  H14C21363   3.400   2.682   5.977 -1.2248 -1.1597  1.4166
  186SLPC   C1521364   3.243   2.522   6.122 -0.0458 -0.1755 -0.1965
  186SLPC  H15A21365   3.294   2.439   6.075  3.1477  1.6296 -0.2164
  186SLPC  H15B21366   3.183   2.479   6.201  0.4565  0.9688  0.8480
  186SLPC  H15C21367   3.179   2.574   6.053  0.4427  0.0713 -0.4682
  186SLPC   C1221368   3.416   2.570   6.303 -0.1099 -0.4898  0.2711
  186SLPC  H12A21369   3.503   2.511   6.281 -0.5544 -0.6649 -1.1349
  186SLPC  H12B21370   3.344   2.511   6.358  0.0045 -0.3125  0.6187
  186SLPC   C1121371   3.475   2.686   6.388  0.4943 -0.4438 -0.0748
  186SLPC  H11A21372   3.503   2.627   6.478 -0.5327 -1.0771 -0.1544
  186SLPC  H11B21373   3.395   2.756   6.420 -1.1323 -3.3700  2.9195
  186SLPC     P21374   3.611   2.898   6.303 -0.1209 -0.2844  0.2890
  186SLPC   O1321375   3.691   2.902   6.181 -0.6632 -0.7157 -0.3702
  186SLPC   O1421376   3.482   2.969   6.303  0.4407 -0.3365  0.5329
  186SLPC   O1221377   3.594   2.744   6.331 -0.1436 -0.1600  0.2815
  186SLPC   O1121378   3.698   2.956   6.419 -0.0578 -0.1186 -0.1044
  186SLPC    C121379   3.792   2.876   6.493  0.3297 -0.7660 -0.7288
  186SLPC    HA21380   3.819   2.786   6.434  1.6240 -0.4031 -0.7143
  186SLPC    HB21381   3.875   2.943   6.524 -0.8140 -0.0811  1.0234
  186SLPC    C221382   3.731   2.830   6.624 -0.2965  0.1340  0.2043
  186SLPC    HS21383   3.646   2.764   6.596  0.7633 -1.4697  0.5696
  186SLPC   O2121384   3.688   2.939   6.706  0.0944 -0.0470  0.0056
  186SLPC   C2121385   3.584   2.907   6.778 -0.1682 -0.5015 -0.4808
  186SLPC   O2221386   3.505   2.811   6.768  0.2125 -0.6297  0.5801
  186SLPC   C2221387   3.557   3.023   6.873  0.4993  0.6734 -0.3392
  186SLPC   H2R21388   3.656   3.054   6.912  1.7188 -3.8892  0.6972
  186SLPC   H2S21389   3.500   3.094   6.809 -2.4297  1.0078  2.3758
  186SLPC    C321390   3.828   2.736   6.713  0.2842  0.0942  0.7993
  186SLPC    HX21391   3.900   2.806   6.760  2.0140 -0.8300 -0.3862
  186SLPC    HY21392   3.895   2.674   6.650 -1.3492  0.6595 -1.6630
  186SLPC   O3121393   3.757   2.654   6.804  0.3623  0.3665 -0.6515
  186SLPC   C3121394   3.715   2.541   6.755  0.2956 -0.4568 -0.3331
  186SLPC   O3221395   3.716   2.511   6.638 -0.1949  0.4045 -0.0344
  186SLPC   C3221396   3.659   2.446   6.861  0.2181 -0.3674  0.4980
  186SLPC   H2X21397   3.716   2.351   6.869 -0.4407 -0.8873 -0.6697
  186SLPC   H2Y21398   3.562   2.412   6.819  0.9398 -2.4597  0.3824
  186SLPC   C2321399   3.471   2.980   7.001  0.3972 -0.4760  0.6920
  186SLPC   H3R21400   3.386   2.927   6.955  0.2507 -0.3497  0.8128
  186SLPC   H3S21401   3.421   3.069   7.046  0.8217  0.1898 -0.1345
  186SLPC   C2421402   3.555   2.926   7.106  0.2426 -0.3699 -0.6371
  186SLPC   H4R21403   3.634   3.002   7.124 -1.5123  0.9940  1.8909
  186SLPC   H4S21404   3.602   2.837   7.059  1.7615 -0.2560  0.5611
  186SLPC   C2521405   3.486   2.886   7.239 -0.0127  0.4888  0.3050
  186SLPC   H5R21406   3.437   2.791   7.210  1.7081  0.0737 -1.4574
  186SLPC   H5S21407   3.412   2.965   7.267  0.1357  0.7539 -0.0291
  186SLPC   C2621408   3.567   2.861   7.366  0.2575  0.5258  0.4149
  186SLPC   H6R21409   3.612   2.958   7.399  0.9004  0.5630 -0.5224
  186SLPC   H6S21410   3.661   2.808   7.341  1.1973  2.9378 -1.6405
  186SLPC   C2721411   3.493   2.783   7.479  0.2152 -0.0802 -0.6890
  186SLPC   H7R21412   3.550   2.779   7.574  1.3298  2.8509 -1.1322
  186SLPC   H7S21413   3.476   2.678   7.445 -0.7868 -0.4564  0.8985
  186SLPC   C2821414   3.347   2.826   7.515  0.8761  0.0216 -0.5821
  186SLPC   H8R21415   3.307   2.740   7.573  1.4695 -0.2073 -0.5083
  186SLPC   H8S21416   3.296   2.816   7.416 -0.5492 -2.5312  0.3132
  186SLPC   C2921417   3.350   2.960   7.580  1.1471 -0.1852 -0.2330
  186SLPC   H9R21418   3.368   3.047   7.514  2.4263  0.4027  0.8393
  186SLPC  C21021419   3.343   2.982   7.712 -0.0635 -0.4501 -0.1035
  186SLPC  H10R21420   3.359   3.086   7.745  2.4502 -0.8518  0.1796
  186SLPC  C21121421   3.332   2.873   7.819 -0.4857  0.7335 -0.0899
  186SLPC  H11R21422   3.422   2.808   7.822 -1.0394 -0.0171  1.6538
  186SLPC  H11S21423   3.259   2.791   7.801 -1.0956  1.5506 -1.5174
  186SLPC  C21221424   3.322   2.923   7.969  0.7440  0.2169  0.8247
  186SLPC  H12R21425   3.417   2.937   8.022  1.8509 -2.3449 -0.3017
  186SLPC  C21321426   3.206   2.948   8.030  0.4330  0.3279  0.2400
  186SLPC  H13R21427   3.210   2.987   8.133 -0.4104  0.3698  0.2594
  186SLPC  C21421428   3.070   2.929   7.967 -0.9963  0.0765  0.2498
  186SLPC  H14R21429   3.074   2.941   7.856 -1.7413  0.1819  0.2292
  186SLPC  H14S21430   3.000   3.003   8.011 -3.0416 -1.7196  0.1839
  186SLPC  C21521431   3.007   2.791   7.988  0.1628  0.0083  0.1706
  186SLPC  H15R21432   3.086   2.715   7.973  0.5727  0.3953  0.3276
  186SLPC  H15S21433   2.925   2.789   7.914 -1.3405  0.9747  1.7367
  186SLPC  C21621434   2.949   2.780   8.130 -0.5350 -0.5669 -0.6101
  186SLPC  H16R21435   2.865   2.853   8.137  0.5800  0.6442  1.2688
  186SLPC  H16S21436   3.033   2.813   8.196 -0.7083  0.4302 -0.8628
  186SLPC  C21721437   2.902   2.644   8.178  0.0640 -0.7336  0.2053
  186SLPC  H17R21438   2.984   2.570   8.164  0.9012  0.0105  1.0339
  186SLPC  H17S21439   2.819   2.611   8.113  0.7400  0.5771 -1.3981
  186SLPC  C21821440   2.854   2.641   8.331 -0.3431 -0.0320 -0.2038
  186SLPC  H18R21441   2.784   2.556   8.345 -0.4383 -0.3012 -2.0565
  186SLPC  H18S21442   2.800   2.738   8.332 -0.0366  0.1394 -0.1868
  186SLPC  H18T21443   2.928   2.640   8.414 -1.2568 -0.2105  0.6228
  186SLPC   C3321444   3.617   2.502   7.004 -0.5704  0.3616 -0.2335
  186SLPC   H3X21445   3.562   2.598   6.994 -2.3398 -0.2966  2.1099
  186SLPC   H3Y21446   3.705   2.516   7.070 -2.4614 -0.3898  2.6540
  186SLPC   C3421447   3.522   2.400   7.075  0.4786  0.1208 -0.1830
  186SLPC   H4X21448   3.573   2.301   7.081  2.2482  0.7804 -2.7328
  186SLPC   H4Y21449   3.433   2.384   7.010  0.2697  0.7494 -0.0608
  186SLPC   C3521450   3.474   2.452   7.203 -0.1077 -0.6334 -0.1058
  186SLPC   H5X21451   3.421   2.549   7.191 -0.7363 -0.9353  0.1524
  186SLPC   H5Y21452   3.555   2.471   7.276 -1.7761  0.0264  1.6386
  186SLPC   C3621453   3.383   2.355   7.271  0.1942  0.2019 -0.6959
  186SLPC   H6X21454   3.424   2.253   7.288 -0.3263  0.0732 -0.2100
  186SLPC   H6Y21455   3.295   2.346   7.204 -0.8936  0.4147  0.6775
  186SLPC   C3721456   3.338   2.395   7.412 -0.2285 -0.1747  0.2813
  186SLPC   H7X21457   3.246   2.345   7.449 -0.6189  1.4960  1.7019
  186SLPC   H7Y21458   3.317   2.502   7.391 -0.2705 -0.5451 -1.8290
  186SLPC   C3821459   3.448   2.370   7.514 -0.1086 -0.2160  0.3227
  186SLPC   H8X21460   3.531   2.437   7.482 -2.3418  3.3689  1.5638
  186SLPC   H8Y21461   3.482   2.264   7.501  1.5896  0.4112 -0.7657
  186SLPC   C3921462   3.416   2.410   7.658 -0.2037 -0.0954 -0.3798
  186SLPC   H9X21463   3.333   2.344   7.692  0.9163 -1.9719 -1.1450
  186SLPC   H9Y21464   3.374   2.512   7.655 -0.3246 -0.1573 -0.8876
  186SLPC  C31021465   3.523   2.390   7.757 -0.7103  0.0448  0.7481
  186SLPC  H10X21466   3.612   2.455   7.743 -0.0691 -0.9449  0.0811
  186SLPC  H10Y21467   3.565   2.291   7.729 -0.9164  0.3974 -0.9121
  186SLPC  C31121468   3.470   2.384   7.900  0.1777  0.4230 -0.4119
  186SLPC  H11X21469   3.381   2.317   7.897  0.1336  0.5061 -1.2872
  186SLPC  H11Y21470   3.432   2.484   7.930 -2.3009 -1.0193  1.7371
  186SLPC  C31221471   3.573   2.329   8.006 -1.1954  0.3869  0.4746
  186SLPC  H12X21472   3.664   2.392   8.011  0.2410 -1.5684 -0.1653
  186SLPC  H12Y21473   3.612   2.230   7.977 -1.7074  0.3500 -0.1065
  186SLPC  C31321474   3.524   2.305   8.151 -0.0991 -0.2522 -0.3464
  186SLPC  H13X21475   3.419   2.342   8.154 -0.5430 -1.2190 -2.4704
  186SLPC  H13Y21476   3.595   2.360   8.217  0.8578 -0.4083 -1.2200
  186SLPC  C31421477   3.525   2.166   8.198 -0.6573  0.0933  0.1736
  186SLPC  H14X21478   3.626   2.122   8.190 -0.4284  1.0298 -3.8386
  186SLPC  H14Y21479   3.472   2.107   8.120  0.7469  0.7446 -1.3248
  186SLPC  C31521480   3.462   2.152   8.331 -0.3042 -0.1556 -0.2047
  186SLPC  H15X21481   3.387   2.232   8.350 -0.4134  0.5859 -3.3050
  186SLPC  H15Y21482   3.545   2.162   8.404 -1.4862 -2.0648  1.5398
  186SLPC  C31621483   3.394   2.013   8.352 -0.9458 -1.0302 -0.0742
  186SLPC  H16X21484   3.314   1.992   8.278 -0.9241  3.2689 -1.6213
  186SLPC  H16Y21485   3.338   2.005   8.447 -0.3314  1.5487  0.5809
  186SLPC  C31721486   3.495   1.899   8.346  0.4124  0.0482  0.0781
  186SLPC  H17X21487   3.584   1.934   8.403  1.5253  0.6487 -1.9461
  186SLPC  H17Y21488   3.516   1.881   8.239  0.8474  0.9002  0.0080
  186SLPC  C31821489   3.433   1.768   8.413  0.2374 -0.0557  0.2394
  186SLPC  H18X21490   3.331   1.742   8.378  0.8841 -1.5980 -0.5991
  186SLPC  H18Y21491   3.439   1.775   8.524  1.9083 -2.3545  0.3529
  186SLPC  H18Z21492   3.504   1.692   8.374 -0.6503 -0.7196 -0.1058
  187SLPC     N21493   4.798   4.721   5.988 -0.1187 -0.8257 -0.0448
  187SLPC   C1321494   4.778   4.572   5.981 -0.3778  0.0873  0.2355
  187SLPC  H13A21495   4.801   4.528   5.885  0.1382 -1.5841  1.0840
  187SLPC  H13B21496   4.834   4.520   6.057 -0.4772 -1.4500 -0.7048
  187SLPC  H13C21497   4.676   4.542   5.998 -1.1314  0.3265 -3.1051
  187SLPC   C1421498   4.726   4.774   5.864  0.0236 -0.1674  0.5200
  187SLPC  H14A21499   4.780   4.737   5.779  0.2883  0.8766  0.2177
  187SLPC  H14B21500   4.620   4.755   5.853 -0.5082  0.8536  3.0950
  187SLPC  H14C21501   4.743   4.881   5.855 -2.3756  0.1690 -0.7729
  187SLPC   C1521502   4.946   4.749   5.982 -0.2625  0.1393 -0.3499
  187SLPC  H15A21503   4.997   4.697   6.063  2.9125  1.4599 -1.3502
  187SLPC  H15B21504   4.996   4.727   5.889 -1.3373  0.0537 -0.9195
  187SLPC  H15C21505   4.977   4.850   6.005  0.8804  0.0385 -1.3399
  187SLPC   C1221506   4.731   4.765   6.106  0.7578 -0.3780 -0.0037
  187SLPC  H12A21507   4.774   4.724   6.197 -2.1774  1.1259  2.2147
  187SLPC  H12B21508   4.626   4.746   6.119  1.0304 -0.6242  2.2706
  187SLPC   C1121509   4.726   4.917   6.124 -0.3971  0.3923 -0.6483
  187SLPC  H11A21510   4.663   4.936   6.213  0.2486  2.7272 -0.6165
  187SLPC  H11B21511   4.673   4.957   6.034 -0.8289  0.6482 -0.2853
  187SLPC     P21512   4.919   4.972   6.282 -0.0611 -0.6794  0.3527
  187SLPC   O1321513   5.065   4.952   6.254  0.1604 -0.3684 -0.3724
  187SLPC   O1421514   4.888   5.094   6.359 -0.0634 -0.3242 -0.4471
  187SLPC   O1221515   4.849   4.985   6.141  0.4997 -0.3858 -0.2120
  187SLPC   O1121516   4.860   4.841   6.343  0.9966  0.1666 -0.3540
  187SLPC    C121517   4.777   4.841   6.462 -0.0493 -0.1024  1.1498
  187SLPC    HA21518   4.717   4.934   6.478 -1.4468  0.2749 -4.4232
  187SLPC    HB21519   4.705   4.760   6.438  0.0291  0.4948 -1.3416
  187SLPC    C221520   4.867   4.802   6.586 -0.5104 -0.4510 -0.3269
  187SLPC    HS21521   4.801   4.800   6.675  0.6462 -3.0875  0.5848
  187SLPC   O2121522   4.972   4.903   6.604  0.3483  0.0870 -0.2569
  187SLPC   C2121523   4.935   5.010   6.677 -0.5983  0.3354  0.0388
  187SLPC   O2221524   4.832   5.027   6.745 -0.1077  0.1973 -0.2609
  187SLPC   C2221525   5.053   5.102   6.685  1.0081 -0.1363 -0.4988
  187SLPC   H2R21526   5.148   5.069   6.639  1.2396  0.4633 -0.4648
  187SLPC   H2S21527   5.020   5.190   6.625 -0.2929 -0.3513 -0.1265
  187SLPC    C321528   4.932   4.665   6.574 -0.6974  0.4292  0.4139
  187SLPC    HX21529   4.999   4.648   6.487 -2.2340  0.7635 -0.8887
  187SLPC    HY21530   4.856   4.585   6.560  0.0159 -0.3434  0.8291
  187SLPC   O3121531   4.996   4.623   6.696  0.6990 -0.1907 -0.3749
  187SLPC   C3121532   5.123   4.660   6.713 -0.0889 -0.4092 -0.1290
  187SLPC   O3221533   5.195   4.718   6.630  0.1384 -0.2509 -0.3812
  187SLPC   C3221534   5.175   4.618   6.848 -0.6914 -0.1006 -0.7919
  187SLPC   H2X21535   5.196   4.510   6.838  1.2710  0.2017 -0.2284
  187SLPC   H2Y21536   5.085   4.618   6.914  0.1703  0.9027  0.4343
  187SLPC   C2321537   5.075   5.148   6.837 -0.4593  0.7873 -0.4476
  187SLPC   H3R21538   5.095   5.058   6.900 -0.9770 -0.4338 -1.9488
  187SLPC   H3S21539   4.984   5.199   6.874  1.1302  1.3881  3.0062
  187SLPC   C2421540   5.183   5.254   6.862  0.0787  0.4431  0.2492
  187SLPC   H4R21541   5.177   5.335   6.786  0.7047  1.0929  0.8793
  187SLPC   H4S21542   5.281   5.203   6.869 -1.2238 -2.4330 -0.6974
  187SLPC   C2521543   5.162   5.336   6.990  0.2527  0.1037 -1.0874
  187SLPC   H5R21544   5.203   5.280   7.077 -0.9545  2.4640  1.1710
  187SLPC   H5S21545   5.054   5.352   7.008  0.8542  2.6326  0.8662
  187SLPC   C2621546   5.219   5.478   6.985  0.1885  0.6417 -0.0451
  187SLPC   H6R21547   5.171   5.526   6.897 -2.5857  1.0015  1.5556
  187SLPC   H6S21548   5.326   5.454   6.968 -0.2545 -1.2600 -0.3175
  187SLPC   C2721549   5.204   5.554   7.114 -0.1754 -0.0975 -0.5178
  187SLPC   H7R21550   5.197   5.468   7.185 -1.0345  0.9032  0.6402
  187SLPC   H7S21551   5.102   5.597   7.121  0.1882  0.7053 -0.1261
  187SLPC   C2821552   5.325   5.639   7.143 -0.0201  0.9375 -1.2301
  187SLPC   H8R21553   5.348   5.718   7.068  1.7997  0.6817 -1.0092
  187SLPC   H8S21554   5.418   5.577   7.149  0.1992  1.3244 -0.5956
  187SLPC   C2921555   5.283   5.702   7.275  0.8839  0.1646  0.2058
  187SLPC   H9R21556   5.192   5.764   7.272 -0.2317 -1.4441 -0.2714
  187SLPC  C21021557   5.337   5.673   7.401 -0.8701 -0.1640 -0.7639
  187SLPC  H10R21558   5.315   5.728   7.493  2.2435 -0.2742  0.1738
  187SLPC  C21121559   5.449   5.570   7.429  0.0413  0.3576 -0.1298
  187SLPC  H11R21560   5.477   5.505   7.343 -0.9295 -1.2837  0.7289
  187SLPC  H11S21561   5.421   5.505   7.515  0.5464 -1.1163 -1.0419
  187SLPC  C21221562   5.565   5.653   7.479  0.3108  0.2122 -0.2816
  187SLPC  H12R21563   5.616   5.691   7.389 -0.8761 -2.7723 -2.3701
  187SLPC  C21321564   5.612   5.670   7.606 -0.0743  0.2692  0.6732
  187SLPC  H13R21565   5.700   5.732   7.626 -0.2099  0.6358  0.1412
  187SLPC  C21421566   5.555   5.625   7.737 -0.3954 -0.4818  0.6436
  187SLPC  H14R21567   5.605   5.530   7.764 -1.6676 -1.4825 -0.3421
  187SLPC  H14S21568   5.446   5.606   7.724 -0.7265  0.5125  1.7779
  187SLPC  C21521569   5.565   5.729   7.850 -0.3206  0.0381  0.8589
  187SLPC  H15R21570   5.494   5.813   7.841 -0.7187 -0.5078 -2.2996
  187SLPC  H15S21571   5.665   5.777   7.851 -2.0301  4.0739 -0.5040
  187SLPC  C21621572   5.536   5.672   7.986  0.4983 -0.5608  0.0267
  187SLPC  H16R21573   5.591   5.578   8.009  0.4596 -0.7128 -0.4873
  187SLPC  H16S21574   5.429   5.641   7.986  0.0335  0.9676 -0.2247
  187SLPC  C21721575   5.556   5.781   8.092 -0.2640 -0.3447  0.5437
  187SLPC  H17R21576   5.494   5.870   8.070  0.7404 -0.3959 -3.0928
  187SLPC  H17S21577   5.659   5.822   8.090  0.0982 -1.1283  1.6687
  187SLPC  C21821578   5.519   5.730   8.236 -0.4375  0.2052  0.5173
  187SLPC  H18R21579   5.567   5.631   8.254 -1.6368 -0.6713 -0.8353
  187SLPC  H18S21580   5.408   5.725   8.239 -0.5222  1.4366 -0.1149
  187SLPC  H18T21581   5.562   5.794   8.315  0.7771  1.8764 -1.3962
  187SLPC   C3321582   5.297   4.697   6.894 -0.4205 -0.4566 -0.0784
  187SLPC   H3X21583   5.260   4.802   6.898 -0.6194 -0.5513  1.2065
  187SLPC   H3Y21584   5.372   4.694   6.812 -1.3794 -0.3000 -0.9796
  187SLPC   C3421585   5.357   4.647   7.027  0.8258  0.7183  0.0665
  187SLPC   H4X21586   5.368   4.537   7.024  0.7016  0.6411  1.7743
  187SLPC   H4Y21587   5.271   4.647   7.097  0.5117 -0.7092 -0.2931
  187SLPC   C3521588   5.479   4.717   7.079  0.0340  0.5705  0.3152
  187SLPC   H5X21589   5.471   4.828   7.087  2.1051  0.7476  0.5651
  187SLPC   H5Y21590   5.564   4.696   7.010 -0.7258  1.3899 -0.9243
  187SLPC   C3621591   5.528   4.655   7.221 -0.1593  0.2293 -0.1931
  187SLPC   H6X21592   5.590   4.570   7.187 -1.7111 -0.0167 -2.7460
  187SLPC   H6Y21593   5.432   4.622   7.266 -0.9169  2.0343 -0.3874
  187SLPC   C3721594   5.606   4.757   7.309 -1.0333  0.4522 -0.3694
  187SLPC   H7X21595   5.687   4.813   7.257  0.6932 -0.2382  1.4179
  187SLPC   H7Y21596   5.531   4.829   7.345 -0.7732  1.1986 -1.2896
  187SLPC   C3821597   5.660   4.691   7.443 -0.4162  0.6703 -0.4871
  187SLPC   H8X21598   5.764   4.653   7.434  1.0203  3.6192  1.8061
  187SLPC   H8Y21599   5.591   4.606   7.460  1.5644 -1.0698 -0.8698
  187SLPC   C3921600   5.658   4.782   7.562  0.5440  0.3555  0.7259
  187SLPC   H9X21601   5.551   4.809   7.575 -0.3763 -1.7262 -1.8155
  187SLPC   H9Y21602   5.722   4.871   7.543 -0.3142  0.4726 -1.9101
  187SLPC  C31021603   5.703   4.710   7.693  0.0670 -0.2926  0.3498
  187SLPC  H10X21604   5.809   4.680   7.677 -0.1635 -0.8354 -0.1717
  187SLPC  H10Y21605   5.645   4.620   7.719 -0.9688  0.0584 -0.6647
  187SLPC  C31121606   5.692   4.795   7.822 -0.1559 -0.2222 -0.0175
  187SLPC  H11X21607   5.742   4.894   7.819  1.6217 -0.9279  2.9909
  187SLPC  H11Y21608   5.738   4.741   7.907  0.3304  1.3435  0.7582
  187SLPC  C31221609   5.548   4.823   7.861 -0.0056 -0.4638 -0.5322
  187SLPC  H12X21610   5.480   4.737   7.843  0.1583 -0.6301 -0.3616
  187SLPC  H12Y21611   5.502   4.904   7.800 -1.0674  1.0611  2.1066
  187SLPC  C31321612   5.536   4.866   8.014 -0.0552  0.6908  0.1722
  187SLPC  H13X21613   5.584   4.965   8.029  0.5134  0.6000 -1.0087
  187SLPC  H13Y21614   5.586   4.785   8.071  0.3651  0.0021 -1.1367
  187SLPC  C31421615   5.386   4.881   8.056  0.2336  0.0856  0.2736
  187SLPC  H14X21616   5.326   4.792   8.026  1.2805 -1.3501  2.2258
  187SLPC  H14Y21617   5.356   4.975   8.005  1.7265 -0.0540 -0.9434
  187SLPC  C31521618   5.365   4.912   8.205  0.3074  0.0097  0.2737
  187SLPC  H15X21619   5.415   5.010   8.217 -1.0452  1.3075 -3.2797
  187SLPC  H15Y21620   5.415   4.836   8.269 -0.2837 -0.0036  0.7276
  187SLPC  C31621621   5.215   4.923   8.250  0.8252  0.3308  0.5413
  187SLPC  H16X21622   5.160   4.997   8.188 -1.4121 -0.3234  1.6687
  187SLPC  H16Y21623   5.212   4.972   8.350  0.6597 -1.5556  1.5093
  187SLPC  C31721624   5.128   4.797   8.236  0.3553 -0.1080  0.6170
  187SLPC  H17X21625   5.091   4.793   8.131 -1.7348  0.3028  1.2976
  187SLPC  H17Y21626   5.044   4.803   8.309  0.4097  1.4979  0.5841
  187SLPC  C31821627   5.195   4.661   8.266 -0.9272 -0.5003  0.1082
  187SLPC  H18X21628   5.280   4.654   8.195 -1.5470 -2.0907 -0.5498
  187SLPC  H18Y21629   5.123   4.577   8.249 -1.3464  0.0278 -0.8157
  187SLPC  H18Z21630   5.233   4.652   8.370 -0.2359 -1.4344 -0.2134
  188SLPC     N21631   1.325   1.020   6.132 -0.4171  0.2364  0.4565
  188SLPC   C1321632   1.422   0.915   6.178 -0.2586 -0.2123  0.7320
  188SLPC  H13A21633   1.432   0.914   6.286 -0.0657 -1.8178  0.7206
  188SLPC  H13B21634   1.384   0.821   6.141  1.2099 -0.1435 -1.0332
  188SLPC  H13C21635   1.520   0.927   6.136 -0.0305 -0.3165  1.2248
  188SLPC   C1421636   1.327   1.016   5.982 -0.4975  0.0008  0.4480
  188SLPC  H14A21637   1.287   0.925   5.940 -0.6665 -0.2136  1.0728
  188SLPC  H14B21638   1.264   1.099   5.955 -0.0117  0.2163 -0.0356
  188SLPC  H14C21639   1.427   1.033   5.944  0.2094 -0.5322  1.9626
  188SLPC   C1521640   1.367   1.151   6.192 -0.1003  0.0710 -0.2269
  188SLPC  H15A21641   1.380   1.143   6.299 -0.3616 -0.7489 -0.2444
  188SLPC  H15B21642   1.465   1.183   6.160  1.5008 -2.4865  1.7439
  188SLPC  H15C21643   1.298   1.230   6.166  3.0787  2.6284 -1.5991
  188SLPC   C1221644   1.197   0.976   6.192  0.7315  0.1861  0.0413
  188SLPC  H12A21645   1.216   0.966   6.298 -0.0246  2.0382  0.4007
  188SLPC  H12B21646   1.170   0.879   6.155  1.6973  0.3597 -1.1650
  188SLPC   C1121647   1.066   1.061   6.183  0.0010  0.0396  0.8241
  188SLPC  H11A21648   0.989   1.010   6.245 -1.3400  1.2286  0.1890
  188SLPC  H11B21649   1.040   1.069   6.075  1.6905  0.7252  0.4326
  188SLPC     P21650   1.097   1.222   6.385 -0.0193 -0.0556  0.0412
  188SLPC   O1321651   1.160   1.353   6.413  0.1347 -0.1264 -0.9166
  188SLPC   O1421652   0.957   1.205   6.438 -0.0562 -0.1848 -0.8095
  188SLPC   O1221653   1.097   1.195   6.229  0.3376  0.2868 -0.4502
  188SLPC   O1121654   1.190   1.110   6.444 -0.0155  0.2690 -0.0085
  188SLPC    C121655   1.146   0.996   6.512 -0.0652  0.0008  0.5591
  188SLPC    HA21656   1.042   0.965   6.485  0.3232  1.0872 -2.6636
  188SLPC    HB21657   1.215   0.919   6.474  1.2770  1.4935 -0.1430
  188SLPC    C221658   1.162   1.009   6.667  0.2704 -0.1196  0.0492
  188SLPC    HS21659   1.164   0.905   6.707 -0.7062 -0.4967 -0.8240
  188SLPC   O2121660   1.053   1.082   6.718 -0.5981 -0.2742 -0.0929
  188SLPC   C2121661   0.936   1.032   6.722  0.7141  0.1223  0.1964
  188SLPC   O2221662   0.902   0.921   6.683  0.3441 -0.1682 -0.4316
  188SLPC   C2221663   0.844   1.125   6.794  0.3607 -0.2427 -0.4258
  188SLPC   H2R21664   0.902   1.182   6.870 -0.4096  1.5161 -1.0891
  188SLPC   H2S21665   0.784   1.200   6.737  0.1796  1.5118  1.8918
  188SLPC    C321666   1.294   1.080   6.705  0.9910 -0.1687 -0.0663
  188SLPC    HX21667   1.274   1.188   6.690 -2.5866 -0.6543  0.2341
  188SLPC    HY21668   1.371   1.046   6.632 -0.0003 -0.7251 -0.8788
  188SLPC   O3121669   1.332   1.041   6.840 -0.6393  0.2245 -0.6707
  188SLPC   C3121670   1.280   1.124   6.931  0.1181  0.1789 -0.2311
  188SLPC   O3221671   1.219   1.222   6.904  0.1603 -0.6204 -0.0832
  188SLPC   C3221672   1.320   1.080   7.072  0.4379 -0.1642  0.0643
  188SLPC   H2X21673   1.429   1.100   7.076  0.4998  1.2968 -3.9549
  188SLPC   H2Y21674   1.291   0.974   7.080 -1.3525  0.3800  1.2134
  188SLPC   C2321675   0.745   1.033   6.873 -0.6138 -0.0415  0.8877
  188SLPC   H3R21676   0.683   0.981   6.797  2.0823 -0.2715 -1.3163
  188SLPC   H3S21677   0.682   1.102   6.933 -1.7066  0.6741 -1.0140
  188SLPC   C2421678   0.807   0.944   6.977  0.0822  0.2608  0.1855
  188SLPC   H4R21679   0.885   0.877   6.933  0.0235 -1.4295  2.4638
  188SLPC   H4S21680   0.726   0.876   7.008  2.3199 -2.4032  0.6016
  188SLPC   C2521681   0.865   1.025   7.089 -0.5716 -0.3881 -0.4054
  188SLPC   H5R21682   0.800   1.110   7.118  0.4196  0.3207 -0.1911
  188SLPC   H5S21683   0.962   1.068   7.055  0.1547 -0.9986  0.8317
  188SLPC   C2621684   0.904   0.938   7.213  0.3764 -0.2936 -0.1681
  188SLPC   H6R21685   0.820   0.901   7.276 -0.2792 -1.2158 -1.5458
  188SLPC   H6S21686   0.964   1.011   7.272  1.2815 -0.6762 -0.5911
  188SLPC   C2721687   0.998   0.821   7.176 -0.0049  0.1116  0.0950
  188SLPC   H7R21688   1.069   0.837   7.092  0.1406 -0.5440  0.0845
  188SLPC   H7S21689   0.936   0.745   7.123 -0.0902  1.2158 -1.4747
  188SLPC   C2821690   1.075   0.758   7.301 -0.1477  0.4142 -0.6152
  188SLPC   H8R21691   1.133   0.839   7.350  1.2496 -0.4338 -0.8030
  188SLPC   H8S21692   1.158   0.692   7.266  1.8706  1.5473  1.6874
  188SLPC   C2921693   0.992   0.682   7.401 -0.1689  0.1930  0.1333
  188SLPC   H9R21694   0.930   0.604   7.356 -2.4465  1.7477  0.4288
  188SLPC  C21021695   0.995   0.698   7.534  0.1771  0.2590 -0.2007
  188SLPC  H10R21696   0.920   0.648   7.598  0.3887 -1.2454 -1.0731
  188SLPC  C21121697   1.068   0.806   7.610 -0.1525  0.3961 -0.8789
  188SLPC  H11R21698   1.158   0.848   7.561  0.3071  0.5275  0.0604
  188SLPC  H11S21699   1.110   0.740   7.688 -0.4242  0.0702 -1.0016
  188SLPC  C21221700   0.980   0.923   7.646 -0.5924  0.2408 -0.1285
  188SLPC  H12R21701   0.925   0.978   7.569 -1.6209  2.3454  1.9629
  188SLPC  C21321702   0.946   0.955   7.772  0.1871  0.3052 -0.4139
  188SLPC  H13R21703   0.877   1.038   7.796  1.7488  1.5841 -0.1527
  188SLPC  C21421704   0.983   0.880   7.897  0.1209  0.3079 -0.9046
  188SLPC  H14R21705   0.974   0.957   7.976  0.9842  1.0371 -1.4942
  188SLPC  H14S21706   1.089   0.846   7.891  0.4165  1.3346 -1.8888
  188SLPC  C21521707   0.896   0.762   7.930 -0.0513  0.1306 -0.7342
  188SLPC  H15R21708   0.921   0.679   7.860  0.3669  2.2554 -3.2544
  188SLPC  H15S21709   0.787   0.781   7.917 -0.3153 -0.7183  0.1032
  188SLPC  C21621710   0.915   0.715   8.075 -0.1628 -0.7305  0.1587
  188SLPC  H16R21711   0.871   0.789   8.145 -0.4482  1.3815 -2.1134
  188SLPC  H16S21712   1.025   0.707   8.080  0.0744  1.6822  0.0397
  188SLPC  C21721713   0.864   0.576   8.102  0.4960  0.3868 -0.0735
  188SLPC  H17R21714   0.893   0.511   8.017  0.6619  1.6619 -1.0178
  188SLPC  H17S21715   0.753   0.576   8.106  0.4561 -2.0761  0.8751
  188SLPC  C21821716   0.905   0.512   8.235  0.2460 -0.9005  0.2636
  188SLPC  H18R21717   1.012   0.484   8.238  0.3983 -0.3075  0.4274
  188SLPC  H18S21718   0.832   0.430   8.257  0.7052 -0.9451  1.7748
  188SLPC  H18T21719   0.883   0.594   8.307  2.9879  0.4937 -0.3714
  188SLPC   C3321720   1.244   1.171   7.174 -0.3718  0.5508  0.4678
  188SLPC   H3X21721   1.134   1.157   7.165 -0.3869  0.0382  1.3601
  188SLPC   H3Y21722   1.265   1.278   7.156 -1.8835  0.5766 -1.5323
  188SLPC   C3421723   1.287   1.117   7.310 -0.6694  1.2151  0.1494
  188SLPC   H4X21724   1.397   1.098   7.310 -1.0970 -1.7887 -0.8058
  188SLPC   H4Y21725   1.236   1.021   7.332  0.3472  0.4107 -0.8439
  188SLPC   C3521726   1.258   1.213   7.419 -0.8469 -0.7325 -0.2980
  188SLPC   H5X21727   1.160   1.263   7.400 -1.1542 -0.5772  1.4689
  188SLPC   H5Y21728   1.339   1.288   7.407  1.4864 -3.1257 -0.2449
  188SLPC   C3621729   1.282   1.143   7.558  0.3527  0.5608 -0.0222
  188SLPC   H6X21730   1.382   1.093   7.557  1.5105  2.7178  0.3712
  188SLPC   H6Y21731   1.206   1.066   7.584  1.2693 -0.4872 -0.3353
  188SLPC   C3721732   1.277   1.244   7.675  0.3178  0.0132  0.4195
  188SLPC   H7X21733   1.176   1.290   7.668  0.3430  0.0333  0.1721
  188SLPC   H7Y21734   1.353   1.323   7.655 -1.7804  2.7278  2.5123
  188SLPC   C3821735   1.300   1.188   7.818 -0.8469  0.4591 -0.0878
  188SLPC   H8X21736   1.410   1.177   7.833 -0.9415  0.4966  0.6550
  188SLPC   H8Y21737   1.256   1.087   7.826 -1.5254  0.8704  1.9198
  188SLPC   C3921738   1.243   1.280   7.927 -0.2061  0.7583  0.4697
  188SLPC   H9X21739   1.135   1.302   7.920 -0.2377  0.3443 -0.4862
  188SLPC   H9Y21740   1.301   1.374   7.914 -0.1680  0.5386 -1.2015
  188SLPC  C31021741   1.281   1.231   8.074  0.5444 -0.8534  0.2843
  188SLPC  H10X21742   1.294   1.329   8.126  2.1823 -0.6279 -0.5054
  188SLPC  H10Y21743   1.384   1.189   8.081 -0.4523 -3.3462  1.0592
  188SLPC  C31121744   1.181   1.143   8.132 -0.3022  0.2937 -0.3723
  188SLPC  H11X21745   1.164   1.047   8.081 -2.0192  0.1664  0.3593
  188SLPC  H11Y21746   1.087   1.204   8.134 -0.4111  0.1756  2.3437
  188SLPC  C31221747   1.197   1.087   8.281  0.3281  0.0405 -0.9022
  188SLPC  H12X21748   1.166   1.167   8.350 -3.8968  0.7541 -3.2615
  188SLPC  H12Y21749   1.301   1.053   8.299 -0.9796 -2.9585  2.2259
  188SLPC  C31321750   1.104   0.966   8.309  0.0062  0.5773 -0.6322
  188SLPC  H13X21751   1.130   0.889   8.234  2.1405  0.4003  0.2204
  188SLPC  H13Y21752   0.997   0.990   8.293 -0.5591 -1.6656 -0.6181
  188SLPC  C31421753   1.137   0.904   8.444 -0.0961 -0.1012  0.1853
  188SLPC  H14X21754   1.134   0.985   8.521 -1.7707 -1.0436  1.1681
  188SLPC  H14Y21755   1.236   0.854   8.448 -0.3818 -0.6860  0.1335
  188SLPC  C31521756   1.034   0.792   8.478 -0.0806  0.5046 -0.4803
  188SLPC  H15X21757   1.047   0.722   8.393 -0.8407 -0.9616  0.5581
  188SLPC  H15Y21758   0.929   0.827   8.482 -0.7204 -1.3402 -0.2885
  188SLPC  C31621759   1.053   0.724   8.612  0.4902  0.2458  0.0783
  188SLPC  H16X21760   1.033   0.804   8.687 -1.7149  1.3051 -1.5425
  188SLPC  H16Y21761   1.162   0.699   8.616  0.2636 -1.6309 -2.8297
  188SLPC  C31721762   0.959   0.599   8.634  0.4127 -0.3057 -0.5395
  188SLPC  H17X21763   1.010   0.515   8.583  0.7996 -0.6576  0.4126
  188SLPC  H17Y21764   0.866   0.623   8.577  0.3200 -3.1731 -1.7432
  188SLPC  C31821765   0.928   0.564   8.777 -0.3223 -0.2914 -0.1781
  188SLPC  H18X21766   1.020   0.570   8.840 -0.5342 -2.0037  0.3593
  188SLPC  H18Y21767   0.892   0.459   8.773 -1.0638 -0.0077 -1.5298
  188SLPC  H18Z21768   0.851   0.631   8.819  0.4399 -0.8325  2.2737
  189SLPC     N21769   1.275   3.107   6.014 -0.0961 -0.0735 -0.0190
  189SLPC   C1321770   1.339   3.183   5.907  0.0598 -0.2483  0.1127
  189SLPC  H13A21771   1.279   3.195   5.818  0.6256 -1.1835 -0.4131
  189SLPC  H13B21772   1.380   3.279   5.935  1.9262 -0.4249 -1.7483
  189SLPC  H13C21773   1.419   3.120   5.871  0.1589  0.6114 -1.2237
  189SLPC   C1421774   1.370   3.067   6.127  0.0803  0.3445  0.2040
  189SLPC  H14A21775   1.308   3.011   6.196  0.4269  1.0160  1.0688
  189SLPC  H14B21776   1.447   3.000   6.092  0.3429  0.0862  1.2449
  189SLPC  H14C21777   1.409   3.156   6.175 -0.0679 -1.1189  3.2619
  189SLPC   C1521778   1.225   2.968   5.965 -0.2937  0.0614 -0.2107
  189SLPC  H15A21779   1.307   2.918   5.916  0.0260  1.1627 -0.8401
  189SLPC  H15B21780   1.182   2.907   6.043 -3.8032 -0.6507 -2.4481
  189SLPC  H15C21781   1.144   2.973   5.894 -1.1310 -2.0451  0.5181
  189SLPC   C1221782   1.160   3.199   6.064  0.0918  0.7309 -0.5947
  189SLPC  H12A21783   1.084   3.134   6.105  0.2217 -0.0282 -1.4998
  189SLPC  H12B21784   1.114   3.250   5.981  1.5728  0.2757 -1.7463
  189SLPC   C1121785   1.192   3.289   6.181 -0.1330  0.2323 -0.7226
  189SLPC  H11A21786   1.192   3.220   6.269 -1.3286  0.4936 -0.5054
  189SLPC  H11B21787   1.100   3.346   6.205  0.2791  0.5697  0.1246
  189SLPC     P21788   1.374   3.419   6.302 -0.4245 -0.0648  0.2081
  189SLPC   O1321789   1.476   3.321   6.335 -0.3020  0.2144 -0.1752
  189SLPC   O1421790   1.425   3.556   6.286 -0.0497  0.0273  0.4360
  189SLPC   O1221791   1.300   3.376   6.166 -0.5638  0.3041 -0.7261
  189SLPC   O1121792   1.260   3.418   6.415  0.1446  0.1313  0.3468
  189SLPC    C121793   1.164   3.522   6.419  1.1145 -1.3483  0.4817
  189SLPC    HA21794   1.165   3.578   6.323 -0.7637 -1.1280  0.5547
  189SLPC    HB21795   1.060   3.489   6.401  0.7559  0.8765 -2.1248
  189SLPC    C221796   1.174   3.626   6.537  0.6005  0.3610  0.9504
  189SLPC    HS21797   1.275   3.666   6.560 -0.0518  1.2661  2.3591
  189SLPC   O2121798   1.114   3.562   6.649 -0.4442 -0.0063  0.0311
  189SLPC   C2121799   1.194   3.488   6.727  0.5419  0.4492  0.0862
  189SLPC   O2221800   1.313   3.468   6.716 -0.5682 -0.1946 -0.1815
  189SLPC   C2221801   1.109   3.422   6.836 -0.0200  0.2251 -0.3370
  189SLPC   H2R21802   1.003   3.426   6.806 -0.6083  1.7139  1.6696
  189SLPC   H2S21803   1.147   3.318   6.841 -2.9420 -0.9001  0.7479
  189SLPC    C321804   1.081   3.747   6.511  0.3592 -0.3521  0.3467
  189SLPC    HX21805   0.989   3.694   6.479  0.1488  0.7100 -0.8699
  189SLPC    HY21806   1.126   3.811   6.432  0.1224 -0.1934  0.3373
  189SLPC   O3121807   1.046   3.832   6.629 -0.3647 -0.2930  0.1017
  189SLPC   C3121808   1.125   3.935   6.649 -0.1576  0.1039 -0.0726
  189SLPC   O3221809   1.232   3.954   6.596  0.0926 -0.0302  0.0424
  189SLPC   C3221810   1.063   4.026   6.754  0.0626  0.5587 -0.1168
  189SLPC   H2X21811   1.011   4.109   6.702 -0.4279  0.6602  0.5199
  189SLPC   H2Y21812   1.142   4.076   6.814 -2.1697  2.4191  1.4364
  189SLPC   C2321813   1.129   3.489   6.972 -0.0993 -0.4549 -0.3679
  189SLPC   H3R21814   1.134   3.599   6.958  0.2654 -0.5755 -1.2033
  189SLPC   H3S21815   1.233   3.463   7.002 -0.4225  0.2127  1.4807
  189SLPC   C2421816   1.041   3.435   7.081  0.0114 -0.3589  0.0088
  189SLPC   H4R21817   1.058   3.325   7.088 -1.4069 -0.6204 -0.3054
  189SLPC   H4S21818   0.935   3.468   7.073  0.4351  1.2939  0.8657
  189SLPC   C2521819   1.085   3.493   7.219 -0.9499 -0.3940 -0.0772
  189SLPC   H5R21820   1.070   3.603   7.220  0.4747 -0.1653 -0.9106
  189SLPC   H5S21821   1.191   3.463   7.235 -0.9438 -2.3296 -3.0362
  189SLPC   C2621822   1.003   3.440   7.335  0.2250 -0.8527  0.7989
  189SLPC   H6R21823   1.001   3.331   7.314 -0.9193 -0.8292  0.6811
  189SLPC   H6S21824   0.901   3.481   7.314  0.7782  0.5363  0.7626
  189SLPC   C2721825   1.043   3.475   7.479  0.1611  0.0874  0.1392
  189SLPC   H7R21826   1.037   3.586   7.476 -2.8253 -0.0114 -0.7159
  189SLPC   H7S21827   1.147   3.435   7.492 -0.2377 -1.8261 -1.8884
  189SLPC   C2821828   0.958   3.409   7.580  0.2936  0.7339  0.9682
  189SLPC   H8R21829   0.965   3.298   7.574  1.8719  0.8433  0.5704
  189SLPC   H8S21830   0.850   3.429   7.562 -0.1398  0.3959  2.9192
  189SLPC   C2921831   0.988   3.455   7.728  0.1676  0.3269 -0.4383
  189SLPC   H9R21832   1.083   3.510   7.734  0.9617 -0.6785 -2.6890
  189SLPC  C21021833   0.936   3.410   7.846 -0.1560  1.1758 -0.5526
  189SLPC  H10R21834   0.965   3.449   7.945 -0.3429 -3.5375  1.5944
  189SLPC  C21121835   0.820   3.306   7.856 -0.9668  0.2310  0.3342
  189SLPC  H11R21836   0.819   3.248   7.762  0.6267  0.3043  0.2428
  189SLPC  H11S21837   0.728   3.368   7.870 -0.0112  2.2921 -1.8388
  189SLPC  C21221838   0.843   3.199   7.965 -0.7280 -0.1494 -0.8352
  189SLPC  H12R21839   0.942   3.152   7.978 -1.5760 -2.0399 -0.8101
  189SLPC  C21321840   0.748   3.168   8.054 -0.6418  0.3351  0.1441
  189SLPC  H13R21841   0.772   3.095   8.133  1.1874 -0.2752 -0.9095
  189SLPC  C21421842   0.608   3.225   8.068 -0.4246  0.0123 -0.8113
  189SLPC  H14R21843   0.530   3.153   8.100  0.1999  0.1568  1.2091
  189SLPC  H14S21844   0.579   3.256   7.966 -0.4823  0.1100 -0.7651
  189SLPC  C21521845   0.600   3.358   8.146 -0.5015  0.5990  0.3071
  189SLPC  H15R21846   0.502   3.408   8.128  0.4936  1.8929 -1.9704
  189SLPC  H15S21847   0.681   3.432   8.128 -0.2368  0.4883  1.0180
  189SLPC  C21621848   0.587   3.326   8.306  0.4568  0.4958 -0.6610
  189SLPC  H16R21849   0.683   3.284   8.345  0.7109  1.3518 -0.3448
  189SLPC  H16S21850   0.512   3.245   8.319  2.9241 -1.9259 -0.5010
  189SLPC  C21721851   0.561   3.457   8.386  0.1598  0.0180  0.6416
  189SLPC  H17R21852   0.480   3.517   8.339  0.6798 -0.1656 -0.5374
  189SLPC  H17S21853   0.643   3.529   8.368 -1.9539  2.3343 -0.2081
  189SLPC  C21821854   0.533   3.429   8.532 -0.7557  0.3015  0.0910
  189SLPC  H18R21855   0.543   3.524   8.588  0.5539 -1.1264  2.4697
  189SLPC  H18S21856   0.611   3.367   8.581  0.7452  2.3935  0.4457
  189SLPC  H18T21857   0.433   3.380   8.537  0.3048 -2.0854 -0.4384
  189SLPC   C3321858   0.969   3.954   6.858 -0.2783 -1.0091 -0.1918
  189SLPC   H3X21859   0.894   3.902   6.796  0.2955 -1.6529 -0.3697
  189SLPC   H3Y21860   0.922   4.028   6.926 -0.9164 -3.2661  2.0137
  189SLPC   C3421861   1.041   3.854   6.954  0.0936 -0.1491  0.3160
  189SLPC   H4X21862   1.080   3.772   6.890  1.7810 -0.6564  1.8903
  189SLPC   H4Y21863   0.967   3.802   7.018  0.6503  0.0436  1.1354
  189SLPC   C3521864   1.148   3.919   7.045 -0.7900  0.6270 -0.1358
  189SLPC   H5X21865   1.233   3.963   6.988 -0.4689 -1.0670 -1.0505
  189SLPC   H5Y21866   1.193   3.829   7.093 -0.0664 -1.1088 -3.6982
  189SLPC   C3621867   1.093   4.004   7.159  0.3130  0.4626 -0.0997
  189SLPC   H6X21868   1.040   4.084   7.103 -0.5450 -0.1607 -0.1998
  189SLPC   H6Y21869   1.172   4.035   7.230 -0.9523  1.8532  0.7368
  189SLPC   C3721870   0.997   3.929   7.257  0.4384 -0.5574  0.1435
  189SLPC   H7X21871   1.060   3.842   7.287  1.6357  0.8879  2.0321
  189SLPC   H7Y21872   0.911   3.887   7.200 -0.1859  0.9629 -0.0922
  189SLPC   C3821873   0.954   3.999   7.377 -0.8132  0.0461 -0.0709
  189SLPC   H8X21874   0.866   3.961   7.433 -1.1585  0.8171 -0.0697
  189SLPC   H8Y21875   0.936   4.104   7.345  2.5104  0.1890 -1.8969
  189SLPC   C3921876   1.063   3.998   7.481  0.2597 -0.6687 -0.1778
  189SLPC   H9X21877   1.147   4.064   7.448  0.3938 -2.0332 -2.8136
  189SLPC   H9Y21878   1.109   3.899   7.501  1.8656  0.0376 -0.1480
  189SLPC  C31021879   1.014   4.051   7.622  0.2845 -0.0653 -0.1181
  189SLPC  H10X21880   0.933   3.999   7.677  0.8960 -1.4909 -0.4971
  189SLPC  H10Y21881   0.981   4.154   7.596 -0.4470 -0.5054 -0.9880
  189SLPC  C31121882   1.130   4.055   7.725  0.6100 -0.1627 -0.2136
  189SLPC  H11X21883   1.223   4.082   7.670  0.4138  0.9277 -0.0421
  189SLPC  H11Y21884   1.145   3.960   7.780 -1.5262  0.3109  1.2893
  189SLPC  C31221885   1.111   4.163   7.824 -0.2508  0.3357 -0.3769
  189SLPC  H12X21886   1.102   4.260   7.770 -1.0096  1.3614  1.4791
  189SLPC  H12Y21887   1.196   4.176   7.895  1.0771 -0.0764 -1.8470
  189SLPC  C31321888   0.983   4.143   7.915 -0.0628 -0.8988  0.0281
  189SLPC  H13X21889   0.900   4.135   7.841 -0.2954  1.6677 -0.1115
  189SLPC  H13Y21890   0.966   4.220   7.994 -1.0668 -1.7037  0.6308
  189SLPC  C31421891   0.989   4.015   7.995  0.1949  0.2051  0.2695
  189SLPC  H14X21892   1.079   4.022   8.060 -0.0403  2.0504  0.4646
  189SLPC  H14Y21893   1.015   3.933   7.925 -0.1031 -1.1292  1.6728
  189SLPC  C31521894   0.860   3.995   8.075 -0.5268 -0.1531  0.0640
  189SLPC  H15X21895   0.788   3.958   7.999  2.4920 -2.3582 -1.9333
  189SLPC  H15Y21896   0.830   4.097   8.107 -0.8558  0.5733 -2.3806
  189SLPC  C31621897   0.871   3.897   8.189  0.0751 -0.5051 -0.6359
  189SLPC  H16X21898   0.773   3.880   8.238  0.6451 -0.9383  0.3737
  189SLPC  H16Y21899   0.944   3.943   8.259  0.6703 -1.3904 -0.6474
  189SLPC  C31721900   0.907   3.765   8.140  0.4971  0.6869 -0.3035
  189SLPC  H17X21901   1.007   3.752   8.092 -0.1193 -2.1454 -1.0418
  189SLPC  H17Y21902   0.846   3.724   8.056  0.7897 -1.5431  0.4879
  189SLPC  C31821903   0.899   3.648   8.244 -0.3450 -0.4422  0.9142
  189SLPC  H18X21904   0.893   3.548   8.197  1.6121  1.0992 -3.0587
  189SLPC  H18Y21905   0.814   3.679   8.308  0.9204  1.2469  1.8370
  189SLPC  H18Z21906   0.997   3.654   8.297  0.7290 -0.2949 -0.9945
  190SLPC     N21907   3.744   1.997   5.938  0.0429  0.2354 -0.0564
  190SLPC   C1321908   3.717   2.002   5.795  0.4929 -0.2681 -0.0273
  190SLPC  H13A21909   3.761   2.089   5.748  3.4922 -0.7035  1.7285
  190SLPC  H13B21910   3.762   1.916   5.748  0.5546  0.5361 -1.5096
  190SLPC  H13C21911   3.613   1.996   5.769  0.6508 -0.7972 -0.5592
  190SLPC   C1421912   3.665   2.108   6.002 -0.3010  0.7613  0.0841
  190SLPC  H14A21913   3.562   2.098   5.969 -0.0925 -1.1290 -0.0994
  190SLPC  H14B21914   3.677   2.114   6.109 -0.9471  0.1349  0.1984
  190SLPC  H14C21915   3.701   2.205   5.971  0.5949  0.3009 -0.3365
  190SLPC   C1521916   3.887   2.018   5.965 -0.5240 -0.6904  0.1870
  190SLPC  H15A21917   3.941   1.931   5.928 -2.3910 -1.8128 -0.0213
  190SLPC  H15B21918   3.915   2.117   5.931  0.2165 -0.7964  0.4691
  190SLPC  H15C21919   3.903   2.024   6.071 -2.9371  2.6575  0.5225
  190SLPC   C1221920   3.704   1.868   6.007 -0.3926  0.0638 -0.0522
  190SLPC  H12A21921   3.751   1.792   5.945 -0.0737  1.4631 -1.5890
  190SLPC  H12B21922   3.602   1.834   6.001 -0.2696 -0.5884  1.1430
  190SLPC   C1121923   3.749   1.857   6.160  0.0197 -0.5174  0.0875
  190SLPC  H11A21924   3.857   1.880   6.153 -0.0064 -0.7063 -1.1179
  190SLPC  H11B21925   3.740   1.753   6.198  2.1335 -0.3186  1.2810
  190SLPC     P21926   3.520   1.918   6.284 -0.0441  0.1313  0.3952
  190SLPC   O1321927   3.429   1.968   6.173 -0.1926 -0.1948 -0.0886
  190SLPC   O1421928   3.505   1.775   6.327 -0.9548 -0.2502  0.6467
  190SLPC   O1221929   3.672   1.945   6.245  0.1853  0.4032  0.2623
  190SLPC   O1121930   3.497   1.999   6.418 -0.0838  0.6856 -0.0368
  190SLPC    C121931   3.570   2.121   6.436  0.1443  0.4230 -0.6642
  190SLPC    HA21932   3.678   2.103   6.454  0.2452 -0.7420 -2.2140
  190SLPC    HB21933   3.553   2.184   6.345 -0.0992  1.0374 -0.2052
  190SLPC    C221934   3.512   2.205   6.554  0.9742 -0.6816  0.7437
  190SLPC    HS21935   3.583   2.287   6.577  0.2870 -0.4299  2.0643
  190SLPC   O2121936   3.476   2.127   6.674 -0.4474  0.7155  0.0213
  190SLPC   C2121937   3.587   2.085   6.743  0.6150  0.0228  0.0315
  190SLPC   O2221938   3.699   2.105   6.699 -0.1330 -0.0526 -0.1812
  190SLPC   C2221939   3.553   2.020   6.880 -0.1564 -0.7887 -0.1358
  190SLPC   H2R21940   3.473   2.084   6.924  1.2611  1.0368 -0.1336
  190SLPC   H2S21941   3.514   1.917   6.861  0.1206 -0.5648 -2.0766
  190SLPC    C321942   3.383   2.272   6.502  0.2928  0.6047  0.1315
  190SLPC    HX21943   3.291   2.212   6.484  0.2114  1.3672 -2.4175
  190SLPC    HY21944   3.401   2.295   6.394  1.5422 -1.0272 -0.0449
  190SLPC   O3121945   3.361   2.403   6.570 -0.4346 -0.2516 -0.2056
  190SLPC   C3121946   3.267   2.394   6.665 -0.7412 -0.7716 -0.6088
  190SLPC   O3221947   3.195   2.300   6.690 -1.3841 -0.7873 -0.2377
  190SLPC   C3221948   3.264   2.532   6.738 -0.1264  0.0526 -0.4523
  190SLPC   H2X21949   3.218   2.606   6.669  1.9327  1.4142 -0.4456
  190SLPC   H2Y21950   3.367   2.569   6.756 -0.3700  2.4228 -3.1534
  190SLPC   C2321951   3.653   2.028   6.996 -0.2649  0.5847 -0.3407
  190SLPC   H3R21952   3.704   2.127   6.996 -0.5724  0.8753  2.9884
  190SLPC   H3S21953   3.726   1.946   6.980  0.6022  1.3424 -0.3604
  190SLPC   C2421954   3.591   2.000   7.141 -0.7439 -0.4430  0.0171
  190SLPC   H4R21955   3.508   1.926   7.135 -0.9441 -0.1833 -0.6042
  190SLPC   H4S21956   3.549   2.092   7.187 -1.2828 -1.1404  0.9446
  190SLPC   C2521957   3.694   1.940   7.237 -0.7964  0.1181  0.8349
  190SLPC   H5R21958   3.789   1.995   7.218  1.1510 -3.6532 -1.6256
  190SLPC   H5S21959   3.713   1.833   7.212  3.1955  0.5525  1.2450
  190SLPC   C2621960   3.647   1.941   7.382  0.4850 -0.3881 -0.1728
  190SLPC   H6R21961   3.542   1.908   7.393  0.1005  0.9642  0.3762
  190SLPC   H6S21962   3.627   2.046   7.412 -0.1265 -0.3824 -0.5985
  190SLPC   C2721963   3.738   1.893   7.490 -0.7088 -0.6950  0.1130
  190SLPC   H7R21964   3.823   1.963   7.503 -0.8217 -0.2306 -1.3985
  190SLPC   H7S21965   3.793   1.802   7.455 -0.6149  0.3629 -2.7404
  190SLPC   C2821966   3.671   1.852   7.625 -0.3993  0.2780 -0.0116
  190SLPC   H8R21967   3.746   1.794   7.683 -0.4666  0.4365  0.2379
  190SLPC   H8S21968   3.590   1.779   7.605 -1.0172  0.3907  1.8988
  190SLPC   C2921969   3.627   1.980   7.694 -0.7295 -1.2271  0.4368
  190SLPC   H9R21970   3.706   2.056   7.694 -0.3556 -1.5773 -1.4566
  190SLPC  C21021971   3.505   2.023   7.729  0.0007  0.9881 -0.1926
  190SLPC  H10R21972   3.495   2.117   7.785  0.7943  1.2261 -0.4278
  190SLPC  C21121973   3.384   1.939   7.698  0.3728 -0.5959 -0.3497
  190SLPC  H11R21974   3.388   1.834   7.733 -1.7542 -1.1451 -1.5953
  190SLPC  H11S21975   3.382   1.942   7.587  1.5349 -0.8935 -0.3939
  190SLPC  C21221976   3.263   2.010   7.761  0.3038  0.6197 -0.1543
  190SLPC  H12R21977   3.290   2.097   7.824  0.1134  1.7555 -1.5863
  190SLPC  C21321978   3.134   1.980   7.735 -0.6475  0.1772  0.1886
  190SLPC  H13R21979   3.058   2.039   7.788  0.0170 -1.0114  2.6144
  190SLPC  C21421980   3.100   1.864   7.642 -0.7121 -0.6343 -0.0766
  190SLPC  H14R21981   3.058   1.779   7.699  0.7074 -1.3118 -0.0149
  190SLPC  H14S21982   3.181   1.829   7.575 -1.8242  1.2183 -2.5745
  190SLPC  C21521983   2.999   1.914   7.533  0.7828 -0.0531  0.6186
  190SLPC  H15R21984   2.917   1.969   7.584  0.5135  0.7555 -0.6438
  190SLPC  H15S21985   2.954   1.828   7.478 -1.4310  1.2169  0.3208
  190SLPC  C21621986   3.057   2.001   7.422  0.2866  0.7715 -0.1583
  190SLPC  H16R21987   3.139   1.945   7.372  0.0616 -0.0014  0.3124
  190SLPC  H16S21988   3.083   2.101   7.463 -0.4586  1.1131 -0.5088
  190SLPC  C21721989   2.950   2.029   7.315  0.2736  0.2727 -0.3221
  190SLPC  H17R21990   2.864   2.081   7.363 -0.1872 -0.1028 -0.7223
  190SLPC  H17S21991   2.911   1.938   7.263  1.3824 -0.0242 -0.6562
  190SLPC  C21821992   3.003   2.123   7.206 -0.1320  0.5179 -0.1315
  190SLPC  H18R21993   2.927   2.143   7.127 -0.0758  1.2000 -0.0141
  190SLPC  H18S21994   3.085   2.072   7.151  0.2598 -1.6398  2.2685
  190SLPC  H18T21995   3.036   2.219   7.250  0.9881 -0.4042  1.1168
  190SLPC   C3321996   3.188   2.530   6.876  0.2998 -0.4002  1.2070
  190SLPC   H3X21997   3.237   2.451   6.937  2.3406 -0.0358  0.1330
  190SLPC   H3Y21998   3.080   2.510   6.861  0.2412 -2.4675  3.6946
  190SLPC   C3421999   3.193   2.663   6.955 -0.4692 -1.4281  0.3969
  190SLPC   H4X22000   3.188   2.738   6.873  0.0833 -1.6731  0.1353
  190SLPC   H4Y22001   3.292   2.674   7.005 -0.9437  1.6688  0.8446
  190SLPC   C3522002   3.089   2.681   7.062  0.1769 -0.7429  0.3362
  190SLPC   H5X22003   2.989   2.649   7.025 -0.7055  1.0905  1.0103
  190SLPC   H5Y22004   3.072   2.787   7.091 -4.3120 -0.9749 -0.8152
  190SLPC   C3622005   3.124   2.602   7.193  0.5042 -0.2956 -0.5901
  190SLPC   H6X22006   3.222   2.646   7.224  0.6408 -0.4448 -0.8141
  190SLPC   H6Y22007   3.147   2.495   7.176 -1.5329 -1.2265  1.8539
  190SLPC   C3722008   3.007   2.589   7.297  0.1955  0.8538  0.0800
  190SLPC   H7X22009   3.042   2.516   7.372 -0.9151  3.1296  2.9893
  190SLPC   H7Y22010   2.916   2.546   7.249  0.4390 -0.7717  1.0143
  190SLPC   C3822011   2.973   2.706   7.376 -0.1554  0.3596  0.2651
  190SLPC   H8X22012   2.909   2.774   7.316  1.0848 -0.5644 -2.2705
  190SLPC   H8Y22013   3.067   2.758   7.405  0.3286 -0.2214 -0.2340
  190SLPC   C3922014   2.909   2.674   7.514 -0.0115  0.2737 -0.0339
  190SLPC   H9X22015   2.833   2.594   7.504 -0.0481  0.3796 -0.6090
  190SLPC   H9Y22016   2.863   2.769   7.547 -0.7124 -0.2571  0.5560
  190SLPC  C31022017   3.003   2.640   7.635  0.1573  0.4783  0.4184
  190SLPC  H10X22018   3.024   2.727   7.701 -2.1847 -0.2090  2.2231
  190SLPC  H10Y22019   3.094   2.595   7.589 -0.8988 -2.4849  0.9528
  190SLPC  C31122020   2.941   2.530   7.727 -0.0660 -0.2863 -0.1842
  190SLPC  H11X22021   2.908   2.446   7.663 -1.0345 -0.8451  1.0079
  190SLPC  H11Y22022   2.858   2.550   7.797 -0.8338 -2.9152 -0.2427
  190SLPC  C31222023   3.050   2.455   7.808 -0.0677 -1.2959  0.0941
  190SLPC  H12X22024   3.069   2.520   7.895 -1.2643 -0.2230 -0.4133
  190SLPC  H12Y22025   3.148   2.453   7.757 -0.0451 -3.1314  0.1169
  190SLPC  C31322026   3.009   2.321   7.846 -0.6851 -0.0743  0.0548
  190SLPC  H13X22027   3.104   2.281   7.888 -0.6969  0.1907  0.3392
  190SLPC  H13Y22028   2.990   2.252   7.761  0.9069 -0.0304 -0.3674
  190SLPC  C31422029   2.889   2.318   7.939  0.0935  0.1499 -0.2397
  190SLPC  H14X22030   2.804   2.370   7.890 -0.0397 -1.8054 -2.2446
  190SLPC  H14Y22031   2.920   2.395   8.012  0.1193 -0.9141  0.9030
  190SLPC  C31522032   2.851   2.183   7.996 -0.2227  0.4698 -0.0169
  190SLPC  H15X22033   2.941   2.133   8.038  1.3139 -0.1068 -3.6174
  190SLPC  H15Y22034   2.813   2.115   7.917 -1.7823  0.8338  0.3809
  190SLPC  C31622035   2.735   2.186   8.101 -0.6564 -0.9247  0.2552
  190SLPC  H16X22036   2.721   2.085   8.145  1.0926 -0.3285  2.3929
  190SLPC  H16Y22037   2.650   2.235   8.048 -1.1924  0.3121  2.1414
  190SLPC  C31722038   2.766   2.275   8.224 -0.0474  0.3637 -0.1041
  190SLPC  H17X22039   2.807   2.374   8.196 -2.4450  1.8188  1.1977
  190SLPC  H17Y22040   2.838   2.216   8.285 -1.4382 -1.3550 -0.0324
  190SLPC  C31822041   2.642   2.295   8.314 -0.2969  0.2734 -0.4259
  190SLPC  H18X22042   2.558   2.296   8.242  0.9486 -0.5946 -1.9651
  190SLPC  H18Y22043   2.663   2.388   8.372 -0.8673  0.0370  0.1665
  190SLPC  H18Z22044   2.630   2.212   8.387 -0.8962 -0.1841 -1.0314
  191SLPC     N22045   6.109   4.667   5.968 -0.0921  0.3175 -1.4363
  191SLPC   C1322046   6.179   4.792   6.015 -0.0230  0.4946  0.6624
  191SLPC  H13A22047   6.283   4.799   5.987  0.0031 -0.1421  0.5950
  191SLPC  H13B22048   6.125   4.876   5.973 -2.7234 -0.4168  2.0814
  191SLPC  H13C22049   6.173   4.808   6.121  0.4484  1.3988  0.5563
  191SLPC   C1422050   6.142   4.553   6.064 -0.0128  0.2935 -0.0408
  191SLPC  H14A22051   6.073   4.472   6.045 -0.1099  0.7163 -1.5776
  191SLPC  H14B22052   6.243   4.520   6.048 -0.4088 -1.9227  1.5311
  191SLPC  H14C22053   6.127   4.586   6.166 -1.9168 -1.1881  0.2209
  191SLPC   C1522054   6.156   4.624   5.833  1.2321 -0.1108  0.4018
  191SLPC  H15A22055   6.125   4.528   5.795  2.5656  0.3565 -2.0842
  191SLPC  H15B22056   6.129   4.706   5.768  1.4937  0.3392  0.8595
  191SLPC  H15C22057   6.264   4.616   5.833  1.1440 -1.9943 -0.7094
  191SLPC   C1222058   5.962   4.691   5.963 -0.0594 -0.3022 -0.4743
  191SLPC  H12A22059   5.941   4.786   5.915 -1.4034 -0.6341 -0.5723
  191SLPC  H12B22060   5.922   4.702   6.063  0.1584  1.1764 -0.5155
  191SLPC   C1122061   5.882   4.579   5.901  0.0945 -0.0280 -0.2553
  191SLPC  H11A22062   5.936   4.483   5.914  1.9360  0.8766 -0.7878
  191SLPC  H11B22063   5.870   4.603   5.794 -0.7658 -0.4079 -0.2477
  191SLPC     P22064   5.639   4.496   5.948 -0.1700  0.0654  0.0948
  191SLPC   O1322065   5.554   4.539   5.832 -0.3776 -0.3875 -0.0416
  191SLPC   O1422066   5.682   4.357   5.945  0.1019  0.4834 -0.4302
  191SLPC   O1222067   5.756   4.600   5.965 -0.6455  0.0231  0.6955
  191SLPC   O1122068   5.551   4.517   6.082 -0.0378  0.6793  0.5866
  191SLPC    C122069   5.593   4.487   6.212 -0.0401 -0.0832 -0.1903
  191SLPC    HA22070   5.502   4.475   6.274  0.9335 -1.8814  0.9760
  191SLPC    HB22071   5.642   4.389   6.227 -0.7407 -0.4726 -0.4295
  191SLPC    C222072   5.694   4.596   6.269  0.5174  0.8479 -0.4193
  191SLPC    HS22073   5.792   4.602   6.217 -0.1094  0.5507 -1.7024
  191SLPC   O2122074   5.709   4.567   6.410 -0.1273  0.1494 -0.8018
  191SLPC   C2122075   5.814   4.622   6.466  0.4484  0.0947 -0.0734
  191SLPC   O2222076   5.901   4.683   6.406 -0.1828  0.2154 -0.0766
  191SLPC   C2222077   5.800   4.608   6.624  0.6800  0.1983  0.3632
  191SLPC   H2R22078   5.698   4.637   6.659  0.9086  0.6834  0.6356
  191SLPC   H2S22079   5.806   4.499   6.644 -2.8891  0.2730  2.8341
  191SLPC    C322080   5.622   4.733   6.251 -0.0911  0.1910  0.1977
  191SLPC    HX22081   5.518   4.720   6.290  0.8221 -1.8502  2.2280
  191SLPC    HY22082   5.611   4.753   6.143 -0.5095  1.8065  0.5047
  191SLPC   O3122083   5.681   4.849   6.318  0.4502  0.0418 -0.2272
  191SLPC   C3122084   5.777   4.917   6.252 -0.2132 -0.4806  0.1012
  191SLPC   O3222085   5.833   4.880   6.149 -0.5473  0.8006  0.1118
  191SLPC   C3222086   5.813   5.045   6.326  0.1751  0.1618 -0.7781
  191SLPC   H2X22087   5.724   5.110   6.334 -0.8561 -1.3691  0.5814
  191SLPC   H2Y22088   5.896   5.102   6.276  1.0689  1.1613  1.7008
  191SLPC   C2322089   5.883   4.695   6.709 -0.0662  0.1884 -0.3307
  191SLPC   H3R22090   5.882   4.804   6.688  2.7038  0.6777  1.5341
  191SLPC   H3S22091   5.989   4.681   6.678 -0.3888  2.6117 -2.9628
  191SLPC   C2422092   5.870   4.682   6.864  0.8033 -0.6785  0.5853
  191SLPC   H4R22093   5.884   4.578   6.902  3.2880  0.0228  1.7909
  191SLPC   H4S22094   5.770   4.721   6.892  1.1276 -0.1028  0.9632
  191SLPC   C2522095   5.976   4.764   6.940 -0.0285 -0.0119  0.6497
  191SLPC   H5R22096   5.979   4.872   6.915 -1.0943  0.6708  3.1147
  191SLPC   H5S22097   6.070   4.711   6.912 -0.2213 -1.1623  2.0695
  191SLPC   C2622098   5.948   4.759   7.094  0.0247  0.7660  0.5907
  191SLPC   H6R22099   5.911   4.660   7.127 -0.9463  0.5968 -0.8692
  191SLPC   H6S22100   5.862   4.826   7.116 -1.1696 -0.9953  1.5697
  191SLPC   C2722101   6.067   4.800   7.191  0.2266  0.8427 -0.1212
  191SLPC   H7R22102   6.115   4.887   7.140 -0.5351  0.0740 -2.2916
  191SLPC   H7S22103   6.137   4.714   7.190 -0.3594  0.3588 -0.6204
  191SLPC   C2822104   6.026   4.852   7.329 -0.2721 -0.0894  0.0179
  191SLPC   H8R22105   5.959   4.776   7.375  0.6130  1.1218  3.6801
  191SLPC   H8S22106   5.956   4.938   7.333 -0.3163 -0.1439  0.5790
  191SLPC   C2922107   6.154   4.867   7.407 -0.2868  0.2107  0.5798
  191SLPC   H9R22108   6.235   4.922   7.358  0.5256  0.9794  2.6798
  191SLPC  C21022109   6.192   4.815   7.525  0.0933 -0.0627  0.0420
  191SLPC  H10R22110   6.294   4.820   7.566  0.5261  0.2201 -1.0339
  191SLPC  C21122111   6.117   4.717   7.616  0.5591  0.4937  0.4338
  191SLPC  H11R22112   6.185   4.638   7.655 -0.2862  0.0369  1.0165
  191SLPC  H11S22113   6.049   4.648   7.562  3.0068 -0.8716 -1.1137
  191SLPC  C21222114   6.066   4.782   7.739 -0.6361 -0.5267  0.0665
  191SLPC  H12R22115   5.962   4.815   7.728 -0.1092  0.6996 -1.4046
  191SLPC  C21322116   6.141   4.811   7.850 -0.1509 -0.1714  0.3872
  191SLPC  H13R22117   6.098   4.868   7.934 -0.0057  0.8177 -0.1890
  191SLPC  C21422118   6.291   4.767   7.875  0.2547 -0.7647 -0.1864
  191SLPC  H14R22119   6.347   4.819   7.795 -0.6230  0.7901  0.1610
  191SLPC  H14S22120   6.304   4.657   7.869  4.7359 -0.4088  0.1757
  191SLPC  C21522121   6.360   4.816   8.000 -0.2239 -0.2261 -0.5758
  191SLPC  H15R22122   6.357   4.927   7.988  0.3951 -0.1785 -0.3719
  191SLPC  H15S22123   6.468   4.790   7.997 -0.4293 -2.0169  2.6616
  191SLPC  C21622124   6.290   4.777   8.139 -0.0377 -0.8345  0.2624
  191SLPC  H16R22125   6.261   4.671   8.127  2.0979 -1.3696 -0.6312
  191SLPC  H16S22126   6.188   4.820   8.136 -0.3685 -1.5403  1.0129
  191SLPC  C21722127   6.366   4.812   8.271 -0.2992 -0.0688 -0.2755
  191SLPC  H17R22128   6.460   4.754   8.274  1.1779  2.1971 -0.2858
  191SLPC  H17S22129   6.299   4.777   8.353 -0.4868 -0.1462 -0.4614
  191SLPC  C21822130   6.395   4.956   8.292 -0.2472 -0.5825 -0.6347
  191SLPC  H18R22131   6.303   5.018   8.287  0.7420  0.8966 -1.1320
  191SLPC  H18S22132   6.465   4.991   8.214  1.3891  1.5853  1.6266
  191SLPC  H18T22133   6.447   4.965   8.390  2.8357  2.8973 -2.3541
  191SLPC   C3322134   5.877   5.022   6.472  0.1264  0.2119  0.4803
  191SLPC   H3X22135   5.976   4.977   6.449 -1.2146 -2.3766 -0.6758
  191SLPC   H3Y22136   5.815   4.948   6.527  0.8123 -0.0255  0.9462
  191SLPC   C3422137   5.875   5.151   6.557 -0.5728  0.9118  0.0464
  191SLPC   H4X22138   5.782   5.207   6.533 -0.8375  1.1074  1.4119
  191SLPC   H4Y22139   5.963   5.207   6.521 -0.8990  1.8057  0.5945
  191SLPC   C3522140   5.866   5.132   6.708  0.1140  0.9324  0.4242
  191SLPC   H5X22141   5.899   5.226   6.758  2.0803  0.1068  0.7722
  191SLPC   H5Y22142   5.940   5.053   6.733 -1.6883 -0.9188  0.1443
  191SLPC   C3622143   5.731   5.095   6.762  0.2778  0.5136  0.2258
  191SLPC   H6X22144   5.710   4.988   6.740 -0.1116  0.1276  2.2119
  191SLPC   H6Y22145   5.655   5.161   6.714  1.2842  1.2397 -0.3939
  191SLPC   C3722146   5.723   5.115   6.917  0.2600 -0.0367 -0.1765
  191SLPC   H7X22147   5.764   5.214   6.943  2.5873 -1.3472  1.5981
  191SLPC   H7Y22148   5.795   5.038   6.954 -0.6278 -1.7256 -1.8135
  191SLPC   C3822149   5.586   5.098   6.978 -0.2670  0.6452  0.5595
  191SLPC   H8X22150   5.553   4.993   6.967  1.7438 -0.0641  0.9078
  191SLPC   H8Y22151   5.520   5.168   6.924  0.2284  0.3999 -0.3918
  191SLPC   C3922152   5.579   5.129   7.133  0.3222  0.4595  0.4052
  191SLPC   H9X22153   5.607   5.235   7.152 -0.6664  1.0475 -1.1569
  191SLPC   H9Y22154   5.658   5.066   7.178  1.1334  2.0860  1.3442
  191SLPC  C31022155   5.429   5.107   7.175 -0.1598  0.4013 -0.6426
  191SLPC  H10X22156   5.398   5.014   7.123 -0.0667  0.6339 -1.1157
  191SLPC  H10Y22157   5.400   5.209   7.145  0.5847  0.9248  0.3443
  191SLPC  C31122158   5.428   5.085   7.326  0.3883  0.2779  0.1199
  191SLPC  H11X22159   5.523   5.053   7.374  2.1726 -0.5755 -3.6297
  191SLPC  H11Y22160   5.364   4.995   7.341  1.1665  0.0811  2.7277
  191SLPC  C31222161   5.370   5.200   7.406  0.1271 -0.0095 -0.1190
  191SLPC  H12X22162   5.262   5.215   7.383 -0.2939 -0.1965  1.6026
  191SLPC  H12Y22163   5.422   5.289   7.366 -0.9380  0.1135 -1.2991
  191SLPC  C31322164   5.396   5.179   7.556 -0.8811 -0.4263  0.2156
  191SLPC  H13X22165   5.503   5.195   7.582 -1.3319  0.1279  1.8535
  191SLPC  H13Y22166   5.364   5.074   7.574 -2.5130 -0.1438 -0.8429
  191SLPC  C31422167   5.313   5.255   7.658  0.2127 -0.0575  0.4180
  191SLPC  H14X22168   5.212   5.274   7.616  0.3664  2.4340  1.0296
  191SLPC  H14Y22169   5.349   5.359   7.671 -0.4506  0.2995 -0.5104
  191SLPC  C31522170   5.308   5.178   7.798  0.0875 -0.0633  0.0537
  191SLPC  H15X22171   5.410   5.136   7.813  0.1413 -1.1928 -2.7844
  191SLPC  H15Y22172   5.246   5.087   7.781  0.7399 -0.2020 -1.8224
  191SLPC  C31622173   5.262   5.266   7.912 -0.1046  0.8048 -0.5753
  191SLPC  H16X22174   5.196   5.224   7.991  0.0293 -0.3265 -1.0517
  191SLPC  H16Y22175   5.201   5.350   7.871  0.8199  0.7215 -2.1716
  191SLPC  C31722176   5.380   5.323   7.981 -0.3507 -0.8220 -1.1847
  191SLPC  H17X22177   5.440   5.385   7.910 -0.1936  0.1075 -0.2732
  191SLPC  H17Y22178   5.450   5.242   8.010  0.3636  0.3012  0.3681
  191SLPC  C31822179   5.339   5.403   8.099 -0.5525  0.1656  0.4980
  191SLPC  H18X22180   5.272   5.484   8.065 -0.4650 -0.5911 -1.6717
  191SLPC  H18Y22181   5.424   5.440   8.159  1.7894 -1.7463 -1.4221
  191SLPC  H18Z22182   5.276   5.340   8.166 -2.0097  0.9191 -0.1176
  192SLPC     N22183   1.517   5.811   6.471 -0.1782 -0.3635 -0.1728
  192SLPC   C1322184   1.420   5.819   6.584 -0.5825  0.1644  0.4156
  192SLPC  H13A22185   1.444   5.903   6.647  0.8899  0.3419 -0.3311
  192SLPC  H13B22186   1.323   5.844   6.543  0.4156  1.2297 -1.4212
  192SLPC  H13C22187   1.417   5.726   6.638  2.3453  1.3425  2.8945
  192SLPC   C1422188   1.655   5.812   6.526  0.1372 -0.3565  0.0382
  192SLPC  H14A22189   1.658   5.898   6.591  0.6463 -1.3360  1.3808
  192SLPC  H14B22190   1.662   5.724   6.588  1.6615 -1.6080 -1.7942
  192SLPC  H14C22191   1.729   5.818   6.448  0.0477 -0.0375 -0.0232
  192SLPC   C1522192   1.515   5.926   6.375 -0.1867  0.1691  0.0255
  192SLPC  H15A22193   1.440   5.906   6.299  0.6740 -0.1386 -0.7567
  192SLPC  H15B22194   1.494   6.019   6.426  0.3790 -0.1865  0.9226
  192SLPC  H15C22195   1.608   5.922   6.321 -0.3050 -0.2648 -0.1515
  192SLPC   C1222196   1.495   5.681   6.397 -0.3311 -0.2153 -0.2103
  192SLPC  H12A22197   1.523   5.602   6.466 -3.3110 -1.4669 -0.2869
  192SLPC  H12B22198   1.556   5.673   6.308 -1.1091  0.9146 -0.8517
  192SLPC   C1122199   1.356   5.648   6.338  0.1171 -0.4370 -0.3644
  192SLPC  H11A22200   1.374   5.550   6.289  2.3717 -0.0393 -0.4384
  192SLPC  H11B22201   1.332   5.721   6.257 -1.3920 -0.8446 -0.3113
  192SLPC     P22202   1.214   5.527   6.532  0.0272 -0.3129 -0.7227
  192SLPC   O1322203   1.080   5.557   6.597 -0.2480  0.8121 -0.0879
  192SLPC   O1422204   1.215   5.400   6.456 -0.2931 -0.1395  0.3830
  192SLPC   O1222205   1.252   5.650   6.440  0.8087  0.1322  0.0689
  192SLPC   O1122206   1.328   5.529   6.643 -0.1486  0.5868  0.4233
  192SLPC    C122207   1.422   5.420   6.657  0.9445  0.0970  0.4910
  192SLPC    HA22208   1.446   5.378   6.557  0.5629  1.2141 -0.0965
  192SLPC    HB22209   1.518   5.450   6.704  2.3974 -0.3274 -2.0241
  192SLPC    C222210   1.357   5.306   6.741  0.5334 -0.5141  0.7022
  192SLPC    HS22211   1.281   5.255   6.678  1.1434  1.4545 -1.8081
  192SLPC   O2122212   1.303   5.362   6.864  0.2899  0.5796  0.1500
  192SLPC   C2122213   1.199   5.312   6.916 -0.0759 -0.1470 -0.5689
  192SLPC   O2222214   1.143   5.203   6.896 -0.0199  0.2818  0.6895
  192SLPC   C2222215   1.164   5.396   7.041 -0.9209  0.1105  0.2406
  192SLPC   H2R22216   1.213   5.345   7.126  0.6348  1.8959  0.4728
  192SLPC   H2S22217   1.212   5.496   7.038 -1.8105  0.5550  0.6273
  192SLPC    C322218   1.473   5.208   6.774  0.1180 -0.4318  0.1973
  192SLPC    HX22219   1.552   5.272   6.819 -1.3525  2.1010 -0.6174
  192SLPC    HY22220   1.529   5.160   6.691  1.0988  0.3222  0.4013
  192SLPC   O3122221   1.429   5.109   6.873  0.7263 -0.2388  0.5000
  192SLPC   C3122222   1.408   4.989   6.823  0.1483  0.2993  0.2719
  192SLPC   O3222223   1.384   4.967   6.704  0.0259 -0.4664  0.0443
  192SLPC   C3222224   1.392   4.879   6.930 -0.2259 -1.0310 -0.0934
  192SLPC   H2X22225   1.472   4.806   6.905  0.3591  0.1839 -1.9157
  192SLPC   H2Y22226   1.296   4.828   6.904 -0.5078  0.3346 -1.8888
  192SLPC   C2322227   1.014   5.409   7.075 -0.3399 -0.3814  0.3164
  192SLPC   H3R22228   0.952   5.409   6.983 -0.0170  1.1998  0.0582
  192SLPC   H3S22229   0.994   5.504   7.130 -1.1230  0.4673 -1.3562
  192SLPC   C2422230   0.958   5.303   7.170 -0.0230  0.0436 -0.3654
  192SLPC   H4R22231   1.026   5.309   7.257 -1.7474 -0.4578  1.0739
  192SLPC   H4S22232   0.946   5.201   7.128 -2.3136 -0.5239  1.4691
  192SLPC   C2522233   0.810   5.333   7.215  0.2353  0.1363 -0.5993
  192SLPC   H5R22234   0.753   5.349   7.121  0.9537  1.2259 -0.8732
  192SLPC   H5S22235   0.802   5.424   7.278  0.0510 -0.5560  0.3999
  192SLPC   C2622236   0.759   5.210   7.295  0.1616 -0.2572  0.3320
  192SLPC   H6R22237   0.816   5.212   7.391  0.1492  1.3670  0.3278
  192SLPC   H6S22238   0.782   5.118   7.238 -1.0061 -0.7593  0.6331
  192SLPC   C2722239   0.604   5.209   7.325  0.1980 -0.6468 -0.5563
  192SLPC   H7R22240   0.563   5.110   7.299  0.7069 -0.8060 -0.7718
  192SLPC   H7S22241   0.566   5.269   7.239 -0.1447 -0.3534 -0.2044
  192SLPC   C2822242   0.581   5.253   7.469 -0.9250  0.3674 -0.7419
  192SLPC   H8R22243   0.472   5.267   7.484 -0.9480 -1.5055  1.2070
  192SLPC   H8S22244   0.637   5.347   7.490 -0.6970 -0.4251  2.9122
  192SLPC   C2922245   0.623   5.145   7.569  0.1385 -0.4965 -0.5138
  192SLPC   H9R22246   0.580   5.045   7.555 -0.7617  0.0524 -1.9522
  192SLPC  C21022247   0.725   5.149   7.656 -0.7387 -0.5077 -0.2363
  192SLPC  H10R22248   0.763   5.054   7.697  2.1206 -0.0270 -1.5079
  192SLPC  C21122249   0.816   5.266   7.687 -0.2403  0.2007 -0.3941
  192SLPC  H11R22250   0.793   5.296   7.791 -1.7334 -1.6414 -0.1362
  192SLPC  H11S22251   0.774   5.352   7.631  1.0664  0.9060 -0.3146
  192SLPC  C21222252   0.962   5.242   7.667  0.0852  0.3231  0.6991
  192SLPC  H12R22253   0.994   5.177   7.585  3.9950  2.0968  0.6039
  192SLPC  C21322254   1.058   5.303   7.744 -0.1634  0.1344  0.0216
  192SLPC  H13R22255   1.164   5.289   7.716 -0.4120 -0.2938 -0.7322
  192SLPC  C21422256   1.037   5.388   7.868 -0.2144  0.6381 -0.3759
  192SLPC  H14R22257   0.928   5.395   7.891  0.0362  1.4165  0.6659
  192SLPC  H14S22258   1.061   5.496   7.857 -0.1496  0.5198 -1.5810
  192SLPC  C21522259   1.113   5.319   7.983 -0.3288  0.3589  0.6478
  192SLPC  H15R22260   1.222   5.329   7.963 -0.5579  1.7494 -0.0654
  192SLPC  H15S22261   1.082   5.213   7.981  1.3989 -0.2090  1.5556
  192SLPC  C21622262   1.084   5.377   8.118  0.0592  0.3733  0.1351
  192SLPC  H16R22263   0.975   5.363   8.130  0.1723 -0.2190  0.5366
  192SLPC  H16S22264   1.100   5.485   8.134  1.5896  0.1009  0.6424
  192SLPC  C21722265   1.163   5.306   8.229 -0.4911 -0.3089  0.1971
  192SLPC  H17R22266   1.194   5.205   8.192  0.1532  0.4015 -1.2815
  192SLPC  H17S22267   1.253   5.366   8.253 -0.9529  1.5713 -2.3830
  192SLPC  C21822268   1.083   5.296   8.364  0.0611 -0.2620  0.4055
  192SLPC  H18R22269   1.132   5.220   8.428  2.5547 -0.1068 -1.1740
  192SLPC  H18S22270   0.981   5.261   8.341  0.8309 -2.5135  0.1225
  192SLPC  H18T22271   1.085   5.399   8.407  2.3958 -0.3085  0.5834
  192SLPC   C3322272   1.403   4.932   7.077 -0.5292 -0.5261 -0.8360
  192SLPC   H3X22273   1.367   4.857   7.150 -2.1088 -0.0761 -1.1240
  192SLPC   H3Y22274   1.342   5.022   7.101 -0.2909 -0.2730 -1.1509
  192SLPC   C3422275   1.548   4.960   7.109  0.1743  0.0845 -0.8553
  192SLPC   H4X22276   1.580   5.040   7.039 -0.3183  1.0706  0.0114
  192SLPC   H4Y22277   1.604   4.866   7.093 -2.0352 -1.6430  0.8393
  192SLPC   C3522278   1.579   4.993   7.251 -0.0040  0.0436  0.0970
  192SLPC   H5X22279   1.539   4.907   7.309 -0.5807  0.6035  0.5487
  192SLPC   H5Y22280   1.522   5.086   7.274 -0.5446 -0.2921  0.1479
  192SLPC   C3622281   1.733   5.023   7.269 -0.5151 -0.1346  0.7057
  192SLPC   H6X22282   1.774   5.097   7.197  1.3948  0.7920  2.6565
  192SLPC   H6Y22283   1.776   4.924   7.240 -2.0941 -1.0111  1.2135
  192SLPC   C3722284   1.772   5.063   7.413 -0.1692  0.1177 -0.7545
  192SLPC   H7X22285   1.750   4.985   7.489  2.1937 -0.2559 -0.3744
  192SLPC   H7Y22286   1.716   5.157   7.430  2.3104  1.4422  0.7660
  192SLPC   C3822287   1.917   5.102   7.422  0.6937 -0.3357 -0.1080
  192SLPC   H8X22288   1.943   5.170   7.338  1.0047  1.1557  1.1511
  192SLPC   H8Y22289   1.976   5.008   7.409  0.6525 -0.4720  0.6543
  192SLPC   C3922290   1.967   5.168   7.553  0.2023 -0.0716 -0.9371
  192SLPC   H9X22291   1.964   5.084   7.626 -1.5383  0.1002 -0.7631
  192SLPC   H9Y22292   1.897   5.243   7.596  0.6349 -0.2942  0.2076
  192SLPC  C31022293   2.105   5.242   7.549  0.1703 -0.4743 -0.2483
  192SLPC  H10X22294   2.124   5.284   7.650  0.4190 -0.7606 -0.1736
  192SLPC  H10Y22295   2.103   5.323   7.473  1.5375  0.7597  0.9808
  192SLPC  C31122296   2.223   5.159   7.500  0.8967  0.1106  0.4361
  192SLPC  H11X22297   2.300   5.239   7.492 -1.3362  2.2266 -1.7074
  192SLPC  H11Y22298   2.203   5.110   7.402 -1.6363 -1.3955  1.6113
  192SLPC  C31222299   2.268   5.042   7.592 -0.1298  0.2937  0.0184
  192SLPC  H12X22300   2.327   4.966   7.537  0.2509  1.4171 -1.1474
  192SLPC  H12Y22301   2.181   4.982   7.629  0.3466 -0.6433 -0.3439
  192SLPC  C31322302   2.346   5.098   7.707  0.6158  0.0662  0.4507
  192SLPC  H13X22303   2.282   5.173   7.757  0.2823  1.0335 -1.3473
  192SLPC  H13Y22304   2.439   5.151   7.675 -1.5032  2.2460 -2.7667
  192SLPC  C31422305   2.386   4.988   7.814  0.2840 -0.1781  0.4306
  192SLPC  H14X22306   2.445   4.907   7.766  0.4931  0.0963  0.2224
  192SLPC  H14Y22307   2.287   4.944   7.837 -0.9549  1.8729 -0.7465
  192SLPC  C31522308   2.451   5.054   7.943 -0.5824  0.4362 -0.3525
  192SLPC  H15X22309   2.386   5.141   7.965 -1.4221 -0.0289 -0.9651
  192SLPC  H15Y22310   2.551   5.095   7.919 -0.1553 -1.3647 -1.8625
  192SLPC  C31622311   2.461   4.967   8.069  0.7709 -0.0844 -0.5879
  192SLPC  H16X22312   2.541   5.010   8.132  0.2060 -0.2144  0.2287
  192SLPC  H16Y22313   2.505   4.867   8.045  1.9744 -0.5148  2.8732
  192SLPC  C31722314   2.330   4.943   8.137  0.5656  0.1169 -0.0409
  192SLPC  H17X22315   2.263   4.886   8.070 -1.6671 -1.9392  3.5929
  192SLPC  H17Y22316   2.279   5.040   8.149  0.8789  0.6448 -2.3950
  192SLPC  C31822317   2.332   4.868   8.275  0.1374  0.4203 -0.2450
  192SLPC  H18X22318   2.377   4.937   8.349 -3.3557  1.5080  1.0780
  192SLPC  H18Y22319   2.381   4.769   8.267 -0.3901  0.1395 -0.0544
  192SLPC  H18Z22320   2.236   4.854   8.329  0.0828  3.5973  0.6605
  193SOD    SOD22321   0.054   2.616   3.841  0.1761 -0.3046  0.2684
  194SOD    SOD22322   4.307   1.724   3.694  0.1652  0.0945  0.5809
  195SOD    SOD22323   4.353   4.408  14.979 -0.1349 -0.6616  0.9272
  196SOD    SOD22324   3.790   1.550   0.420  0.2960 -0.2984  0.1564
  197SOD    SOD22325   1.358   3.009  10.915 -0.1469  0.3180 -0.0473
  198SOD    SOD22326   0.731   3.819   4.670 -0.3577  0.6037  0.1926
  199SOD    SOD22327   5.002   5.392   5.881  0.1317  0.2522 -0.2498
  200SOD    SOD22328   5.626   1.598   0.140  0.1111 -0.0531 -0.3028
  201SOD    SOD22329   0.687   0.018   0.446  0.2330  0.0115 -0.2169
  202SOD    SOD22330   3.682   4.070  13.084 -0.3919 -0.3177 -0.1360
  203SOD    SOD22331   4.014   4.406  12.812 -0.5765  0.4798 -0.2729
  204SOD    SOD22332   5.295   5.658   3.175 -0.3995 -0.0998 -0.2029
  205SOD    SOD22333   4.222   3.381   2.717 -0.0107  0.4084  0.0602
  206SOD    SOD22334   5.491   2.522  11.408 -0.2160  0.2741 -0.4163
  207SOD    SOD22335   2.826   3.391  14.870  0.2695  0.1252  0.0497
  208SOD    SOD22336   1.369   3.579  12.236  0.3206 -0.0434  0.1455
  209SOD    SOD22337   6.468   3.432  12.804  0.1715  0.3449 -0.2295
  210SOD    SOD22338   6.116   6.471  15.166  0.1073 -0.1871 -0.1241
  211SOD    SOD22339   0.649   1.737   5.539 -0.0927 -0.1449  0.2481
  212SOD    SOD22340   1.367   1.477   6.367  0.0422 -0.1647 -0.3657
  213SOD    SOD22341   1.136   5.127   6.208 -0.2517 -0.1688 -0.1560
  214SOD    SOD22342   2.340   5.701   0.554  0.3964 -0.4338  0.1855
  215SOD    SOD22343   3.453   1.676  10.652 -0.3951 -0.0328 -0.5308
  216SOD    SOD22344   6.162   3.585   1.622 -0.2616  0.3640  0.0372
  217SOD    SOD22345   1.605   0.880   4.748  0.5188  0.3063 -0.2444
  218SOD    SOD22346   6.081   3.757  14.792  0.4490  0.6292  0.5169
  219SOD    SOD22347   1.544   0.267  11.315 -0.2789  0.5448  0.4393
  220SOD    SOD22348   1.079   5.422   1.594  0.0438 -0.3723  0.4468
  221SOD    SOD22349   5.917   4.641   2.782  0.6115  0.1254  0.1614
  222SOD    SOD22350   6.797   0.999  14.794  0.1214 -0.7060 -0.1760
  223SOD    SOD22351   3.833   3.275   1.519 -0.9010 -0.0390  0.2719
  224SOD    SOD22352   0.309   4.993  10.972 -0.2481 -0.1358  0.1135
  225SOD    SOD22353   1.755   1.558  12.038 -0.0156 -0.4830 -0.1923
  226SOD    SOD22354   3.484   1.731  12.113  0.3986  0.4255  0.4077
  227SOD    SOD22355   0.335   1.316  14.450 -0.3551  0.0520 -0.0120
  228SOD    SOD22356   4.116   4.898  12.132  0.4664  0.1052 -0.0800
  229SOD    SOD22357   4.581   6.048   3.774 -0.1495 -0.2661  0.6859
  230SOD    SOD22358   4.653   2.354  12.479 -0.2550 -0.0879  0.4247
  231SOD    SOD22359   5.745   0.990  13.992  0.3514  0.1873  0.0512
  232SOD    SOD22360   1.611   2.082  16.061 -0.1647 -0.1195 -0.0139
  233SOD    SOD22361   0.335   3.044  15.590 -0.3553 -0.1056  0.0248
  234SOD    SOD22362   1.345   2.741  14.277 -0.9942  0.2332  0.1149
  235SOD    SOD22363   3.502   0.645   5.438 -0.0962  0.1184 -0.3662
  236SOD    SOD22364   0.567   2.467  11.790  0.1408  0.1988  0.1027
  237SOD    SOD22365   6.705   2.008   3.280  0.6161 -0.5114 -0.1804
  238SOD    SOD22366   3.581   6.767  12.164  0.0708  0.2538 -0.2416
  239SOD    SOD22367   4.942   3.164  10.579 -0.3501  0.1921  0.0864
  240SOD    SOD22368   0.818   5.308  13.300  0.4052 -0.3144  0.0467
  241SOD    SOD22369   4.883   5.458  14.368 -0.2608 -0.0147  0.0230
  242SOD    SOD22370   3.413   0.691  12.453  0.3268 -0.5048 -0.4449
  243SOD    SOD22371   1.339   1.551  15.127  0.1800 -0.2886 -0.0361
  244SOD    SOD22372   6.380   4.723   1.973  0.5249  0.8647  0.2623
  245SOD    SOD22373   6.192   2.596   5.139 -0.1205  0.6591  0.8082
  246SOD    SOD22374   2.547   1.982  15.080 -0.4813  0.2055 -0.1952
  247SOD    SOD22375   2.482   1.442  13.904 -0.4657  0.1798  0.1723
  248SOD    SOD22376   5.586   5.317   4.589  0.3945  0.0334  0.4334
  249SOD    SOD22377   1.105   6.376  14.512  0.4953 -0.0850  0.0260
  250SOD    SOD22378   3.427   3.742   2.101 -0.0739 -0.2936 -0.4501
  251SOD    SOD22379   5.928   1.090   4.822 -0.3681 -0.2038 -0.0514
  252SOD    SOD22380   1.887   6.371  15.832 -0.4437  0.4325  0.1199
  253SOD    SOD22381   1.003   1.874   2.051  0.2258 -0.4302 -0.0078
  254SOD    SOD22382   0.494   3.503  11.185  0.1802 -0.8795  0.0665
  255SOD    SOD22383   5.395   0.097  12.417 -0.0840 -0.1984 -0.0715
  256SOD    SOD22384   5.324   4.592  10.782 -0.1364 -0.3517 -0.4289
  257SOD    SOD22385   2.161   1.355   5.510 -0.1610 -0.4505  0.3673
  258SOD    SOD22386   3.055   1.370   0.890  0.6799  0.1636  0.0225
  259SOD    SOD22387   0.899   0.461   4.052  0.0454 -0.1117  0.1628
  260SOD    SOD22388   2.328   4.591   1.912  0.9435 -0.3158  0.3278
  261SOD    SOD22389   0.566   2.168  16.164 -0.0861  0.0208  0.2938
  262SOD    SOD22390   4.121   0.265   5.050  0.6438 -0.3996  0.4651
  263SOD    SOD22391   1.287   3.604   1.599  0.9008  0.3257  0.4294
  264SOD    SOD22392   1.589   5.610  10.911  0.3085  0.3595 -0.2133
  265SOD    SOD22393   0.164   5.139   4.935 -0.0102  0.4476  0.3984
  266CLA    CLA22394   2.330   2.013  13.820  0.1354  0.3955 -0.2866
  267CLA    CLA22395   4.591   3.539   4.358 -0.4163  0.1664  0.4052
  268CLA    CLA22396   3.111   4.303  12.890  0.3149 -0.1099  0.1972
  269CLA    CLA22397   5.944   1.241  13.620  0.2284 -0.6289  0.3548
  270CLA    CLA22398   6.464   2.706  16.659 -0.1572 -0.2430  0.1982
  271CLA    CLA22399   0.921   2.261  15.636  0.0057 -0.2007  0.2323
  272CLA    CLA22400   4.035   3.969   2.522 -0.1381  0.0938  0.2976
  273CLA    CLA22401   2.049   6.062   0.759 -0.3577  0.3176  0.1940
  274CLA    CLA22402   5.953   6.657  16.085  0.6170 -0.2441 -0.0183
  275CLA    CLA22403   0.528   5.882  16.383  0.2395  0.1099 -0.6979
  276CLA    CLA22404   2.606   3.553  14.831  0.3869  0.3499  0.3052
  277CLA    CLA22405   4.640   5.268   2.137  0.0427 -0.1715  0.1173
  278CLA    CLA22406   5.705   2.996   3.732 -0.1221  0.1951  0.2050
  279CLA    CLA22407   3.841   6.700   0.782  0.2501 -0.0881  0.2853
  280CLA    CLA22408   1.858   4.757  15.145  0.2667  0.5105  0.0600
  281CLA    CLA22409   6.231   0.867  16.765 -0.3376 -0.1435 -0.1440
  282CLA    CLA22410   0.735   5.840  12.401 -0.3317  0.0215 -0.1710
  283CLA    CLA22411   3.686   2.152   4.561  0.3188  0.7401 -0.2972
  284CLA    CLA22412   4.743   3.089   0.514 -0.2765 -0.1068  0.3024
  285CLA    CLA22413   1.881   5.740  13.448 -0.0102 -0.2109  0.3379
  286CLA    CLA22414   0.402   2.346  11.322  0.1292 -0.1871 -0.0562
  287CLA    CLA22415   5.638   6.084   3.039 -0.5690 -0.5610 -0.0807
  288CLA    CLA22416   0.382   0.243  15.237 -0.0939  0.3351  0.7044
  289CLA    CLA22417   3.862   4.221  12.942 -0.3724  0.5336 -0.2305
  290CLA    CLA22418   5.653   4.061  12.012  0.3286  0.0174 -0.4442
  291CLA    CLA22419   6.017   4.575   5.216 -0.0569 -0.1755  0.2307
  292CLA    CLA22420   1.727   3.839   1.160 -0.0614 -0.0613 -0.1147
  293CLA    CLA22421   2.841   1.779  14.332 -0.4932 -0.2595 -0.2113
  294CLA    CLA22422   2.988   6.292   3.632  0.0033  0.2868 -0.6934
  295CLA    CLA22423   5.844   0.363   0.472 -0.1406 -0.2190 -0.2935
  296CLA    CLA22424   3.223   5.486   4.570  0.2130 -0.3552 -0.3191
  297CLA    CLA22425   5.183   4.230  13.975  0.2994 -0.0560 -0.0394
  298CLA    CLA22426   5.816   6.831   3.049 -0.4142  0.3073 -0.0430
  299CLA    CLA22427   0.796   0.946  13.667  0.0929 -0.1801 -0.4186
  300CLA    CLA22428   5.577   5.627  13.545 -0.4304  0.0240 -0.5110
  301CLA    CLA22429   1.242   0.605  14.466 -0.5138  0.1176  0.5069
  302CLA    CLA22430   5.813   1.608  15.641 -0.3014  0.2205 -0.3213
  303CLA    CLA22431   5.605   2.142   6.081 -0.1123  0.2169  0.2313
  304CLA    CLA22432   5.964   3.627   0.761  0.3953  0.2054 -0.0471
  305CLA    CLA22433   2.709   5.310  11.879 -0.4686 -0.3979 -0.0770
  306CLA    CLA22434   6.614   6.597   0.322  0.0526  0.4534 -0.5414
  307CLA    CLA22435   3.993   4.019   0.784 -0.5777  0.4734 -0.0963
  308CLA    CLA22436   2.177   2.667  14.363 -0.2103 -0.2766 -0.2025
  309CLA    CLA22437   3.037   6.702   2.572  0.0296  0.0547 -0.0856
  310CLA    CLA22438   3.517   4.516   2.765 -0.3184  0.1329  0.0849
  311CLA    CLA22439   0.489   6.056   2.852  0.1509 -0.0640 -0.4682
  312CLA    CLA22440   1.542   0.742   1.439  0.3524  0.3676 -0.2719
  313CLA    CLA22441   5.642   1.523  12.231 -0.0273 -0.2854 -0.4985
  314CLA    CLA22442   5.385   6.633  15.092 -0.1604  0.3705 -0.1967
  315CLA    CLA22443   0.473   2.801  12.139 -0.1338  0.0558 -0.0821
  316CLA    CLA22444   5.222   0.781  12.889  0.2265 -0.1379  0.0897
  317CLA    CLA22445   5.506   4.935  16.309 -0.1252 -0.2062 -0.1382
  318CLA    CLA22446   3.751   2.823   1.259  0.0035 -0.1242 -0.5403
  319TIP3   OH222447   3.512   5.269  10.629  0.6414  0.3955 -0.0257
  319TIP3    H122448   3.533   5.361  10.642  0.9883  0.0175  2.6678
  319TIP3    H222449   3.596   5.225  10.619  0.4809  0.3264 -1.2520
  320TIP3   OH222450   0.660   6.305   3.579 -0.1921 -0.0818 -0.5736
  320TIP3    H122451   0.706   6.252   3.644 -0.1795 -0.0376 -0.5461
  320TIP3    H222452   0.569   6.279   3.588 -0.3534  0.6922  0.2111
  321TIP3   OH222453   0.939   3.310  14.942 -0.5087  0.2082  0.2803
  321TIP3    H122454   0.986   3.276  15.018 -1.3236  1.2896  1.3087
  321TIP3    H222455   0.855   3.264  14.944  0.3752 -1.6635 -1.5046
  322TIP3   OH222456   1.755   1.324   3.767 -0.6195 -0.2449 -0.3555
  322TIP3    H122457   1.797   1.241   3.788 -1.5325 -0.8447 -0.8561
  322TIP3    H222458   1.689   1.302   3.702 -1.6944  0.6806  0.3897
  323TIP3   OH222459   5.358   1.050  15.386  0.4714 -0.1866 -0.5746
  323TIP3    H122460   5.309   1.130  15.404  2.1960  1.0540 -1.1344
  323TIP3    H222461   5.313   1.009  15.313 -0.1760  0.5132 -0.5701
  324TIP3   OH222462   3.932   4.860  15.665  0.6424 -0.2228 -0.2476
  324TIP3    H122463   3.971   4.785  15.710  1.7643  0.8231  0.5846
  324TIP3    H222464   3.847   4.873  15.707  0.6361 -0.7538 -0.0938
  325TIP3   OH222465   6.383   5.543  11.020 -0.5002 -0.2024 -0.6320
  325TIP3    H122466   6.396   5.453  10.990 -1.3005 -0.1620 -1.1289
  325TIP3    H222467   6.395   5.597  10.942 -1.6646 -0.0208 -0.7020
  326TIP3   OH222468   2.297   6.117   0.557  0.0916 -0.0498 -0.4232
  326TIP3    H122469   2.253   6.032   0.561  0.3613 -0.1418  1.3532
  326TIP3    H222470   2.246   6.173   0.614 -0.6749  1.3345 -2.3441
  327TIP3   OH222471   1.994   3.659   3.451  0.0149  0.2275 -0.0209
  327TIP3    H122472   2.028   3.740   3.413  0.3109  0.1057 -0.0212
  327TIP3    H222473   2.067   3.624   3.502 -0.2906  0.2538  0.4492
  328TIP3   OH222474   0.458   6.643  16.869  0.3715 -1.0142 -0.1566
  328TIP3    H122475   0.392   6.603  16.813  0.4913 -0.0224 -1.0448
  328TIP3    H222476   0.417   6.724  16.900  1.0561 -0.5284 -0.4937
  329TIP3   OH222477   2.587   1.903   2.957 -0.1920  0.1929  0.0554
  329TIP3    H122478   2.584   1.874   2.866  1.2651  0.2215 -0.0240
  329TIP3    H222479   2.659   1.853   2.996 -0.9726 -0.0125  1.2644
  330TIP3   OH222480   2.542   5.709   4.580 -0.0824  0.2565 -0.2200
  330TIP3    H122481   2.586   5.645   4.634  0.5707  1.0041  0.1573
  330TIP3    H222482   2.451   5.709   4.611  0.0781  0.0223  0.2527
  331TIP3   OH222483   2.803   6.187  14.522 -0.2855 -0.0338  0.1453
  331TIP3    H122484   2.789   6.280  14.544 -0.0795 -0.2358  1.1595
  331TIP3    H222485   2.809   6.143  14.606 -2.1141 -1.2530 -0.2952
  332TIP3   OH222486   0.281   5.218  15.374 -0.9241 -0.1093  0.3339
  332TIP3    H122487   0.355   5.239  15.432 -0.9777  2.3790 -0.3866
  332TIP3    H222488   0.319   5.160  15.308  0.1908  0.4172  0.4770
  333TIP3   OH222489   3.560   2.690   0.189 -0.1899  0.2362 -0.1382
  333TIP3    H122490   3.613   2.750   0.242 -1.5913  1.6303 -0.2404
  333TIP3    H222491   3.478   2.737   0.175 -2.5397 -2.7615  2.1024
  334TIP3   OH222492   5.156   1.619  15.385  0.2024  1.0354 -0.4037
  334TIP3    H122493   5.081   1.598  15.441  0.8354 -1.3559 -0.3730
  334TIP3    H222494   5.125   1.603  15.296  0.8964 -0.8347 -0.3384
  335TIP3   OH222495   5.805   2.202  13.881 -0.2148 -1.3206 -0.2787
  335TIP3    H122496   5.766   2.285  13.906  2.9712  0.0735  0.5920
  335TIP3    H222497   5.754   2.136  13.928 -0.2999  0.5201  2.4300
  336TIP3   OH222498   2.895   3.336  16.469  0.1008 -0.1539 -0.5252
  336TIP3    H122499   2.805   3.308  16.455  0.4172 -1.5273  0.1207
  336TIP3    H222500   2.909   3.403  16.401 -0.9226 -0.9850 -1.6044
  337TIP3   OH222501   5.422   0.329  15.330 -0.4330 -0.7171 -0.2466
  337TIP3    H122502   5.452   0.260  15.270 -0.0098 -0.7193 -0.0398
  337TIP3    H222503   5.487   0.399  15.319 -1.2150 -0.0813 -0.9322
  338TIP3   OH222504   5.347   1.548   4.276  0.0723 -0.3137  0.6271
  338TIP3    H122505   5.414   1.499   4.227 -0.6836 -1.1719  0.4243
  338TIP3    H222506   5.385   1.559   4.364  0.8225 -0.0503  0.2808
  339TIP3   OH222507   2.040   2.606  16.220 -0.1743  0.4591  0.4335
  339TIP3    H122508   2.052   2.660  16.297  0.1688  0.5958  0.2861
  339TIP3    H222509   2.097   2.645  16.154 -0.6983  0.5264  0.0175
  340TIP3   OH222510   5.332   1.253   6.600  0.4356 -0.3554 -0.0673
  340TIP3    H122511   5.420   1.231   6.568  0.4351 -0.5326  0.0535
  340TIP3    H222512   5.315   1.190   6.670  0.6814  0.4029  0.6907
  341TIP3   OH222513   4.170   3.672   5.018  0.8294  0.2778 -0.2618
  341TIP3    H122514   4.118   3.690   4.940  0.3256 -1.6842 -0.4089
  341TIP3    H222515   4.257   3.709   4.998  0.4013  0.7790 -1.2727
  342TIP3   OH222516   4.833   2.408   3.124  0.3094 -0.0100  0.2405
  342TIP3    H122517   4.824   2.478   3.189 -0.8381 -0.1413  0.2434
  342TIP3    H222518   4.886   2.341   3.168 -0.2757 -0.0065  0.9686
  343TIP3   OH222519   6.346   0.811  15.708  0.4352 -0.0259  0.0337
  343TIP3    H122520   6.429   0.834  15.750 -0.7846  0.4334  2.3471
  343TIP3    H222521   6.281   0.813  15.778 -1.7941  0.8779 -1.8886
  344TIP3   OH222522   1.370   0.623   2.979 -0.2347  0.3081 -0.2470
  344TIP3    H122523   1.397   0.532   2.966  1.4641  0.6932  0.3350
  344TIP3    H222524   1.452   0.670   2.996 -1.3514  1.3279  3.1457
  345TIP3   OH222525   0.776   2.727  11.454 -0.5997  0.1835  0.3791
  345TIP3    H122526   0.742   2.713  11.366  0.2857 -0.7978  0.1645
  345TIP3    H222527   0.838   2.800  11.445 -0.9646  0.4884  0.3205
  346TIP3   OH222528   5.336   5.962  16.905  0.2831 -0.4140 -0.1350
  346TIP3    H122529   5.349   6.054  16.927 -0.6064 -0.1237 -0.7612
  346TIP3    H222530   5.299   5.963  16.817  1.0250 -1.4207 -0.4764
  347TIP3   OH222531   2.134   3.059  13.947  0.0554 -0.4116 -0.0866
  347TIP3    H122532   2.155   3.033  14.036  1.3254  0.9883  0.0713
  347TIP3    H222533   2.102   2.979  13.905  0.3841 -1.3220  1.3335
  348TIP3   OH222534   6.118   0.200   3.306  0.1823 -0.2240 -0.0863
  348TIP3    H122535   6.196   0.157   3.270 -0.5712 -0.8844 -0.9773
  348TIP3    H222536   6.058   0.128   3.326 -1.1866  0.3895 -1.7916
  349TIP3   OH222537   0.933   6.672   4.185  0.4337  0.2913  0.0280
  349TIP3    H122538   0.875   6.596   4.183  0.2243  0.4396 -2.5388
  349TIP3    H222539   0.874   6.747   4.172  0.7921  0.8343  1.2913
  350TIP3   OH222540   1.131   5.177   5.247  0.3296 -0.4381 -0.1619
  350TIP3    H122541   1.200   5.239   5.223 -0.5994  0.7373  0.0938
  350TIP3    H222542   1.118   5.190   5.341  0.8143 -1.7673  0.1081
  351TIP3   OH222543   2.921   6.546   1.836 -0.1531 -0.3518  0.4325
  351TIP3    H122544   2.900   6.572   1.926 -0.1387  1.8503 -0.1517
  351TIP3    H222545   2.836   6.529   1.796 -0.2459 -0.1740  0.5508
  352TIP3   OH222546   6.603   3.705   1.041 -0.2735 -0.5138 -0.3363
  352TIP3    H122547   6.623   3.793   1.010  1.0063 -0.7991 -0.3684
  352TIP3    H222548   6.689   3.664   1.056 -0.8355 -1.8709 -0.6578
  353TIP3   OH222549   0.055   5.261   5.104  0.3218 -0.2105 -0.0882
  353TIP3    H122550   0.103   5.293   5.180  0.0502  0.9380 -0.3839
  353TIP3    H222551  -0.034   5.293   5.116 -0.8828 -3.5832  1.2284
  354TIP3   OH222552   1.338   4.265  13.080  0.1221  0.0819 -0.1650
  354TIP3    H122553   1.366   4.178  13.108 -1.2993 -1.5515 -3.2795
  354TIP3    H222554   1.417   4.307  13.046  0.2669 -1.3350 -1.6443
  355TIP3   OH222555   5.493   5.351   4.357 -0.7658  0.5640 -0.1270
  355TIP3    H122556   5.549   5.408   4.305 -3.8386  2.0549 -2.1403
  355TIP3    H222557   5.494   5.267   4.310  0.6864  0.1523  0.5919
  356TIP3   OH222558   1.648   4.598   4.173  0.5322  0.1219 -0.2493
  356TIP3    H122559   1.556   4.625   4.171  0.2571 -0.7459 -0.0680
  356TIP3    H222560   1.666   4.580   4.265  0.0186 -2.4089 -0.5609
  357TIP3   OH222561   4.078   6.079   6.374  1.1917  0.7618  0.3488
  357TIP3    H122562   4.068   6.009   6.438 -1.0510 -1.4058 -2.0774
  357TIP3    H222563   4.028   6.152   6.410  0.2146 -0.3007  1.2230
  358TIP3   OH222564   1.363   5.592  13.359  0.6504  0.5770  0.2009
  358TIP3    H122565   1.436   5.586  13.421  1.0148 -0.9480 -0.3318
  358TIP3    H222566   1.345   5.501  13.335 -0.1410  1.0738 -1.1762
  359TIP3   OH222567   4.718   5.473  15.162  0.3949 -0.7299  0.2841
  359TIP3    H122568   4.627   5.461  15.134  0.1224 -0.6541  1.1180
  359TIP3    H222569   4.768   5.414  15.105 -0.3045 -1.6338  0.5746
  360TIP3   OH222570   3.280   2.248  11.295  0.0700  0.0701  0.4245
  360TIP3    H122571   3.323   2.313  11.350  1.4156  0.7861 -1.3954
  360TIP3    H222572   3.290   2.281  11.206 -0.3336 -2.0122 -0.4432
  361TIP3   OH222573   4.112   2.166  15.354 -0.1447  0.3367 -0.2439
  361TIP3    H122574   4.054   2.091  15.338  1.4329 -1.5670  2.1253
  361TIP3    H222575   4.073   2.210  15.430  1.0036 -0.4682  0.8419
  362TIP3   OH222576   6.510   1.496  17.187  0.0280  0.7565  0.1020
  362TIP3    H122577   6.559   1.518  17.108  0.8720  1.2586  0.7636
  362TIP3    H222578   6.574   1.496  17.257 -0.2506 -1.9482  0.4731
  363TIP3   OH222579   1.295   3.825  16.710  0.4569 -0.8731 -0.2992
  363TIP3    H122580   1.316   3.784  16.795 -0.1411 -0.7460 -0.0894
  363TIP3    H222581   1.380   3.829  16.665  1.4493  1.9938  1.5419
  364TIP3   OH222582   3.419   2.533  13.446 -0.2677 -0.4993  0.3221
  364TIP3    H122583   3.440   2.470  13.377 -0.8266 -0.2780 -0.0522
  364TIP3    H222584   3.423   2.482  13.527 -0.4590 -0.9602  0.0462
  365TIP3   OH222585   3.412   2.103  13.989 -0.1888 -0.7016  0.5039
  365TIP3    H122586   3.383   2.013  13.975 -1.0499 -0.6421  1.7807
  365TIP3    H222587   3.422   2.110  14.084 -2.6918  1.2866  0.7142
  366TIP3   OH222588   0.058   3.610  15.210 -0.2241  0.0344 -0.2308
  366TIP3    H122589   0.061   3.520  15.242  0.7163  0.0633 -0.2138
  366TIP3    H222590   0.052   3.663  15.289  3.2177  0.1688  0.1118
  367TIP3   OH222591   1.381   6.050  11.247 -0.0245  0.1851 -0.0094
  367TIP3    H122592   1.325   6.104  11.192  2.0889  0.7607 -1.7352
  367TIP3    H222593   1.453   6.108  11.273  0.8090 -1.0139  0.4737
  368TIP3   OH222594   6.649   6.622   1.595 -0.1244  0.3280  0.4953
  368TIP3    H122595   6.599   6.547   1.626 -0.9429  1.4396  1.9841
  368TIP3    H222596   6.733   6.585   1.568 -1.3837 -1.4669 -1.3094
  369TIP3   OH222597   1.816   4.900   1.341  0.3565 -0.3170 -0.1074
  369TIP3    H122598   1.721   4.910   1.346  0.5004  0.5268  2.5440
  369TIP3    H222599   1.843   4.958   1.270 -1.0074  0.2356 -0.2033
  370TIP3   OH222600   4.146   3.955   2.094  0.0483 -0.0261 -0.0656
  370TIP3    H122601   4.237   3.982   2.083 -0.2925  1.6018  0.7091
  370TIP3    H222602   4.151   3.866   2.128  1.3713  0.2040  0.4159
  371TIP3   OH222603   6.245   2.815  11.596 -0.0963  0.0443 -0.2077
  371TIP3    H122604   6.235   2.765  11.678  1.5301 -0.5039 -0.3008
  371TIP3    H222605   6.258   2.747  11.529  2.3480  0.5168 -0.3119
  372TIP3   OH222606   4.997   2.944   6.140  0.3459 -0.1001 -0.7491
  372TIP3    H122607   5.034   2.863   6.105  1.0924  0.7319 -1.9809
  372TIP3    H222608   4.930   2.915   6.202  1.4373 -1.6486 -0.2352
  373TIP3   OH222609   4.034   4.923   3.113  0.5529  0.6017  0.3398
  373TIP3    H122610   4.045   5.003   3.061  2.3326  1.2965  1.6564
  373TIP3    H222611   3.940   4.907   3.114  0.2226  2.2461 -0.5948
  374TIP3   OH222612   2.232   4.148  12.855  0.2805 -0.4581 -1.1056
  374TIP3    H122613   2.182   4.101  12.921  1.6451 -1.0866 -0.4667
  374TIP3    H222614   2.178   4.223  12.831 -0.5554 -0.6316  0.1887
  375TIP3   OH222615   4.328   2.932  12.757 -0.4052  0.1298  0.1070
  375TIP3    H122616   4.279   2.899  12.832  2.0736  0.8893  2.2170
  375TIP3    H222617   4.271   2.997  12.717 -2.2676 -1.1524  0.5684
  376TIP3   OH222618   2.988   5.471   1.967  0.3468  0.2098  0.5569
  376TIP3    H122619   2.989   5.529   2.043 -2.0049  1.6780 -0.4306
  376TIP3    H222620   2.957   5.387   2.001 -1.4151  1.0522  1.1545
  377TIP3   OH222621   4.407   4.301  15.718 -0.1571 -0.2991 -0.4689
  377TIP3    H122622   4.425   4.392  15.693 -1.0438 -0.3487 -1.3184
  377TIP3    H222623   4.492   4.258  15.713  0.4959  0.7042  1.0274
  378TIP3   OH222624   1.169   5.446   1.377 -0.4037 -0.8581  0.5062
  378TIP3    H122625   1.103   5.423   1.312 -0.8752  1.1666  0.1983
  378TIP3    H222626   1.242   5.385   1.361 -0.5397 -0.4730 -1.8571
  379TIP3   OH222627   1.966   1.883   1.761  0.1189 -0.3915  0.2432
  379TIP3    H122628   1.912   1.831   1.701  0.7278 -3.1434  1.9342
  379TIP3    H222629   2.038   1.825   1.785 -1.2526 -0.3834  5.3915
  380TIP3   OH222630   3.701   1.127   4.902 -0.0566 -0.1249 -0.1730
  380TIP3    H122631   3.761   1.188   4.860 -0.0309  0.3240  0.4936
  380TIP3    H222632   3.617   1.173   4.904 -0.3070 -0.5467 -0.6380
  381TIP3   OH222633   5.148   6.752  17.147  0.5326 -0.1393 -0.3890
  381TIP3    H122634   5.169   6.688  17.216 -0.8745 -0.6759 -0.4349
  381TIP3    H222635   5.120   6.699  17.073  2.5364  0.4044 -1.6226
  382TIP3   OH222636   0.691   0.624  11.188  0.0811  0.0964  0.4685
  382TIP3    H122637   0.674   0.710  11.229 -1.0153  0.1227  0.0068
  382TIP3    H222638   0.752   0.643  11.117 -2.0283  0.9751 -1.2347
  383TIP3   OH222639   1.888   6.052  17.001 -0.6729 -0.1136  0.5691
  383TIP3    H122640   1.793   6.047  17.017 -0.7339 -0.6825  0.0953
  383TIP3    H222641   1.903   5.986  16.932  0.2213 -0.7583  1.3634
  384TIP3   OH222642   3.042   2.375  11.259  0.0251  1.0513 -0.2157
  384TIP3    H122643   3.059   2.418  11.343  0.0449 -1.7725  1.3378
  384TIP3    H222644   3.107   2.304  11.255 -1.8250 -0.6841 -1.2028
  385TIP3   OH222645   6.142   0.541   4.372  0.3807 -0.0834  0.2863
  385TIP3    H122646   6.105   0.477   4.311  0.2231  0.0530  0.2398
  385TIP3    H222647   6.106   0.517   4.457  2.1508 -1.5398  0.7130
  386TIP3   OH222648   5.042   0.791   6.434  0.0306 -0.0760 -0.5542
  386TIP3    H122649   4.999   0.877   6.428  0.5928  0.2507  0.0616
  386TIP3    H222650   5.134   0.811   6.453 -0.1129 -0.8494  1.0883
  387TIP3   OH222651   5.205   1.785   3.747  0.2002 -0.3543 -0.0494
  387TIP3    H122652   5.257   1.760   3.823  1.2798  0.7871 -0.3754
  387TIP3    H222653   5.151   1.708   3.729  0.7054 -1.0406  1.2008
  388TIP3   OH222654   1.222   3.308   0.338  0.3217  0.3450  0.0749
  388TIP3    H122655   1.167   3.366   0.391  0.2624  0.0405  0.3507
  388TIP3    H222656   1.205   3.335   0.248  3.2087  3.4578  0.2355
  389TIP3   OH222657   4.452   0.850  11.406 -0.0454  0.0693  0.0797
  389TIP3    H122658   4.406   0.819  11.485  0.4176  0.2489  0.4210
  389TIP3    H222659   4.443   0.777  11.344 -0.5462 -0.0117  0.2399
  390TIP3   OH222660   0.525   5.746   2.829 -0.4828 -0.3705 -0.2064
  390TIP3    H122661   0.517   5.842   2.824  0.8990 -0.2664 -0.9768
  390TIP3    H222662   0.478   5.722   2.909 -0.1294  1.0490  0.4564
  391TIP3   OH222663   1.489   4.425   0.537 -0.5661  0.3544  0.1390
  391TIP3    H122664   1.552   4.370   0.584  0.6718  0.3805 -1.4005
  391TIP3    H222665   1.428   4.363   0.498 -0.7851  0.2488  0.6463
  392TIP3   OH222666   4.356   0.708  13.494 -0.5344 -0.6083  0.4561
  392TIP3    H122667   4.445   0.728  13.523 -0.1310  0.9907 -1.6375
  392TIP3    H222668   4.352   0.612  13.494  1.0367 -0.7038  0.9953
  393TIP3   OH222669   4.746   1.473   1.208  0.4563  0.2963 -0.1397
  393TIP3    H122670   4.800   1.418   1.151  0.1889  0.1642 -0.2652
  393TIP3    H222671   4.785   1.560   1.199  0.4500  0.2671 -0.4818
  394TIP3   OH222672   5.185   4.713  15.898  0.0710 -0.6155 -0.4252
  394TIP3    H122673   5.135   4.786  15.859 -1.9134 -1.4306  0.4383
  394TIP3    H222674   5.233   4.753  15.970 -0.7196 -0.0786 -0.1830
  395TIP3   OH222675   2.757   2.512  12.963  0.2502  0.6865 -0.5635
  395TIP3    H122676   2.777   2.437  13.020  1.0577  1.3187  0.0199
  395TIP3    H222677   2.825   2.576  12.985 -0.8122  1.8431 -0.5827
  396TIP3   OH222678   5.367   5.958  12.727 -0.0419  0.4096 -0.1989
  396TIP3    H122679   5.321   6.030  12.769  0.5512  1.2332 -0.9238
  396TIP3    H222680   5.323   5.946  12.643 -1.1413 -1.1432  0.5669
  397TIP3   OH222681   2.931   5.705  16.427  0.1686 -0.0878 -0.9668
  397TIP3    H122682   2.903   5.780  16.374 -0.5911 -0.3182 -0.8988
  397TIP3    H222683   2.874   5.707  16.503 -0.4043 -1.2057 -1.3481
  398TIP3   OH222684   0.775   4.807  11.655 -0.1364  0.0133 -0.0721
  398TIP3    H122685   0.765   4.870  11.726 -0.1980 -0.8435  0.6922
  398TIP3    H222686   0.841   4.745  11.686  1.3440  0.7401 -1.5875
  399TIP3   OH222687   5.147   4.893  11.892 -0.3587  0.2660  0.1610
  399TIP3    H122688   5.175   4.899  11.984  0.2288  0.0343 -0.0004
  399TIP3    H222689   5.142   4.799  11.875 -1.2839  0.2994  0.1955
  400TIP3   OH222690   6.104   2.140   5.803 -0.0284 -0.4568 -0.1844
  400TIP3    H122691   6.028   2.082   5.813 -0.0156 -0.3813  0.4104
  400TIP3    H222692   6.098   2.172   5.713 -1.2293  0.2568  0.1123
  401TIP3   OH222693   5.644   3.422   3.347 -0.2224 -0.2991  0.5027
  401TIP3    H122694   5.699   3.478   3.292  0.8090 -0.5703  1.2436
  401TIP3    H222695   5.619   3.349   3.289  0.2255 -0.1926  0.1686
  402TIP3   OH222696   4.432   5.464   3.800 -0.0556  0.0831  0.1729
  402TIP3    H122697   4.516   5.455   3.846  0.9826  1.4812 -1.3398
  402TIP3    H222698   4.434   5.397   3.732 -1.4550 -1.7698  1.8271
  403TIP3   OH222699   2.155   2.015  12.360 -0.0565 -0.2712  0.0374
  403TIP3    H122700   2.206   1.935  12.373  0.1365  0.2577  3.2765
  403TIP3    H222701   2.221   2.084  12.351 -0.2009 -0.0358  0.7560
  404TIP3   OH222702   0.330   4.510   3.440 -0.3283  0.0379 -0.5204
  404TIP3    H122703   0.320   4.417   3.461  0.6791 -0.2032 -1.0390
  404TIP3    H222704   0.356   4.550   3.523  2.2853 -0.6854 -0.8819
  405TIP3   OH222705   1.967   5.069  15.106 -0.7906 -0.7718  0.5255
  405TIP3    H122706   1.938   4.982  15.134  0.2823 -0.6982  1.9339
  405TIP3    H222707   2.022   5.053  15.029  3.2679 -1.9254  3.3823
  406TIP3   OH222708   6.157   6.385  17.108  0.0977 -0.2934  0.3215
  406TIP3    H122709   6.127   6.440  17.181  0.3423  1.5070 -0.8728
  406TIP3    H222710   6.078   6.367  17.058  0.0916 -0.6329  0.4538
  407TIP3   OH222711   1.562   3.356  13.094 -0.5498 -0.1041  0.6051
  407TIP3    H122712   1.645   3.356  13.143  0.3183  0.2720 -0.8056
  407TIP3    H222713   1.525   3.269  13.109 -0.3367  0.0266  1.9567
  408TIP3   OH222714   4.353   0.538   2.069 -0.1387  0.5008 -0.3245
  408TIP3    H122715   4.272   0.489   2.083 -0.1423 -0.0774 -2.0923
  408TIP3    H222716   4.423   0.473   2.074  0.2827  1.0451  1.4926
  409TIP3   OH222717   6.134   0.274   0.529 -0.4676  0.0099 -0.0823
  409TIP3    H122718   6.163   0.319   0.449  0.2559 -0.6023 -0.1784
  409TIP3    H222719   6.061   0.327   0.561  0.4553  1.3481 -0.0970
  410TIP3   OH222720   1.924   1.918  17.106 -0.4239  0.2969  0.2454
  410TIP3    H122721   1.894   1.965  17.028  2.4912  1.4580 -0.3307
  410TIP3    H222722   1.894   1.828  17.093 -0.6707  0.6260 -1.8435
  411TIP3   OH222723   2.083   3.348   3.405 -0.2738  0.1314  0.0004
  411TIP3    H122724   2.134   3.314   3.331  0.5126 -0.3523  0.7599
  411TIP3    H222725   2.002   3.380   3.364  0.3510  0.3268 -1.1371
  412TIP3   OH222726   5.773   1.274   3.307 -0.4925 -0.2088  0.2159
  412TIP3    H122727   5.816   1.215   3.369 -0.3404 -1.8078 -1.3486
  412TIP3    H222728   5.682   1.278   3.337 -0.9768 -2.7925 -0.6897
  413TIP3   OH222729   4.819   4.812  13.613 -0.5335 -0.1566  0.1398
  413TIP3    H122730   4.914   4.805  13.619 -0.4177  1.6171  1.2057
  413TIP3    H222731   4.786   4.743  13.671  0.0748 -1.0319 -0.5371
  414TIP3   OH222732   3.132   1.745   3.717  0.6260 -0.0700 -0.4018
  414TIP3    H122733   3.128   1.792   3.800  1.2495 -1.8949  0.7186
  414TIP3    H222734   3.211   1.779   3.674 -2.0099  4.2761 -2.5569
  415TIP3   OH222735   4.586   3.974   5.001  0.6814 -0.1984  0.4134
  415TIP3    H122736   4.623   4.000   5.085 -0.6397  0.1440  0.8988
  415TIP3    H222737   4.550   4.054   4.964  1.1154 -0.3755 -0.4262
  416TIP3   OH222738   1.225   4.061  11.157 -0.0769  0.0350 -0.8481
  416TIP3    H122739   1.258   4.082  11.069  1.5366 -1.2729 -0.6000
  416TIP3    H222740   1.296   4.086  11.216 -0.4306 -0.7398 -0.0696
  417TIP3   OH222741   6.464   1.668  12.476  0.1826 -0.5056 -0.0319
  417TIP3    H122742   6.437   1.589  12.429 -0.3914 -0.2467 -0.1511
  417TIP3    H222743   6.559   1.673  12.463  0.1743 -0.9909 -0.3050
  418TIP3   OH222744   4.303   2.035  15.515  0.5036 -0.3798 -0.1793
  418TIP3    H122745   4.281   2.077  15.598 -3.5531 -1.4275 -0.4830
  418TIP3    H222746   4.258   2.088  15.449  0.1201 -1.8784 -1.1687
  419TIP3   OH222747   4.728   2.698  13.711  0.5931  0.7056  0.1752
  419TIP3    H122748   4.665   2.630  13.738  1.8571 -0.0048  1.5271
  419TIP3    H222749   4.795   2.696  13.780  2.0427  1.4998 -1.1613
  420TIP3   OH222750   1.977   6.332  12.426  0.2253 -0.4216 -0.2054
  420TIP3    H122751   1.949   6.423  12.432  1.4864 -0.0543  0.5147
  420TIP3    H222752   1.936   6.299  12.346 -2.7135 -0.1377  1.0671
  421TIP3   OH222753   5.384   1.129   1.850  0.5345  0.0684 -0.2738
  421TIP3    H122754   5.367   1.067   1.922 -0.6102  0.5814 -0.0869
  421TIP3    H222755   5.478   1.147   1.856  1.0033 -2.0163 -0.6461
  422TIP3   OH222756   2.724   2.602  15.310  0.2594  0.0877 -0.2109
  422TIP3    H122757   2.714   2.508  15.292  0.9396 -0.4801  2.1398
  422TIP3    H222758   2.790   2.607  15.379  0.1727  2.3077 -0.2152
  423TIP3   OH222759   1.553   1.301   1.700 -0.8747  0.8991  0.7842
  423TIP3    H122760   1.633   1.347   1.726  1.0753 -1.0056 -1.3506
  423TIP3    H222761   1.524   1.255   1.779  1.7066 -0.4328  1.0709
  424TIP3   OH222762   5.317   5.749  14.225  0.2473  0.2565 -0.6653
  424TIP3    H122763   5.261   5.683  14.184  0.4324 -0.9201  0.8727
  424TIP3    H222764   5.403   5.707  14.231 -0.1219 -0.3222  2.3239
  425TIP3   OH222765   3.598   6.113   0.792  0.4389 -0.3977  0.2281
  425TIP3    H122766   3.622   6.105   0.885  1.5529  0.7666  0.0743
  425TIP3    H222767   3.623   6.203   0.770  0.6966 -0.8403 -1.3525
  426TIP3   OH222768   5.676   3.690  15.108  0.3556 -0.3859  0.4019
  426TIP3    H122769   5.632   3.773  15.127  0.3684 -0.3319  0.1946
  426TIP3    H222770   5.729   3.674  15.185  1.8064  0.7412 -0.3051
  427TIP3   OH222771   3.604   1.632   1.884  0.1391 -0.4127  0.5760
  427TIP3    H122772   3.590   1.670   1.797 -1.1710 -1.0356  0.4922
  427TIP3    H222773   3.583   1.539   1.874  1.7456 -0.8795  1.1517
  428TIP3   OH222774   1.599   1.246   4.069 -0.3797 -0.3129  0.0590
  428TIP3    H122775   1.528   1.283   4.121 -0.7559 -2.7273  1.4339
  428TIP3    H222776   1.669   1.312   4.073 -0.5646 -0.1286  3.3154
  429TIP3   OH222777   2.733   1.053  12.002 -0.2950  0.3716 -0.1886
  429TIP3    H122778   2.697   0.984  11.946 -2.2647  1.0600  0.1565
  429TIP3    H222779   2.822   1.066  11.970 -0.5159 -1.0228 -1.4712
  430TIP3   OH222780   3.794   3.571  10.912  0.6161 -0.6861 -0.3523
  430TIP3    H122781   3.887   3.579  10.931  0.7476  1.1883 -1.5235
  430TIP3    H222782   3.791   3.520  10.831  0.7879  0.7009 -1.2754
  431TIP3   OH222783   3.105   5.007  15.991  0.1395 -0.0722  0.0117
  431TIP3    H122784   3.060   5.051  16.063 -0.3463 -1.0805  0.3290
  431TIP3    H222785   3.198   5.018  16.012  0.0093  0.0269  0.5563
  432TIP3   OH222786   2.760   2.568   1.448 -0.3643 -0.6211  0.4715
  432TIP3    H122787   2.807   2.544   1.368  0.6342  1.9783  0.1831
  432TIP3    H222788   2.670   2.584   1.419  0.0442  0.5460 -0.2455
  433TIP3   OH222789   0.719   0.601  15.404 -0.2762 -0.0842  0.1522
  433TIP3    H122790   0.636   0.573  15.366 -0.9342  1.3157  0.5008
  433TIP3    H222791   0.764   0.519  15.426 -1.0421 -0.8819 -1.1009
  434TIP3   OH222792   0.515   1.372   3.489 -0.3651 -0.4757 -0.1513
  434TIP3    H122793   0.430   1.415   3.495 -0.0404  0.0554  0.7806
  434TIP3    H222794   0.500   1.296   3.433 -1.0934  0.4926 -1.3319
  435TIP3   OH222795   0.840   4.832  10.861  0.0529  0.6390  0.3804
  435TIP3    H122796   0.934   4.842  10.843  0.2253 -1.9071 -0.6047
  435TIP3    H222797   0.797   4.879  10.789  0.5416  1.9776  0.9409
  436TIP3   OH222798   3.971   5.729   3.222 -0.4654 -0.0610  0.2201
  436TIP3    H122799   3.993   5.656   3.279  0.0873 -0.8454 -0.9512
  436TIP3    H222800   3.900   5.774   3.267  1.3658  0.6730  2.6026
  437TIP3   OH222801   0.173   2.978   5.083 -0.1564 -0.3291  0.3934
  437TIP3    H122802   0.187   2.890   5.117 -0.1137  0.5007  2.6709
  437TIP3    H222803   0.243   3.031   5.122 -1.0730  0.9928  0.3117
  438TIP3   OH222804   0.346   4.390  12.195 -0.3982  0.0031  0.0092
  438TIP3    H122805   0.404   4.352  12.261 -0.8600 -0.5496  0.1099
  438TIP3    H222806   0.258   4.362  12.222 -0.6285  0.1246 -0.6016
  439TIP3   OH222807   1.084   5.294  12.789 -0.2090  0.1243  0.4731
  439TIP3    H122808   1.077   5.378  12.743 -0.9024 -0.1116  0.1338
  439TIP3    H222809   1.098   5.230  12.719 -0.8398 -0.1813  0.6144
  440TIP3   OH222810   6.414   0.531   4.377  0.3408 -0.0711  0.1167
  440TIP3    H122811   6.319   0.528   4.388  0.3652  0.6863  0.5479
  440TIP3    H222812   6.445   0.591   4.444  1.2266 -0.9857  0.5620
  441TIP3   OH222813   3.918   6.167  13.180  0.5955 -0.3487 -0.3584
  441TIP3    H122814   3.992   6.139  13.234 -0.4017 -3.1889 -0.3321
  441TIP3    H222815   3.842   6.123  13.218 -0.9283  1.4083 -1.2117
  442TIP3   OH222816   0.151   2.076  12.934  0.5540  0.1493 -0.6104
  442TIP3    H122817   0.205   2.086  12.856  0.3228  2.8279 -0.5360
  442TIP3    H222818   0.080   2.018  12.907  1.1193  0.0756 -2.0248
  443TIP3   OH222819   1.027   2.387   2.949  0.4223  0.6277 -0.0312
  443TIP3    H122820   0.993   2.418   3.033  0.8082  0.9661  0.0016
  443TIP3    H222821   1.083   2.458   2.918  0.8832  0.1896 -0.2114
  444TIP3   OH222822   2.959   2.032   0.921  0.2777  0.3939 -0.3346
  444TIP3    H122823   2.884   2.088   0.940 -0.2182 -0.8836  1.7876
  444TIP3    H222824   2.993   2.006   1.007  1.4770 -1.2547 -1.2290
  445TIP3   OH222825   0.887   0.672  11.005  0.2839 -0.0134  0.3723
  445TIP3    H122826   0.916   0.623  10.929  1.5078 -1.2810  1.5927
  445TIP3    H222827   0.929   0.757  10.996  1.7649 -0.7112  0.4308
  446TIP3   OH222828   4.962   4.420   5.750  0.0750 -0.3490 -0.3120
  446TIP3    H122829   4.911   4.494   5.717 -3.2667 -1.0885  2.6190
  446TIP3    H222830   4.913   4.343   5.720 -1.2692 -1.0730  3.2666
  447TIP3   OH222831   6.348   0.639  16.498  0.8866  0.0563 -0.1382
  447TIP3    H122832   6.279   0.675  16.554 -0.2620 -0.9386 -0.8383
  447TIP3    H222833   6.407   0.594  16.558  2.9926  3.8010  0.9140
  448TIP3   OH222834   5.026   2.381   0.106 -0.0809  0.4122  0.0033
  448TIP3    H122835   5.114   2.404   0.075  1.1688 -1.1973  2.0880
  448TIP3    H222836   5.023   2.415   0.196 -1.9163  1.1014 -0.2741
  449TIP3   OH222837   6.653   2.567  11.033 -0.2480  0.7657 -0.3062
  449TIP3    H122838   6.715   2.519  10.978 -1.3117  0.0424 -0.9185
  449TIP3    H222839   6.708   2.614  11.095  0.9040 -0.1030 -0.6179
  450TIP3   OH222840   5.258   2.757  13.219  0.1322  0.3358 -0.4657
  450TIP3    H122841   5.175   2.801  13.201  0.3325  0.8575 -0.1494
  450TIP3    H222842   5.270   2.767  13.313 -0.5697 -1.7622 -0.0951
  451TIP3   OH222843   0.846   5.391   0.015 -0.4485 -0.4268  0.4351
  451TIP3    H122844   0.886   5.445   0.083 -0.6443 -0.4559  0.5743
  451TIP3    H222845   0.911   5.323  -0.002 -1.0950 -1.4438  1.8287
  452TIP3   OH222846   1.275   3.147   5.220  0.2123 -0.1561  0.1547
  452TIP3    H122847   1.218   3.169   5.294  0.7971  0.4890  0.4275
  452TIP3    H222848   1.311   3.232   5.192 -0.0508 -0.3793 -0.9139
  453TIP3   OH222849   1.661   4.473  12.290  0.1171 -0.1331  0.1474
  453TIP3    H122850   1.725   4.423  12.340  0.5919  1.0764  0.7913
  453TIP3    H222851   1.695   4.472  12.200  0.4933 -0.3665  0.2906
  454TIP3   OH222852   3.006   3.718   5.714  0.1524  0.0653  0.1316
  454TIP3    H122853   3.058   3.741   5.791 -0.3257 -0.9801  0.7882
  454TIP3    H222854   2.915   3.731   5.741 -0.0260 -0.4375 -0.2173
  455TIP3   OH222855   4.132   1.326   4.467  0.1703  0.3339  0.4911
  455TIP3    H122856   4.054   1.372   4.498  0.6166  1.0429  0.5907
  455TIP3    H222857   4.098   1.252   4.417 -0.6017  1.8637 -1.3717
  456TIP3   OH222858   3.839   0.389  14.321  0.0675 -0.6278  0.3833
  456TIP3    H122859   3.841   0.467  14.377  0.4528  0.3635 -0.9451
  456TIP3    H222860   3.925   0.349  14.333  0.0356 -0.6020  0.7265
  457TIP3   OH222861   5.673   6.414  11.130 -0.4345  0.0468 -0.0424
  457TIP3    H122862   5.608   6.474  11.167 -0.0097  0.9239 -0.6590
  457TIP3    H222863   5.722   6.469  11.068  0.7727 -0.6374  0.2808
  458TIP3   OH222864   1.261   6.061  13.374  0.0577  0.2909  0.1357
  458TIP3    H122865   1.211   6.142  13.380 -0.2757  0.2945 -2.0574
  458TIP3    H222866   1.200   5.993  13.402 -0.8579  0.4193 -1.4595
  459TIP3   OH222867   1.171   3.474   5.954 -0.0136  0.1713 -0.4155
  459TIP3    H122868   1.090   3.462   6.003 -1.0169 -1.0377 -2.2489
  459TIP3    H222869   1.238   3.427   6.005 -0.4191  1.2105  1.1265
  460TIP3   OH222870   1.576   0.898   3.981  0.4622 -0.1209  0.2819
  460TIP3    H122871   1.665   0.927   4.002  0.8300 -0.8687 -0.2260
  460TIP3    H222872   1.528   0.979   3.962  1.1568  0.2513  0.0995
  461TIP3   OH222873   4.966   4.304  11.709  0.6030  0.7175 -1.0571
  461TIP3    H122874   5.037   4.343  11.658 -1.0479  1.5327 -2.8256
  461TIP3    H222875   4.954   4.364  11.782  1.4708  0.7442 -0.9151
  462TIP3   OH222876   4.124   3.935   0.141  0.4191 -0.4101  0.4318
  462TIP3    H122877   4.160   3.856   0.181  1.2495 -0.0283  0.4547
  462TIP3    H222878   4.047   3.905   0.092 -0.9585 -0.8347  2.7082
  463TIP3   OH222879   1.419   2.132   3.572 -0.2562  0.0711  0.3901
  463TIP3    H122880   1.469   2.213   3.566  0.8615 -0.6973 -1.5628
  463TIP3    H222881   1.485   2.064   3.588 -0.8310 -0.7608 -0.6296
  464TIP3   OH222882   6.648   1.972  10.940 -0.3820 -0.1543  0.2313
  464TIP3    H122883   6.613   1.970  10.851  1.7771 -0.8124 -0.6641
  464TIP3    H222884   6.588   2.029  10.988 -1.4583  0.4191 -1.6877
  465TIP3   OH222885   2.464   1.926   2.460  0.0006  0.1576 -0.0811
  465TIP3    H122886   2.394   1.861   2.469 -1.1482  1.3235 -0.2249
  465TIP3    H222887   2.490   1.946   2.550  0.0421 -0.1820 -0.0181
  466TIP3   OH222888   1.691   6.361  13.085  0.1902 -0.3774  0.0820
  466TIP3    H122889   1.753   6.315  13.028  0.9145 -0.9889  1.3044
  466TIP3    H222890   1.683   6.304  13.162 -1.1933  0.1455  0.3529
  467TIP3   OH222891   2.194   3.146  12.686 -0.2110 -0.3210  0.8130
  467TIP3    H122892   2.145   3.109  12.612  0.3147  1.2437 -0.3751
  467TIP3    H222893   2.127   3.189  12.739 -0.4794 -0.6817  0.7765
  468TIP3   OH222894   0.250   0.253  16.833 -0.5390 -0.4509 -0.6410
  468TIP3    H122895   0.217   0.340  16.856  0.3919  0.5520 -2.7787
  468TIP3    H222896   0.269   0.212  16.917 -3.1668  0.4857  0.5090
  469TIP3   OH222897   5.436   0.186  15.619 -0.2576 -0.5739 -0.0850
  469TIP3    H122898   5.436   0.203  15.525 -0.7270  2.7940  0.3765
  469TIP3    H222899   5.488   0.106  15.630  1.6778  0.1371 -3.0274
  470TIP3   OH222900   1.640   0.418  15.469 -0.3985  0.3528 -0.6090
  470TIP3    H122901   1.613   0.498  15.424 -0.4983  0.0713 -1.0577
  470TIP3    H222902   1.558   0.381  15.504 -0.3096  0.6164 -0.1189
  471TIP3   OH222903   2.951   6.231  16.350  0.0638 -0.6065 -0.6724
  471TIP3    H122904   2.941   6.306  16.408  1.3176 -0.2338 -0.8976
  471TIP3    H222905   2.926   6.264  16.264  1.5864 -0.1043 -0.9651
  472TIP3   OH222906   3.684   1.778  15.081 -0.7299  0.0913  0.0871
  472TIP3    H122907   3.668   1.713  15.012  0.5059  0.3059 -0.4420
  472TIP3    H222908   3.679   1.862  15.035 -2.2437  0.3913  0.7529
  473TIP3   OH222909   3.614   3.232   3.756  0.6054 -0.3386 -0.6824
  473TIP3    H122910   3.687   3.262   3.809  0.6064 -0.5304 -0.5763
  473TIP3    H222911   3.610   3.137   3.771 -0.6222 -0.1274  0.5165
  474TIP3   OH222912   0.065   0.331  11.300 -0.4160  0.1424  0.1445
  474TIP3    H122913   0.022   0.259  11.253 -1.3525  0.8977 -0.1858
  474TIP3    H222914   0.014   0.339  11.381  0.9220 -0.8683  1.1458
  475TIP3   OH222915   0.915   2.616  12.415  0.2193 -0.2397  0.4692
  475TIP3    H122916   0.828   2.610  12.456 -0.4602  0.7034 -0.7878
  475TIP3    H222917   0.901   2.667  12.336  1.6854 -1.2167 -0.4635
  476TIP3   OH222918   6.117   2.620   1.688  0.3641 -0.4357 -0.6465
  476TIP3    H122919   6.119   2.526   1.669 -4.1874 -0.5455 -1.7414
  476TIP3    H222920   6.080   2.660   1.609  0.8020  2.1331  0.3325
  477TIP3   OH222921   0.479   1.704  12.103 -0.3157 -0.4085 -0.0103
  477TIP3    H122922   0.557   1.730  12.153  0.6251 -1.3428 -0.9244
  477TIP3    H222923   0.511   1.634  12.045 -2.0396 -1.4426  0.2280
  478TIP3   OH222924   5.872   5.971   1.605 -0.1504  0.4186 -0.0255
  478TIP3    H122925   5.830   5.948   1.523 -0.0269  2.5335 -0.7379
  478TIP3    H222926   5.965   5.952   1.591 -0.3816 -1.2432  0.4338
  479TIP3   OH222927   1.005   5.795   5.490 -0.2952 -0.1335  0.1318
  479TIP3    H122928   0.969   5.802   5.401 -1.1227  0.7853  0.5272
  479TIP3    H222929   0.929   5.775   5.545  0.0412  0.3797  0.7882
  480TIP3   OH222930   2.579   6.521  14.124  0.4137  0.0343 -0.7818
  480TIP3    H122931   2.648   6.536  14.189  0.6865  1.6813 -1.4003
  480TIP3    H222932   2.596   6.433  14.090  0.6567 -0.6056  0.8747
  481TIP3   OH222933   4.706   2.927   1.238 -0.0961 -0.6765 -0.2233
  481TIP3    H122934   4.690   2.979   1.316  1.8149  0.3114 -0.4179
  481TIP3    H222935   4.631   2.945   1.181 -0.5122  0.1973  0.5719
  482TIP3   OH222936   4.679   3.014  12.578  0.0694  0.2243 -0.2214
  482TIP3    H122937   4.662   3.070  12.502 -0.3325 -1.3221 -1.3065
  482TIP3    H222938   4.714   2.933  12.541 -0.7047 -0.7918  1.1837
  483TIP3   OH222939   3.049   5.134   3.169  0.0702 -0.0945  0.0119
  483TIP3    H122940   3.096   5.141   3.086  0.6642  0.4602  0.3875
  483TIP3    H222941   2.973   5.080   3.149  0.0550  0.2686 -0.9630
  484TIP3   OH222942   1.587   1.521   3.845  0.3609 -0.4804  0.2974
  484TIP3    H122943   1.667   1.472   3.823  0.1765 -0.4929 -0.3890
  484TIP3    H222944   1.516   1.459   3.830  0.1355 -0.0610 -0.4627
  485TIP3   OH222945   0.128   2.093  13.201 -0.5342  0.1834  0.8914
  485TIP3    H122946   0.185   2.165  13.227  2.0734 -1.9712  1.6977
  485TIP3    H222947   0.115   2.106  13.107  0.1362  1.5110  0.9513
  486TIP3   OH222948   3.014   4.498   2.573 -0.1268 -0.0027 -0.2589
  486TIP3    H122949   2.977   4.414   2.543 -0.9556  0.2026  0.1601
  486TIP3    H222950   2.963   4.520   2.651  1.6717 -0.2710  1.0486
  487TIP3   OH222951   1.947   0.338   3.024 -0.5858 -0.0152  0.4521
  487TIP3    H122952   1.953   0.428   3.055  1.2308  0.3531 -0.8005
  487TIP3    H222953   2.038   0.310   3.012 -1.1251 -1.3128 -1.0594
  488TIP3   OH222954   3.269   1.062  12.447 -0.0834 -0.1357  0.0611
  488TIP3    H122955   3.268   0.970  12.423 -2.9730  0.1373 -1.3292
  488TIP3    H222956   3.199   1.072  12.511  0.5486  1.0183  0.6192
  489TIP3   OH222957   1.477   2.475  11.907 -0.0104 -0.4032  0.6365
  489TIP3    H122958   1.549   2.506  11.962  0.3180 -1.4962  0.8365
  489TIP3    H222959   1.501   2.504  11.819  0.2704 -0.0620  0.8186
  490TIP3   OH222960   1.760   5.510   3.151 -0.1882  0.2957  0.2395
  490TIP3    H122961   1.749   5.531   3.059  0.2848  1.8690  0.5133
  490TIP3    H222962   1.749   5.594   3.197 -0.1697 -0.4048  1.5893
  491TIP3   OH222963   1.047   6.141  13.110  0.2402 -0.0664 -0.2312
  491TIP3    H122964   1.106   6.204  13.152  0.0340  0.3127 -0.4944
  491TIP3    H222965   1.104   6.077  13.069  0.4392 -0.9830  1.4167
  492TIP3   OH222966   1.254   4.265   5.195 -0.1090  0.1595  0.0496
  492TIP3    H122967   1.297   4.279   5.279  1.9589 -0.8424 -0.7431
  492TIP3    H222968   1.173   4.218   5.216  0.6060 -0.5147  1.4632
  493TIP3   OH222969   1.391   5.393   0.521 -0.0610 -0.1324  0.4904
  493TIP3    H122970   1.436   5.316   0.487 -1.3477 -1.0466  0.7847
  493TIP3    H222971   1.315   5.404   0.464 -1.3746 -0.7365  2.0435
  494TIP3   OH222972   3.120   1.864   4.163 -0.0726 -0.2489 -0.2293
  494TIP3    H122973   3.051   1.807   4.127 -0.7629  0.4786 -0.0819
  494TIP3    H222974   3.170   1.807   4.221 -0.4048 -0.8493 -0.5226
  495TIP3   OH222975   4.140   1.743   1.742  0.3045  0.0897 -0.2151
  495TIP3    H122976   4.082   1.728   1.817  1.4080 -0.7821  0.5018
  495TIP3    H222977   4.150   1.838   1.738  0.0317  0.1630  0.5968
  496TIP3   OH222978   4.645   1.440   6.527  0.0401  0.0899  0.2866
  496TIP3    H122979   4.631   1.481   6.441 -1.7847  0.3404  0.6543
  496TIP3    H222980   4.636   1.511   6.589  1.0997 -0.1394  0.7191
  497TIP3   OH222981   4.757   1.837   0.377 -0.0458 -0.8066 -0.3197
  497TIP3    H122982   4.684   1.793   0.335  0.4766 -1.6460 -0.3619
  497TIP3    H222983   4.821   1.768   0.394  0.3824 -0.2319  0.4869
  498TIP3   OH222984   6.418   0.754  13.283  0.5734 -0.2846  0.0915
  498TIP3    H122985   6.399   0.817  13.352 -0.5131  0.8293 -1.1674
  498TIP3    H222986   6.336   0.706  13.271  0.6491 -0.2614 -0.6077
  499TIP3   OH222987   3.855   3.663  15.131 -0.6902  0.4754  0.8312
  499TIP3    H122988   3.846   3.652  15.226  2.0363 -0.4858  1.0718
  499TIP3    H222989   3.779   3.617  15.095 -1.0997 -0.2744  2.5132
  500TIP3   OH222990   1.249   6.275  15.418  0.1522 -0.0058  0.5422
  500TIP3    H122991   1.268   6.188  15.451  4.3323  0.0752 -1.0277
  500TIP3    H222992   1.269   6.334  15.491  1.6780 -0.2035  0.3118
  501TIP3   OH222993   3.252   5.442  16.436 -0.2535  0.3795  0.2328
  501TIP3    H122994   3.249   5.484  16.350 -0.1641  0.4109  0.2431
  501TIP3    H222995   3.191   5.493  16.490 -0.8661 -0.0943 -0.0070
  502TIP3   OH222996   0.101   2.516  15.521 -0.5883 -0.2880 -0.0492
  502TIP3    H122997   0.063   2.446  15.468  0.8854 -1.1490 -0.0192
  502TIP3    H222998   0.103   2.481  15.610  0.1615 -0.2358 -0.0342
  503TIP3   OH222999   1.862   4.401  14.105  0.8746  0.5446 -0.1692
  503TIP3    H123000   1.865   4.450  14.023 -0.6951  0.4262 -0.3352
  503TIP3    H223001   1.918   4.450  14.165 -0.2491  2.2848 -0.4795
  504TIP3   OH223002   0.501   5.327   4.755  0.4854 -0.2466  0.1932
  504TIP3    H123003   0.440   5.295   4.689 -0.9566 -0.1059  1.3986
  504TIP3    H223004   0.587   5.296   4.726 -0.1478 -0.5131 -1.5132
  505TIP3   OH223005   5.774   5.054  14.654 -0.0775 -0.2737  0.0550
  505TIP3    H123006   5.792   5.038  14.561  1.6864 -1.6321  0.5634
  505TIP3    H223007   5.854   5.024  14.699 -2.2332 -3.2766  2.3068
  506TIP3   OH223008   3.661   1.659   0.851 -0.1111 -0.1969  0.3609
  506TIP3    H123009   3.727   1.595   0.825  0.3488 -0.6149  2.3939
  506TIP3    H223010   3.712   1.733   0.883 -0.6533  0.6463 -0.6707
  507TIP3   OH223011   1.342   2.352   2.328 -0.6587 -0.1040  0.1021
  507TIP3    H123012   1.286   2.301   2.387  1.6282  0.2093  2.7644
  507TIP3    H223013   1.281   2.405   2.277 -2.8284 -0.7069  1.8982
  508TIP3   OH223014   3.568   5.946   5.189  0.7909 -0.4494 -0.2547
  508TIP3    H123015   3.553   5.943   5.095  2.1013 -0.1562 -0.4990
  508TIP3    H223016   3.626   6.021   5.202  0.3412 -0.2649  0.8371
  509TIP3   OH223017   2.164   5.302   5.919 -0.7212  0.2204  0.0778
  509TIP3    H123018   2.215   5.372   5.959 -1.2190  0.6250  0.0155
  509TIP3    H223019   2.140   5.337   5.833  0.7396 -0.8173 -0.7982
  510TIP3   OH223020   0.399   5.640   1.272 -0.2505  0.4045 -0.3373
  510TIP3    H123021   0.401   5.692   1.352 -0.3930  0.7495 -0.5551
  510TIP3    H223022   0.344   5.564   1.294  0.1569  0.2163  0.0539
  511TIP3   OH223023   4.156   2.885  12.459  0.4033 -0.1091  0.0834
  511TIP3    H123024   4.237   2.885  12.408  1.2176 -0.5811  1.3192
  511TIP3    H223025   4.146   2.976  12.488 -0.1972  0.2146 -1.0741
  512TIP3   OH223026   5.130   3.804  15.218  0.5466 -0.4197  0.1918
  512TIP3    H123027   5.154   3.819  15.310 -0.1328  0.8554  0.1835
  512TIP3    H223028   5.214   3.792  15.173  0.9498  0.1498  0.7814
  513TIP3   OH223029   2.450   0.011  11.814  0.1845  0.4314  0.4336
  513TIP3    H123030   2.425   0.033  11.904  0.8034  1.7936  0.2938
  513TIP3    H223031   2.475   0.094  11.775  1.7433 -0.3946 -0.4285
  514TIP3   OH223032   5.317   5.378   1.979 -0.4797  0.1262 -0.1527
  514TIP3    H123033   5.245   5.387   2.041  0.1198 -3.2396  1.2398
  514TIP3    H223034   5.380   5.445   2.006 -1.6116  0.8768  0.7355
  515TIP3   OH223035   4.269   1.310  15.444 -0.1563 -0.4017 -0.5682
  515TIP3    H123036   4.225   1.288  15.361  1.6806 -0.7594 -1.5105
  515TIP3    H223037   4.249   1.402  15.459 -3.1762 -1.1128  0.3494
  516TIP3   OH223038   5.828   0.692  13.936 -0.2178 -0.4166  0.1116
  516TIP3    H123039   5.889   0.619  13.931 -0.0773 -0.2595 -0.5507
  516TIP3    H223040   5.883   0.770  13.937 -0.2990 -0.3320  2.3088
  517TIP3   OH223041   2.436   1.264   2.416 -0.0080 -0.6782  0.0460
  517TIP3    H123042   2.450   1.356   2.440 -0.1755 -0.4726 -0.6279
  517TIP3    H223043   2.420   1.220   2.500  1.2790 -0.3219  0.5021
  518TIP3   OH223044   1.722   2.146   3.078 -0.4142 -0.7632  0.3631
  518TIP3    H123045   1.699   2.224   3.028 -2.3245 -0.1669  2.0259
  518TIP3    H223046   1.763   2.180   3.158  1.7314 -1.6505 -0.2972
  519TIP3   OH223047   0.500   3.401  10.290 -0.0917  0.0988  0.7325
  519TIP3    H123048   0.498   3.417  10.384  0.5914  1.0119  0.6128
  519TIP3    H223049   0.578   3.347  10.277  0.3483  0.7514  0.6001
  520TIP3   OH223050   3.448   0.127   3.755 -0.9925  0.2280  0.5334
  520TIP3    H123051   3.480   0.106   3.667  0.8551  0.5039  1.1065
  520TIP3    H223052   3.407   0.213   3.746 -0.2427  0.5465  0.0537
  521TIP3   OH223053   4.490   4.449   2.512 -0.2358 -0.1966  0.1640
  521TIP3    H123054   4.528   4.382   2.569 -0.1921 -0.8375 -0.6136
  521TIP3    H223055   4.564   4.486   2.464 -0.3122  0.1523  0.3056
  522TIP3   OH223056   5.103   3.484   0.816  0.2196  0.2669 -0.0823
  522TIP3    H123057   5.116   3.559   0.757 -1.3701  0.4106 -0.2773
  522TIP3    H223058   5.017   3.498   0.855  1.3999  0.4378  2.7018
  523TIP3   OH223059   2.014   4.110  12.470  0.4730  0.3891  0.1113
  523TIP3    H123060   1.983   4.169  12.401  2.4141 -0.1498 -1.3094
  523TIP3    H223061   1.997   4.158  12.551 -0.1116  1.8934 -0.8495
  524TIP3   OH223062   6.021   1.545   4.490 -0.3458  0.2932  0.0857
  524TIP3    H123063   6.086   1.527   4.558  0.2211 -3.5824 -1.2587
  524TIP3    H223064   6.072   1.563   4.412 -0.8441 -1.4374 -0.6734
  525TIP3   OH223065   3.071   5.451  11.175  0.4635 -0.5365  0.4296
  525TIP3    H123066   3.154   5.498  11.179  0.2378 -0.1640  0.7649
  525TIP3    H223067   3.066   5.419  11.084 -0.2349  1.6729 -0.3669
  526TIP3   OH223068   6.008   5.695  12.327 -0.0146  0.0333  0.3131
  526TIP3    H123069   5.995   5.697  12.422 -2.4477 -1.0352  0.0812
  526TIP3    H223070   6.065   5.619  12.312  0.4410  0.2487  0.9131
  527TIP3   OH223071   3.955   2.306  15.527  0.7723  0.2285  0.2512
  527TIP3    H123072   3.905   2.334  15.603  1.3149  1.2431  0.2430
  527TIP3    H223073   3.911   2.346  15.452 -0.2454 -1.4212 -0.0797
  528TIP3   OH223074   0.647   4.695   2.804 -0.5261  0.0837 -0.0202
  528TIP3    H123075   0.569   4.715   2.753 -1.0795 -1.0557  0.3388
  528TIP3    H223076   0.718   4.695   2.740 -1.0080 -0.0422 -0.5699
  529TIP3   OH223077   6.185   4.295  11.192  0.6372  0.1562  0.7039
  529TIP3    H123078   6.187   4.390  11.178 -0.4570  0.0197 -0.5894
  529TIP3    H223079   6.219   4.283  11.280  0.4242  1.7910  1.0355
  530TIP3   OH223080   6.708   2.946  13.856 -0.8149 -0.0100  0.4741
  530TIP3    H123081   6.640   2.891  13.896  0.0385 -0.8577  0.8031
  530TIP3    H223082   6.783   2.887  13.847 -0.0119  1.0078  0.4367
  531TIP3   OH223083   5.914   4.068  16.890  0.1770  0.4743 -0.3007
  531TIP3    H123084   6.005   4.098  16.885  0.0863  0.5818 -1.4166
  531TIP3    H223085   5.917   3.977  16.862  0.1537 -0.0112  1.1757
  532TIP3   OH223086   0.350   6.233   1.548 -0.2592  0.0351 -0.0211
  532TIP3    H123087   0.270   6.188   1.574 -0.9294 -0.0216 -2.0105
  532TIP3    H223088   0.416   6.164   1.542 -0.8580 -0.4476 -1.3970
  533TIP3   OH223089   4.741   1.790   4.730 -0.1597  0.2377  0.2060
  533TIP3    H123090   4.731   1.771   4.823  0.7049 -0.9386  0.0795
  533TIP3    H223091   4.770   1.881   4.727  0.0669  0.2046  1.1104
  534TIP3   OH223092   6.002   1.787  14.642  0.6787  0.4982  0.0028
  534TIP3    H123093   5.989   1.855  14.708  0.7197 -0.1675  0.7150
  534TIP3    H223094   6.056   1.721  14.686  0.0309 -0.3414 -0.4161
  535TIP3   OH223095   3.459   5.932   6.655 -0.8657  0.1220  0.1333
  535TIP3    H123096   3.394   5.883   6.604  1.3220 -2.2060 -0.5986
  535TIP3    H223097   3.453   5.893   6.743 -0.2509 -0.3788 -0.0354
  536TIP3   OH223098   2.468   0.261   1.052  0.7721  0.0259  0.1828
  536TIP3    H123099   2.473   0.182   1.106  1.0590  0.0154  0.1433
  536TIP3    H223100   2.376   0.287   1.056  0.7843  0.0100  0.6534
  537TIP3   OH223101   0.945   4.209  12.456  0.3099 -0.4140  0.0851
  537TIP3    H123102   0.923   4.294  12.420 -1.1954 -1.1473 -0.8405
  537TIP3    H223103   0.868   4.154  12.438  1.0116 -1.8217  1.1295
  538TIP3   OH223104   3.267   3.695  12.311  0.4079  0.6471  0.1177
  538TIP3    H123105   3.186   3.705  12.362 -0.1738  0.6956 -0.7853
  538TIP3    H223106   3.244   3.726  12.224  0.9897 -0.7148 -0.5442
  539TIP3   OH223107   6.199   0.355  16.576  0.0940  0.2501  0.2545
  539TIP3    H123108   6.169   0.351  16.486  0.4568  2.4785 -0.0155
  539TIP3    H223109   6.294   0.345  16.570 -0.0309 -1.6541  0.6380
  540TIP3   OH223110   2.126   1.917  10.432  0.4462 -0.0608 -0.6860
  540TIP3    H123111   2.192   1.897  10.498 -1.5956 -1.2879  1.1317
  540TIP3    H223112   2.139   1.851  10.364  0.9572 -0.4000 -0.2637
  541TIP3   OH223113   2.975   0.559   0.996  0.0103 -0.1583  0.0636
  541TIP3    H123114   3.024   0.492   1.044  0.0642  0.0787  0.3445
  541TIP3    H223115   3.028   0.638   1.006  0.4816 -0.2886 -1.1287
  542TIP3   OH223116   4.238   6.334  12.881  0.1985  0.3304 -0.3074
  542TIP3    H123117   4.160   6.376  12.845 -0.1581  1.6405  1.7789
  542TIP3    H223118   4.311   6.371  12.833 -0.3146  1.0656 -0.5260
  543TIP3   OH223119   2.495   0.309   4.849  0.3286  0.0242  0.0899
  543TIP3    H123120   2.478   0.395   4.811  0.3834  0.5867  1.2909
  543TIP3    H223121   2.569   0.323   4.908 -0.3866 -0.5753  1.1694
  544TIP3   OH223122   3.263   1.513   0.974 -0.4690  0.6655  0.2994
  544TIP3    H123123   3.199   1.561   1.027  0.1534  1.5506  0.2760
  544TIP3    H223124   3.308   1.581   0.924 -1.6358 -0.1832 -2.0836
  545TIP3   OH223125   3.185   5.697  15.540  0.6400 -0.1187  0.1659
  545TIP3    H123126   3.134   5.640  15.598 -0.0168 -0.5276 -0.7840
  545TIP3    H223127   3.129   5.773  15.526 -0.3381 -1.1190 -1.8850
  546TIP3   OH223128   3.380   1.718  15.316 -0.3285 -0.1001 -0.3688
  546TIP3    H123129   3.418   1.698  15.401  0.0005 -0.0186 -0.4950
  546TIP3    H223130   3.371   1.813  15.315 -0.3489 -0.1024 -0.4178
  547TIP3   OH223131   5.628   1.413  10.864  0.2502 -0.3356 -0.6978
  547TIP3    H123132   5.595   1.326  10.841 -1.3273 -0.6709  2.2674
  547TIP3    H223133   5.552   1.471  10.852  0.0293 -0.1670  1.1323
  548TIP3   OH223134   3.266   2.923   5.944  0.6876 -0.5294  0.4190
  548TIP3    H123135   3.262   2.994   6.008  1.5202 -0.4934  0.4421
  548TIP3    H223136   3.352   2.932   5.903  0.2676 -0.7085 -0.5292
  549TIP3   OH223137   0.052   6.394  11.365  0.1916 -0.0625  0.3996
  549TIP3    H123138   0.090   6.311  11.337 -0.6517  0.0860 -1.3449
  549TIP3    H223139  -0.042   6.386  11.344 -0.0415  1.0129  0.9602
  550TIP3   OH223140   0.675   3.227  14.879  0.1639  0.2248  0.1725
  550TIP3    H123141   0.676   3.251  14.786  2.3491  2.2856  0.6495
  550TIP3    H223142   0.614   3.289  14.919  0.6607  0.5833  0.3821
  551TIP3   OH223143   5.587   5.651   4.884  0.9642  0.2598 -0.3124
  551TIP3    H123144   5.586   5.623   4.792  0.3570  0.9026 -0.5124
  551TIP3    H223145   5.517   5.717   4.889  0.7615 -0.0198  0.6896
  552TIP3   OH223146   4.781   3.509  13.136 -0.6884  0.0849  0.3509
  552TIP3    H123147   4.772   3.603  13.154  0.9247  0.4861 -0.6772
  552TIP3    H223148   4.753   3.466  13.217  0.6925  1.5603  1.6893
  553TIP3   OH223149   2.504   6.639   6.614  0.6511  0.3178  0.2532
  553TIP3    H123150   2.489   6.734   6.615 -0.1802  0.2333 -1.1561
  553TIP3    H223151   2.418   6.601   6.634  0.2018 -0.1338 -2.2276
  554TIP3   OH223152   1.537   4.720  12.394  0.5932 -0.2335 -0.5511
  554TIP3    H123153   1.575   4.632  12.385 -0.2452 -0.6564 -0.0791
  554TIP3    H223154   1.608   4.773  12.430  0.9104 -0.8879 -0.1861
  555TIP3   OH223155   1.064   1.300   1.041 -0.6046 -0.2615  0.0560
  555TIP3    H123156   1.154   1.279   1.065 -0.6910 -1.0648 -0.2942
  555TIP3    H223157   1.010   1.246   1.099 -0.8381 -0.8128 -0.6599
  556TIP3   OH223158   3.517   4.645   5.364 -0.5572 -0.1810  0.6152
  556TIP3    H123159   3.568   4.688   5.433 -0.1047 -0.2064  0.3045
  556TIP3    H223160   3.515   4.553   5.388 -1.3982 -0.0248  1.2029
  557TIP3   OH223161   4.328   2.574  13.324  0.3677  0.1635  0.9488
  557TIP3    H123162   4.298   2.483  13.319  0.2696  0.1820  1.1864
  557TIP3    H223163   4.328   2.604  13.233  1.1627 -0.3175  0.7818
  558TIP3   OH223164   0.943   4.526  16.880 -0.3113  0.1187  0.0190
  558TIP3    H123165   1.036   4.510  16.866 -0.4077 -1.3362  0.8483
  558TIP3    H223166   0.915   4.455  16.938 -1.5345  1.5719  1.3069
  559TIP3   OH223167   6.108   0.891  15.065 -0.4723  0.4102  0.2991
  559TIP3    H123168   6.195   0.884  15.102 -0.0328  0.7928 -0.6388
  559TIP3    H223169   6.053   0.836  15.122  0.3322  0.3245  1.0029
  560TIP3   OH223170   6.740   1.921   2.237  0.0476  0.2918  0.3680
  560TIP3    H123171   6.675   1.987   2.213  0.0762 -0.1426 -0.9834
  560TIP3    H223172   6.689   1.841   2.253  0.2097  0.0159 -0.4447
  561TIP3   OH223173   3.257   0.628   3.536  0.5155 -0.3441  0.2479
  561TIP3    H123174   3.231   0.629   3.443  2.0911 -1.2295 -0.2430
  561TIP3    H223175   3.306   0.709   3.548  1.4564 -0.8447 -0.0791
  562TIP3   OH223176   4.500   3.818  11.459  0.1559  0.7096  0.1659
  562TIP3    H123177   4.421   3.805  11.405  0.3137 -1.1259  0.3335
  562TIP3    H223178   4.569   3.835  11.395  0.2033 -0.7538 -0.2194
  563TIP3   OH223179   2.397   0.184  13.860 -0.2545 -0.1137  0.2518
  563TIP3    H123180   2.353   0.163  13.778 -1.7711 -1.0421  1.2581
  563TIP3    H223181   2.328   0.222  13.915  1.0142  1.7214  0.6874
  564TIP3   OH223182   0.535   1.570   5.690  0.1864 -0.4333  0.0040
  564TIP3    H123183   0.481   1.500   5.653 -0.5193 -0.1729  0.5287
  564TIP3    H223184   0.539   1.551   5.783  1.0526 -0.4724 -0.0268
  565TIP3   OH223185   6.681   2.652  14.637 -0.0329 -0.0683  0.7175
  565TIP3    H123186   6.627   2.693  14.705 -0.7143  1.1167 -0.4834
  565TIP3    H223187   6.638   2.676  14.555  1.3279 -0.6101 -0.1876
  566TIP3   OH223188   5.201   3.547   2.693  0.5908  0.1366  0.7244
  566TIP3    H123189   5.294   3.538   2.672  0.2310  0.8773 -1.4377
  566TIP3    H223190   5.161   3.577   2.612 -1.5641 -0.1976  1.5995
  567TIP3   OH223191   5.689   0.830   1.113 -0.0312  0.5409 -0.3326
  567TIP3    H123192   5.639   0.908   1.140  0.4800  0.7039  0.1537
  567TIP3    H223193   5.743   0.809   1.189 -0.4946 -0.5675 -0.2956
  568TIP3   OH223194   1.212   6.243   2.592 -0.0024  0.0053  0.0069
  568TIP3    H123195   1.150   6.234   2.665  1.2297 -2.2525  0.8463
  568TIP3    H223196   1.168   6.202   2.518 -0.4158  0.4536 -0.0031
  569TIP3   OH223197   6.604   5.073  15.657  0.1522 -0.7123  0.6263
  569TIP3    H123198   6.622   5.048  15.748 -0.7186  1.9799  1.6345
  569TIP3    H223199   6.509   5.070  15.650 -0.0276  1.9791  0.8291
  570TIP3   OH223200   5.404   3.198  12.375  0.5845  0.2265  0.1848
  570TIP3    H123201   5.400   3.294  12.367 -1.2941  0.0728 -1.2023
  570TIP3    H223202   5.461   3.184  12.451  0.1916  2.4617  0.9933
  571TIP3   OH223203   5.042   1.845  13.689  0.1945 -0.0226  0.0306
  571TIP3    H123204   5.033   1.755  13.721 -2.8695 -0.0574 -0.5659
  571TIP3    H223205   5.058   1.836  13.596 -0.1904  0.0361 -0.0428
  572TIP3   OH223206   4.745   4.195  11.060  0.0355 -0.1889 -0.4213
  572TIP3    H123207   4.719   4.147  11.138  1.2965 -1.6362 -0.8251
  572TIP3    H223208   4.841   4.199  11.065  0.2320 -1.1172 -2.2846
  573TIP3   OH223209   3.059   2.990  10.899  0.3676  0.3704  0.3869
  573TIP3    H123210   2.987   3.041  10.863 -2.0698 -1.3899  2.4293
  573TIP3    H223211   3.020   2.908  10.927  3.0767 -0.5078  2.0466
  574TIP3   OH223212   1.974   5.824  15.283  0.0683  0.2442  0.8368
  574TIP3    H123213   1.900   5.814  15.343 -0.7911  1.3078 -0.0020
  574TIP3    H223214   2.006   5.735  15.269 -1.2064 -0.2704  1.0334
  575TIP3   OH223215   3.363   3.502   5.490  0.2097  0.4168  0.6714
  575TIP3    H123216   3.348   3.457   5.407 -2.3385 -2.4468  2.4708
  575TIP3    H223217   3.328   3.590   5.476 -1.2445 -0.3531 -1.0080
  576TIP3   OH223218   2.989   6.031   0.101 -0.1514 -0.6575  0.4657
  576TIP3    H123219   3.021   6.101   0.043 -0.1578 -1.2391 -0.2625
  576TIP3    H223220   3.004   5.951   0.051  0.4801 -1.2423  1.5795
  577TIP3   OH223221   2.141   6.141   5.243  0.3500 -0.5921  0.3537
  577TIP3    H123222   2.077   6.181   5.184 -0.1612 -0.0591  1.2550
  577TIP3    H223223   2.205   6.101   5.184  1.0912  1.8333 -0.6350
  578TIP3   OH223224   2.441   0.569   4.199 -0.4275 -0.4010 -0.3871
  578TIP3    H123225   2.367   0.509   4.192  0.5133 -1.6885  0.1913
  578TIP3    H223226   2.490   0.538   4.275  0.6136  0.5041 -0.6645
  579TIP3   OH223227   4.295   1.520  15.715 -0.1419 -0.0353 -0.5487
  579TIP3    H123228   4.379   1.556  15.688  0.0943 -0.9056 -1.0164
  579TIP3    H223229   4.316   1.442  15.765 -0.6592  0.1990  0.0564
  580TIP3   OH223230   5.708   0.048  11.923 -0.4435  0.2111  0.2594
  580TIP3    H123231   5.642   0.107  11.958 -1.2198 -0.5453  0.0837
  580TIP3    H223232   5.682  -0.039  11.953  2.3781  0.1586  3.2364
  581TIP3   OH223233   0.772   3.341   2.024 -0.4065 -0.4245 -0.4198
  581TIP3    H123234   0.742   3.255   1.995 -2.0208 -0.7808  1.9793
  581TIP3    H223235   0.701   3.373   2.080  0.0274  2.6190 -1.4231
  582TIP3   OH223236   0.335   5.673   2.597  0.7834  0.0951 -0.5338
  582TIP3    H123237   0.385   5.663   2.678  0.6920  1.1972 -0.3338
  582TIP3    H223238   0.401   5.675   2.528  0.8345 -1.4677 -0.5828
  583TIP3   OH223239   5.533   4.207  16.602 -0.4648 -0.0237  0.2105
  583TIP3    H123240   5.571   4.203  16.690  0.7922 -0.8606 -0.3535
  583TIP3    H223241   5.572   4.285  16.563 -1.3482  0.5926  0.5119
  584TIP3   OH223242   1.151   1.302  14.710  0.2726 -0.5085 -0.4696
  584TIP3    H123243   1.120   1.212  14.716 -0.2357 -0.3046  0.1365
  584TIP3    H223244   1.240   1.295  14.677  0.0377 -1.1931 -0.9791
  585TIP3   OH223245   0.496   2.698  10.816  1.1236  0.0267 -0.3362
  585TIP3    H123246   0.484   2.610  10.781 -2.3440  0.0784  0.4217
  585TIP3    H223247   0.518   2.751  10.739 -0.8942 -0.8117 -1.5738
  586TIP3   OH223248   0.739   0.570   0.967  0.5746 -0.1737  0.0529
  586TIP3    H123249   0.700   0.514   1.034 -0.0277 -0.5318 -0.5807
  586TIP3    H223250   0.829   0.584   0.997 -0.1677  1.1808  1.8664
  587TIP3   OH223251   2.205   6.281  12.125 -0.5592 -0.3493 -0.1795
  587TIP3    H123252   2.248   6.299  12.042 -0.6979  0.6288 -0.0513
  587TIP3    H223253   2.112   6.280  12.104 -0.6115  0.1998  0.0110
  588TIP3   OH223254   6.819   6.175  16.547 -0.4847 -0.5739  0.0534
  588TIP3    H123255   6.851   6.257  16.508  0.2475  0.0867  1.9377
  588TIP3    H223256   6.888   6.112  16.528 -1.2656 -0.9385 -1.8241
  589TIP3   OH223257   3.748   4.912  12.604  0.3357 -0.4506 -0.0314
  589TIP3    H123258   3.681   4.979  12.593  0.4881 -0.5003 -1.3547
  589TIP3    H223259   3.729   4.873  12.690 -0.4123  0.5336  0.2627
  590TIP3   OH223260   6.652   2.387  14.968  0.5672 -0.5294 -0.6662
  590TIP3    H123261   6.714   2.390  14.895 -0.9010  0.1789 -1.9224
  590TIP3    H223262   6.686   2.450  15.031  1.5401 -0.7179 -0.9864
  591TIP3   OH223263   6.559   4.190  16.940 -0.6028  0.4667  0.5983
  591TIP3    H123264   6.622   4.252  16.977 -1.1243 -0.1531  2.6918
  591TIP3    H223265   6.487   4.244  16.909 -0.1156  1.0343  0.4542
  592TIP3   OH223266   5.559   3.952  15.375  0.3456  0.3487  0.4859
  592TIP3    H123267   5.517   4.035  15.398  0.3977  0.2652  0.8878
  592TIP3    H223268   5.575   3.959  15.281 -1.2954  0.0692  0.1409
  593TIP3   OH223269   5.604   2.202   2.493  0.2261 -0.2204 -0.5709
  593TIP3    H123270   5.574   2.121   2.535  0.8380 -0.1293  0.0610
  593TIP3    H223271   5.593   2.269   2.561  1.6375 -0.1521 -0.3824
  594TIP3   OH223272   0.848   0.054  11.757  0.0138  0.2239 -0.4010
  594TIP3    H123273   0.840   0.109  11.679 -0.9022 -2.3739 -2.3111
  594TIP3    H223274   0.786   0.092  11.820 -1.7981  0.4914 -2.2305
  595TIP3   OH223275   5.238   3.790  14.279  0.4181 -0.3390  0.3552
  595TIP3    H123276   5.181   3.718  14.252  1.0803 -0.0524 -2.0821
  595TIP3    H223277   5.190   3.869  14.253  0.9292 -0.0167  0.3840
  596TIP3   OH223278   5.750   2.719  11.919 -0.4841 -0.3748  0.2295
  596TIP3    H123279   5.838   2.757  11.912 -0.2728 -0.5028  1.7487
  596TIP3    H223280   5.735   2.676  11.835  1.5905 -1.7581  0.4866
  597TIP3   OH223281   1.725   0.974   1.308 -0.3305  0.0576  0.4841
  597TIP3    H123282   1.728   0.915   1.233  1.7216  0.0733  0.4997
  597TIP3    H223283   1.667   0.931   1.370 -0.6065 -0.8554 -0.3716
  598TIP3   OH223284   4.372   5.369   6.737  0.2677  0.0284 -0.7162
  598TIP3    H123285   4.440   5.302   6.746 -0.0962 -0.3106 -0.3939
  598TIP3    H223286   4.300   5.323   6.693  0.2128  0.3558 -0.9666
  599TIP3   OH223287   0.521   1.293   2.582  0.1303  0.0324 -0.5562
  599TIP3    H123288   0.575   1.277   2.504  1.0814  1.1660 -0.1484
  599TIP3    H223289   0.469   1.370   2.560  0.1787  0.1746 -0.1693
  600TIP3   OH223290   3.107   6.455   3.860  0.5450  0.0638 -0.3909
  600TIP3    H123291   3.190   6.409   3.871  0.3646 -0.5154 -1.3965
  600TIP3    H223292   3.066   6.414   3.784 -0.7301  0.2541  0.1728
  601TIP3   OH223293   1.906   0.454   1.113 -0.3651 -0.3986  0.0290
  601TIP3    H123294   1.922   0.548   1.110  0.5875 -0.5270  0.8178
  601TIP3    H223295   1.886   0.436   1.205 -0.0097 -1.0541 -0.0192
  602TIP3   OH223296   1.210   6.088  16.181 -0.2966 -0.7885  0.0877
  602TIP3    H123297   1.114   6.085  16.174 -0.3452 -0.1021  0.3458
  602TIP3    H223298   1.227   6.153  16.249  0.3900  0.5951 -1.3292
  603TIP3   OH223299   5.962   5.520   0.140  0.2951 -0.8104 -0.2057
  603TIP3    H123300   5.868   5.542   0.138  0.7375  1.2633 -0.9442
  603TIP3    H223301   5.977   5.471   0.060  0.3546  1.5190 -1.7284
  604TIP3   OH223302   1.062   0.234  15.820  0.1278  0.3800  0.0302
  604TIP3    H123303   1.002   0.224  15.893 -0.2068  1.6592 -0.0496
  604TIP3    H223304   1.144   0.194  15.850  0.0527  1.0422  1.1758
  605TIP3   OH223305   6.099   2.759   4.397  0.1429 -0.5311  0.4576
  605TIP3    H123306   6.121   2.851   4.387  0.6709 -0.7880 -0.8796
  605TIP3    H223307   6.004   2.755   4.383  0.1916 -0.2581  0.0482
  606TIP3   OH223308   1.662   3.694   3.277  0.3507  0.1711 -0.0405
  606TIP3    H123309   1.718   3.750   3.224 -0.1703  1.7382  0.9859
  606TIP3    H223310   1.592   3.752   3.308 -0.2074 -1.0373  1.0739
  607TIP3   OH223311   1.394   3.250  16.238  0.1805 -0.1708 -0.2394
  607TIP3    H123312   1.336   3.307  16.288  0.2814 -1.3803  1.3309
  607TIP3    H223313   1.443   3.309  16.181  0.9412  1.4608  1.9785
  608TIP3   OH223314   6.600   6.103  12.194  0.6800  0.2084 -0.1613
  608TIP3    H123315   6.577   6.061  12.276 -0.3113  1.0116 -0.0084
  608TIP3    H223316   6.517   6.112  12.147  1.0031  1.1097 -0.5973
  609TIP3   OH223317   5.891   2.241  15.504 -0.1273  0.4094  0.5128
  609TIP3    H123318   5.917   2.302  15.435 -0.4559  2.8258  2.3823
  609TIP3    H223319   5.857   2.164  15.457  1.2740  1.1985 -1.9586
  610TIP3   OH223320   3.284   5.129  12.241  0.0318 -0.3414  0.2840
  610TIP3    H123321   3.263   5.154  12.151  0.3968  0.3504  0.3786
  610TIP3    H223322   3.215   5.168  12.294 -0.3917 -1.0631  0.2831
  611TIP3   OH223323   0.260   0.399   4.467 -0.2598  0.2437  0.1831
  611TIP3    H123324   0.341   0.350   4.476 -0.1384  0.6780  1.7139
  611TIP3    H223325   0.285   0.490   4.485 -1.1054  0.3607  0.8414
  612TIP3   OH223326   1.250   3.233  11.530  0.3243  0.0828 -0.2279
  612TIP3    H123327   1.260   3.161  11.591 -1.8790  1.3044  1.7304
  612TIP3    H223328   1.161   3.266  11.545  1.0238  2.8352 -1.4375
  613TIP3   OH223329   6.428   0.170  15.223  0.5117 -0.4634 -0.2378
  613TIP3    H123330   6.383   0.187  15.306  1.8400 -0.2359  0.4569
  613TIP3    H223331   6.487   0.244  15.213  2.0642 -1.6639 -0.2035
  614TIP3   OH223332   6.501   1.708   0.341  0.2508  1.0824 -0.0782
  614TIP3    H123333   6.550   1.772   0.393  1.2822  0.0012  0.3115
  614TIP3    H223334   6.567   1.664   0.288 -0.6275  1.2740 -1.3727
  615TIP3   OH223335   3.264   0.868  11.875 -0.0189 -0.2228 -0.4584
  615TIP3    H123336   3.228   0.798  11.821  0.0364 -1.3742  0.9061
  615TIP3    H223337   3.331   0.824  11.929 -0.4970  0.7152  0.9639
  616TIP3   OH223338   2.259   6.299  10.886  0.5852 -0.2975 -0.4221
  616TIP3    H123339   2.165   6.302  10.868  0.4840  1.1905  0.1857
  616TIP3    H223340   2.276   6.210  10.916 -0.6444 -0.5559 -0.4649
  617TIP3   OH223341   2.117   6.774  10.254 -0.2403  0.4882  0.3029
  617TIP3    H123342   2.099   6.723  10.333 -1.2950  0.5142  0.0956
  617TIP3    H223343   2.198   6.738  10.219 -2.1998 -2.8354 -1.2605
  618TIP3   OH223344   2.037   3.701  13.513 -0.1832 -0.3571 -0.1531
  618TIP3    H123345   2.027   3.783  13.464 -0.2891 -0.2629  0.0259
  618TIP3    H223346   2.015   3.724  13.603 -0.2015 -0.5801 -0.1005
  619TIP3   OH223347   4.894   1.072  12.474 -0.2654  0.1524 -0.3153
  619TIP3    H123348   4.942   1.075  12.557 -1.5406 -0.0627  0.4643
  619TIP3    H223349   4.945   1.013  12.419 -1.3277 -2.8521  1.6462
  620TIP3   OH223350   1.092   3.037  14.522 -0.3774 -0.3091 -0.1992
  620TIP3    H123351   1.009   3.047  14.568 -0.6325  0.1259 -0.7393
  620TIP3    H223352   1.157   3.074  14.581 -0.5324 -0.8570  0.3226
  621TIP3   OH223353   3.418   4.855  17.161  0.0501  0.0305  0.0330
  621TIP3    H123354   3.499   4.851  17.110 -0.8199  1.0945 -1.5356
  621TIP3    H223355   3.390   4.946  17.153 -2.3347 -0.7324 -1.1991
  622TIP3   OH223356   3.862   0.834   0.551  0.1986  0.1389 -0.5442
  622TIP3    H123357   3.819   0.752   0.577  0.3760  0.2789  0.2413
  622TIP3    H223358   3.796   0.901   0.567  0.4155  0.2610 -0.1352
  623TIP3   OH223359   4.052   1.006   1.486  0.0805 -0.8968  0.1204
  623TIP3    H123360   4.119   0.940   1.504  1.3439 -1.0720 -4.1132
  623TIP3    H223361   4.075   1.080   1.542  2.3462 -1.8759  0.6007
  624TIP3   OH223362   3.589   2.090  15.712 -0.3512  0.2300 -0.2677
  624TIP3    H123363   3.601   2.078  15.618  0.8906 -0.3218 -0.0672
  624TIP3    H223364   3.557   2.179  15.722 -0.4745  0.2973 -1.2153
  625TIP3   OH223365   0.968   2.762   3.884 -0.1913  0.3408  0.1119
  625TIP3    H123366   0.965   2.698   3.813 -1.7848  0.5109 -0.0145
  625TIP3    H223367   0.891   2.742   3.938  1.6630 -0.6444  2.6068
  626TIP3   OH223368   0.184   2.918  15.378 -0.7047  0.2156 -0.0421
  626TIP3    H123369   0.108   2.864  15.399 -0.3426  0.1143  1.0650
  626TIP3    H223370   0.250   2.857  15.345 -0.1237 -0.1307  1.6619
  627TIP3   OH223371   0.358   5.252   2.448 -0.0455  0.1319 -0.5044
  627TIP3    H123372   0.402   5.334   2.470 -1.3115 -0.0138  3.1888
  627TIP3    H223373   0.266   5.275   2.440 -0.1873 -0.6540 -1.4231
  628TIP3   OH223374   3.363   5.578   6.022  0.1460  0.5510 -0.0578
  628TIP3    H123375   3.278   5.534   6.016  1.3825 -2.0204 -0.2633
  628TIP3    H223376   3.397   5.553   6.107  1.6829 -0.4922 -0.9286
  629TIP3   OH223377   4.223   1.889  15.906 -0.1271  0.3762 -0.6624
  629TIP3    H123378   4.188   1.844  15.983 -0.4897  0.2497 -0.8984
  629TIP3    H223379   4.227   1.981  15.933 -1.6701  0.5659 -0.9809
  630TIP3   OH223380   0.089   0.632   2.437 -0.3606  0.0336 -0.1354
  630TIP3    H123381   0.103   0.676   2.354 -0.0874  0.1339 -0.0365
  630TIP3    H223382   0.068   0.702   2.499 -0.8160 -0.0661 -0.1751
  631TIP3   OH223383   1.140   6.305  14.972  0.3404 -0.2105 -0.0680
  631TIP3    H123384   1.083   6.311  15.049 -0.3525 -0.7436 -0.5306
  631TIP3    H223385   1.229   6.308  15.008  0.0268 -0.2805  0.7374
  632TIP3   OH223386   1.052   4.300  15.182 -0.6545  0.4705  0.2339
  632TIP3    H123387   0.971   4.349  15.167 -0.4979  1.3036  1.8473
  632TIP3    H223388   1.024   4.211  15.199 -1.0034  0.0952 -1.9937
  633TIP3   OH223389   3.582   2.412  15.052  0.3894  0.3529 -0.0221
  633TIP3    H123390   3.653   2.474  15.073  1.6358 -0.1912 -2.2086
  633TIP3    H223391   3.502   2.464  15.059  0.7395  0.6026  4.0112
  634TIP3   OH223392   6.457   3.755   4.903 -0.0819 -0.1462  0.1234
  634TIP3    H123393   6.488   3.802   4.980 -2.4371 -1.0456  1.7454
  634TIP3    H223394   6.478   3.812   4.829  1.4211  1.1707  1.5035
  635TIP3   OH223395   3.681   6.419   0.703 -0.0341  0.0923 -0.1047
  635TIP3    H123396   3.734   6.498   0.718  0.0257 -0.3275  2.3036
  635TIP3    H223397   3.655   6.425   0.611 -0.7144  3.3490  0.1686
  636TIP3   OH223398   6.051   3.484   0.496  0.3239  0.1713 -0.4985
  636TIP3    H123399   6.137   3.443   0.498  0.0466 -0.4451 -0.8931
  636TIP3    H223400   6.056   3.555   0.560  1.2020  0.2977 -0.7019
  637TIP3   OH223401   1.631   4.755  15.865  0.0551 -0.0267 -0.0502
  637TIP3    H123402   1.610   4.764  15.772 -0.0178  2.1231  0.1229
  637TIP3    H223403   1.710   4.701  15.867  0.9604  1.1718 -1.4850
  638TIP3   OH223404   2.521   2.987   2.390  0.1460 -0.1212 -0.5198
  638TIP3    H123405   2.536   2.892   2.397  1.4877  0.1447  1.0720
  638TIP3    H223406   2.608   3.026   2.405 -0.8674  1.4045  2.2915
  639TIP3   OH223407   2.563   2.189   3.032 -0.3756  0.1161 -0.3213
  639TIP3    H123408   2.638   2.190   3.092  1.0089  0.4217 -1.9747
  639TIP3    H223409   2.556   2.097   3.004 -0.5727  0.1031 -0.2307
  640TIP3   OH223410   6.579   5.440   5.149 -0.4383  0.4011  0.4723
  640TIP3    H123411   6.620   5.494   5.216 -1.0374  1.9219 -0.3428
  640TIP3    H223412   6.507   5.397   5.195 -0.2916  0.7207  1.0134
  641TIP3   OH223413   0.449   3.150   0.592 -1.0103  0.3216 -0.0416
  641TIP3    H123414   0.456   3.163   0.497 -2.0969  1.1789 -0.0136
  641TIP3    H223415   0.394   3.072   0.601  0.7982 -1.0302 -0.1162
  642TIP3   OH223416   1.445   5.104  12.552 -0.5956  0.4312  0.0679
  642TIP3    H123417   1.414   5.114  12.642  0.2990 -2.4027  0.7822
  642TIP3    H223418   1.540   5.107  12.559 -0.5257  1.1589 -0.9548
  643TIP3   OH223419   4.642   3.631  14.754 -1.2701 -0.1172  0.1318
  643TIP3    H123420   4.714   3.596  14.702 -0.7534 -1.0878  1.4272
  643TIP3    H223421   4.626   3.718  14.717  0.6372  0.1709 -0.1556
  644TIP3   OH223422   0.370   1.970   5.838 -0.5124  0.1368  0.2553
  644TIP3    H123423   0.443   1.934   5.787 -1.3542  0.6296 -1.3507
  644TIP3    H223424   0.407   2.047   5.882  0.6159 -1.1419  1.6453
  645TIP3   OH223425   2.596   5.346   4.467  0.7371 -0.1796 -0.6111
  645TIP3    H123426   2.539   5.411   4.427 -0.8388 -1.2682 -0.2521
  645TIP3    H223427   2.538   5.294   4.523  2.2948 -0.6709  0.6327
  646TIP3   OH223428   2.759   1.394   2.310  0.3598  0.2911  0.3765
  646TIP3    H123429   2.705   1.342   2.250  0.5217  0.4653  0.0733
  646TIP3    H223430   2.746   1.354   2.396 -3.0299  2.4178  1.0291
  647TIP3   OH223431   3.635   5.927   5.649 -0.4494  0.5960  0.3240
  647TIP3    H123432   3.558   5.978   5.624 -2.0215 -1.0157  1.5992
  647TIP3    H223433   3.636   5.852   5.589 -1.2325 -0.5627  1.6963
  648TIP3   OH223434   3.870   6.516  15.154  0.0754 -0.0945 -0.0102
  648TIP3    H123435   3.871   6.550  15.065  0.4254  1.5223  0.5827
  648TIP3    H223436   3.883   6.592  15.210 -1.0421 -0.9275  1.4831
  649TIP3   OH223437   5.244   5.992  13.151 -0.3348  0.1230 -0.6522
  649TIP3    H123438   5.293   5.953  13.079  1.8739 -0.8897  1.2824
  649TIP3    H223439   5.291   6.073  13.171 -0.8041  0.2896 -0.1866
  650TIP3   OH223440   0.543   1.408  15.808 -0.0849  0.0301  0.3246
  650TIP3    H123441   0.615   1.434  15.865 -0.4062  0.7590  0.4217
  650TIP3    H223442   0.541   1.313  15.811  0.1320  0.0507  1.2430
  651TIP3   OH223443   3.257   4.756   3.662 -0.1079  0.0608 -0.1882
  651TIP3    H123444   3.222   4.737   3.750  1.1870  1.4686  0.6886
  651TIP3    H223445   3.181   4.784   3.612 -1.0411 -1.6580  0.1654
  652TIP3   OH223446   3.333   2.417   2.025 -0.1970  0.1001 -0.4898
  652TIP3    H123447   3.388   2.346   2.057  1.0171 -0.4416 -3.4558
  652TIP3    H223448   3.249   2.376   2.006 -0.3127  0.0299  0.1472
  653TIP3   OH223449   3.875   0.058  14.210 -0.3506 -0.1493 -0.6182
  653TIP3    H123450   3.918   0.019  14.134  1.5930  0.0575  0.3236
  653TIP3    H223451   3.848  -0.016  14.264  2.1440 -0.3021  0.5238
  654TIP3   OH223452   0.374   4.467  10.378 -0.3635  0.1541 -0.3157
  654TIP3    H123453   0.416   4.463  10.293  0.1074 -0.9577 -0.0469
  654TIP3    H223454   0.446   4.478  10.440 -0.6666  0.5239 -0.0217
  655TIP3   OH223455   4.504   2.049   1.705  0.8487 -0.4807 -0.1988
  655TIP3    H123456   4.437   1.981   1.698  0.7214 -0.3590 -0.1676
  655TIP3    H223457   4.545   2.050   1.618 -0.5163  0.7975 -0.8746
  656TIP3   OH223458   4.686   3.325   5.329 -0.3952  0.3330 -0.4284
  656TIP3    H123459   4.741   3.324   5.250 -1.5714 -0.5706 -1.2730
  656TIP3    H223460   4.679   3.417   5.352 -0.6136  0.6824 -1.8041
  657TIP3   OH223461   0.337   3.225  12.009  0.3686 -0.3772  0.5465
  657TIP3    H123462   0.259   3.277  12.024  1.4706  1.1758  1.1649
  657TIP3    H223463   0.391   3.239  12.087  2.3748  0.7065 -0.9223
  658TIP3   OH223464   3.740   5.608   4.362 -0.1365 -0.0638 -0.4863
  658TIP3    H123465   3.718   5.689   4.317  1.2852  0.8274  0.3387
  658TIP3    H223466   3.836   5.611   4.371 -0.2331 -0.9060  1.2253
  659TIP3   OH223467   5.422   2.687  14.946 -0.0397  0.2939 -0.1599
  659TIP3    H123468   5.386   2.711  15.031 -1.4982  0.1018 -0.6998
  659TIP3    H223469   5.444   2.770  14.904 -1.2378  0.5060 -0.3968
  660TIP3   OH223470   4.415   3.262  11.738 -0.1138  0.0833 -0.2766
  660TIP3    H123471   4.323   3.234  11.740 -0.0136 -0.2276  1.0943
  660TIP3    H223472   4.412   3.355  11.756 -0.1503  0.0280  0.0083
  661TIP3   OH223473   1.452   5.755  11.927  0.0116  0.3862  0.0152
  661TIP3    H123474   1.386   5.805  11.878 -1.2912  0.1834  1.4798
  661TIP3    H223475   1.403   5.717  12.000  1.9867  1.3029  1.9215
  662TIP3   OH223476   1.973   0.809   1.855 -0.0437  0.2033  0.4345
  662TIP3    H123477   1.908   0.761   1.804  2.0007 -0.5513 -1.6541
  662TIP3    H223478   1.976   0.896   1.815 -0.4379  0.5713  1.1784
  663TIP3   OH223479   3.636   5.423  14.103  0.9128 -0.0619  0.4633
  663TIP3    H123480   3.697   5.389  14.168 -0.4035 -1.3200  1.0976
  663TIP3    H223481   3.652   5.517  14.102  1.6165 -0.1407  1.9119
  664TIP3   OH223482   1.239   4.378  16.034  0.1929  0.4689 -0.3196
  664TIP3    H123483   1.318   4.371  16.088  0.0273  1.3479  0.0524
  664TIP3    H223484   1.256   4.321  15.960  2.1425  2.2989 -1.3945
  665TIP3   OH223485   0.610   3.863   0.116 -0.0225 -0.0617  0.0660
  665TIP3    H123486   0.602   3.833   0.026  0.3326  0.8103 -0.2653
  665TIP3    H223487   0.530   3.833   0.159  0.5775 -1.9994 -0.0793
  666TIP3   OH223488   1.612   0.247   4.078 -0.4425 -0.5985 -0.1410
  666TIP3    H123489   1.579   0.157   4.086 -0.5167 -0.4712  1.1615
  666TIP3    H223490   1.649   0.251   3.990  0.2163 -2.1308  0.0369
  667TIP3   OH223491   6.246   0.566  13.768 -0.1319 -0.3944  0.0539
  667TIP3    H123492   6.166   0.591  13.814  0.5560  1.9331  0.1069
  667TIP3    H223493   6.269   0.480  13.804 -0.4081  0.6652  3.0530
  668TIP3   OH223494   0.026   1.013  16.137  0.0275 -0.6554 -0.0065
  668TIP3    H123495   0.036   1.007  16.232  1.1409  0.7737  0.0029
  668TIP3    H223496  -0.068   1.014  16.123 -0.1954 -2.9045  0.9026
  669TIP3   OH223497   0.918   5.573   1.512  0.2727  0.1060  0.0583
  669TIP3    H123498   0.838   5.605   1.554 -0.9512 -1.7035 -0.7285
  669TIP3    H223499   0.915   5.609   1.424 -0.4991 -1.0975 -0.4467
  670TIP3   OH223500   1.880   2.057   1.958 -0.4654  0.5120 -0.1256
  670TIP3    H123501   1.787   2.038   1.957 -0.1270 -1.2426 -0.1597
  670TIP3    H223502   1.919   1.999   1.893  0.5653  1.8332 -0.7531
  671TIP3   OH223503   3.975   6.437   3.548  0.2623 -0.2603 -0.0453
  671TIP3    H123504   3.918   6.398   3.615 -0.5151  0.2212 -0.4064
  671TIP3    H223505   4.044   6.372   3.534  0.1870 -0.5622  0.8980
  672TIP3   OH223506   2.867   5.921  10.936  0.3487  0.3092 -0.1940
  672TIP3    H123507   2.842   5.921  10.843  3.8849 -1.8351 -1.3335
  672TIP3    H223508   2.928   5.995  10.944 -1.8003  2.0784  1.1901
  673TIP3   OH223509   2.867   4.749   4.262  0.9385 -0.6567 -0.4519
  673TIP3    H123510   2.875   4.828   4.209  0.2380  1.2688  2.0998
  673TIP3    H223511   2.943   4.752   4.321 -1.2067  0.4982  2.4821
  674TIP3   OH223512   5.570   3.686   1.685  0.6152 -0.3955  0.7460
  674TIP3    H123513   5.653   3.667   1.731  0.8749 -0.3670  0.2936
  674TIP3    H223514   5.595   3.747   1.616  0.0594  0.3069  1.1637
  675TIP3   OH223515   6.088   6.708   3.704 -0.2365 -0.2997  0.5228
  675TIP3    H123516   6.045   6.649   3.765  1.0675 -0.4384  1.3262
  675TIP3    H223517   6.132   6.772   3.760  1.7053 -0.9354 -0.2171
  676TIP3   OH223518   4.886   2.817   5.209 -0.2914 -0.4998  0.6692
  676TIP3    H123519   4.849   2.827   5.296 -0.0069 -0.4255  0.7823
  676TIP3    H223520   4.886   2.722   5.193 -1.9928 -0.4219  0.0296
  677TIP3   OH223521   3.194   5.754  13.456 -0.5278  0.3131 -0.6373
  677TIP3    H123522   3.100   5.744  13.470 -0.4962 -1.1519 -1.3209
  677TIP3    H223523   3.234   5.687  13.512  0.0510  0.2699 -1.0909
  678TIP3   OH223524   5.880   5.078  11.787 -0.4532  0.5586 -0.0232
  678TIP3    H123525   5.822   5.153  11.771 -0.1237  0.5144 -1.5591
  678TIP3    H223526   5.907   5.049  11.700  1.1734  0.0045  0.6251
  679TIP3   OH223527   3.730   6.088   6.133 -0.5297 -0.1668  0.3395
  679TIP3    H123528   3.692   6.096   6.221 -1.6174  0.7723 -0.1889
  679TIP3    H223529   3.664   6.042   6.082  0.2564 -1.0404  0.0938
  680TIP3   OH223530   4.164   2.555  11.224 -0.0312 -0.1062  0.0323
  680TIP3    H123531   4.152   2.642  11.185 -1.7704 -0.0331  0.6550
  680TIP3    H223532   4.075   2.524  11.241  0.5093 -2.3125 -0.8023
  681TIP3   OH223533   2.427   4.638   1.716 -1.0347 -0.2271 -0.4563
  681TIP3    H123534   2.394   4.590   1.640  1.5544  0.1073 -1.9020
  681TIP3    H223535   2.414   4.730   1.694 -0.4118 -0.1337 -0.4486
  682TIP3   OH223536   0.802   5.131  15.089  0.3158 -0.4091 -0.7522
  682TIP3    H123537   0.724   5.082  15.062  0.2011 -0.7347  0.1371
  682TIP3    H223538   0.800   5.211  15.036  0.0212 -0.9577 -1.5808
  683TIP3   OH223539   6.038   0.541   0.673  0.4341  0.2943  0.2208
  683TIP3    H123540   6.068   0.459   0.711 -0.3292  0.6666  1.6909
  683TIP3    H223541   5.980   0.515   0.602 -1.0195 -0.5003  1.6379
  684TIP3   OH223542   2.975   2.473   2.751  0.2614  0.7902 -0.3739
  684TIP3    H123543   3.008   2.383   2.744 -0.9493  0.2488  0.5721
  684TIP3    H223544   2.945   2.481   2.842  3.0210  3.1178  0.4952
  685TIP3   OH223545   4.617   3.062   0.783 -0.2874  0.2519  0.4781
  685TIP3    H123546   4.638   3.071   0.691  0.0304  0.2879  0.5556
  685TIP3    H223547   4.595   2.969   0.794  0.7110  0.0243  0.5846
  686TIP3   OH223548   1.261   1.902   3.416  0.1438  0.1987 -0.1788
  686TIP3    H123549   1.213   1.878   3.495 -0.8961  1.3247 -0.4446
  686TIP3    H223550   1.298   1.988   3.436  2.8594 -0.9747  0.3449
  687TIP3   OH223551   5.760   0.261   2.186 -0.3851 -0.2914  0.3902
  687TIP3    H123552   5.812   0.341   2.187  0.7826 -1.0116  0.2790
  687TIP3    H223553   5.812   0.198   2.236 -2.0022 -0.5734  1.7981
  688TIP3   OH223554   3.352   3.143  13.225  0.4126  0.0212 -0.0110
  688TIP3    H123555   3.318   3.227  13.255  0.7653  0.4769 -0.8435
  688TIP3    H223556   3.442   3.163  13.198  0.5195 -0.6358 -0.1452
  689TIP3   OH223557   4.151   6.195   1.919 -0.1621  0.3594  0.0802
  689TIP3    H123558   4.177   6.122   1.975  1.3262  0.6043 -0.2360
  689TIP3    H223559   4.063   6.217   1.947  0.4041  0.2589  2.0905
  690TIP3   OH223560   3.661   6.159  14.569  0.5526 -0.0334 -0.6920
  690TIP3    H123561   3.738   6.104  14.583  0.4600 -0.0006 -0.0134
  690TIP3    H223562   3.628   6.132  14.483  1.0763 -0.3400 -0.8052
  691TIP3   OH223563   4.001   2.864   1.811  0.2531  0.3176 -0.1132
  691TIP3    H123564   3.969   2.843   1.899  2.8343  0.4719  0.9391
  691TIP3    H223565   3.938   2.822   1.752 -0.2946 -1.7855  1.8363
  692TIP3   OH223566   2.128   4.182   1.421 -0.5444 -0.3571  0.7215
  692TIP3    H123567   2.108   4.149   1.333  1.4947  1.5939 -0.5779
  692TIP3    H223568   2.065   4.252   1.436  1.0791  1.5015 -0.6589
  693TIP3   OH223569   1.247   4.951  14.446  0.5406 -0.0824 -0.2082
  693TIP3    H123570   1.177   4.939  14.382  1.2157 -1.7370 -0.6862
  693TIP3    H223571   1.216   5.021  14.503 -1.3002 -0.4761 -0.6808
  694TIP3   OH223572   4.562   1.446   4.235 -0.1159  0.4659 -0.2951
  694TIP3    H123573   4.564   1.351   4.229  0.1063  0.3792  0.8842
  694TIP3    H223574   4.494   1.465   4.299  0.6377  1.0338  0.3667
  695TIP3   OH223575   6.595   1.641   2.090 -0.0284 -0.3180  0.0714
  695TIP3    H123576   6.568   1.730   2.067 -0.3033 -0.6406 -0.8982
  695TIP3    H223577   6.583   1.637   2.185 -0.4432  0.5343  0.0695
  696TIP3   OH223578   3.458   5.438  13.871 -0.1068  0.1821 -0.3885
  696TIP3    H123579   3.515   5.453  13.797  0.7444  1.0724  0.4171
  696TIP3    H223580   3.515   5.446  13.948 -1.4834  2.1941  0.4927
  697TIP3   OH223581   0.231   1.066   0.056 -0.5997 -0.0602  0.2353
  697TIP3    H123582   0.287   1.069   0.134 -1.1668 -0.3372  0.6599
  697TIP3    H223583   0.144   1.088   0.089 -1.0332 -1.1820 -0.1449
  698TIP3   OH223584   5.491   6.434  13.650  0.0765 -0.3909 -0.4352
  698TIP3    H123585   5.415   6.492  13.647  1.4559  1.6641  1.4168
  698TIP3    H223586   5.562   6.484  13.611  0.8099 -1.7502 -0.9287
  699TIP3   OH223587   4.667   5.956   4.557 -0.1646  0.5782 -0.0723
  699TIP3    H123588   4.632   6.013   4.489  2.2167  3.1224  0.6576
  699TIP3    H223589   4.595   5.943   4.618 -1.8533 -0.4043 -2.1537
  700TIP3   OH223590   6.214   0.466   5.298  0.1748 -0.4682  0.0392
  700TIP3    H123591   6.221   0.373   5.276 -2.7130 -0.1533 -2.9672
  700TIP3    H223592   6.193   0.467   5.391  0.6738 -2.7668  0.2419
  701TIP3   OH223593   1.816   5.005   0.512 -0.4289  0.0107 -0.7540
  701TIP3    H123594   1.826   5.100   0.513  1.0806 -0.1354 -0.9031
  701TIP3    H223595   1.869   4.975   0.439 -1.8530 -0.8699 -1.4717
  702TIP3   OH223596   6.553   0.060   5.478  0.2718  0.3757  0.2787
  702TIP3    H123597   6.595   0.056   5.564  1.0545 -1.4940 -0.1482
  702TIP3    H223598   6.460   0.060   5.497  0.3068 -3.2444  1.1747
  703TIP3   OH223599   4.755   2.200  14.700  0.3402 -0.5286 -0.3677
  703TIP3    H123600   4.800   2.179  14.618  2.1880 -1.6131  0.8239
  703TIP3    H223601   4.784   2.131  14.761 -0.6374  0.4686  1.3038
  704TIP3   OH223602   5.934   3.971  12.298 -0.3186  0.0476  0.5127
  704TIP3    H123603   5.970   4.010  12.218 -3.3133  0.0129 -1.0116
  704TIP3    H223604   5.919   3.879  12.274 -1.6005  0.1270  0.9465
  705TIP3   OH223605   4.162   2.384   3.311 -0.1957 -0.1142 -0.0141
  705TIP3    H123606   4.111   2.305   3.293  1.9889 -1.2196 -1.7460
  705TIP3    H223607   4.227   2.357   3.376  0.8113  0.1061 -0.8987
  706TIP3   OH223608   6.658   2.466   2.338 -0.4486  0.2588  0.4242
  706TIP3    H123609   6.690   2.511   2.416 -1.8793  0.9237  0.6554
  706TIP3    H223610   6.643   2.376   2.367  0.3087  0.1581  0.5407
  707TIP3   OH223611   4.970   1.812   4.007 -0.0085 -0.3409 -0.4509
  707TIP3    H123612   4.886   1.825   4.050  0.2252 -1.9933  0.6132
  707TIP3    H223613   5.017   1.751   4.064  2.2625  1.1818 -0.5852
  708TIP3   OH223614   5.054   5.627  16.523 -0.2185 -0.0431 -0.0952
  708TIP3    H123615   4.975   5.677  16.543  0.0519  0.5891 -0.5659
  708TIP3    H223616   5.086   5.598  16.609  0.4331  1.8646  0.3694
  709TIP3   OH223617   0.179   5.407   3.707 -0.6175  0.7343 -0.0641
  709TIP3    H123618   0.213   5.493   3.731  3.2846 -0.8778  0.9289
  709TIP3    H223619   0.202   5.396   3.615  0.3225  0.1921  0.2252
  710TIP3   OH223620   0.439   0.504   2.406  0.3283  0.2586  0.2887
  710TIP3    H123621   0.376   0.475   2.471  0.7873  0.5580  0.8714
  710TIP3    H223622   0.497   0.564   2.453  1.1506 -0.1358 -0.1916
  711TIP3   OH223623   2.229   0.660   3.304  1.0470  0.1109 -0.1493
  711TIP3    H123624   2.172   0.583   3.303  0.8136  0.1613 -3.5883
  711TIP3    H223625   2.304   0.635   3.250  3.9170  0.4290  3.3566
  712TIP3   OH223626   4.532   5.079  11.566  0.0217 -0.2692  0.1379
  712TIP3    H123627   4.535   5.074  11.470  0.1817 -3.0024  0.2098
  712TIP3    H223628   4.489   4.998  11.592  1.5533 -0.4025  2.4619
  713TIP3   OH223629   5.803   5.385  11.367 -0.2823 -0.5798 -0.0884
  713TIP3    H123630   5.796   5.340  11.282 -0.6316 -0.3384 -0.1908
  713TIP3    H223631   5.744   5.338  11.424  0.0500 -0.8214  0.0587
  714TIP3   OH223632   3.079   1.548  16.831  0.0108  0.2641 -0.7419
  714TIP3    H123633   3.169   1.568  16.854 -0.1570  0.5591 -0.3303
  714TIP3    H223634   3.084   1.462  16.789  0.3256 -0.3679  0.5214
  715TIP3   OH223635   5.363   4.067  11.109 -0.2347 -0.1362 -0.0169
  715TIP3    H123636   5.314   4.062  11.192 -0.4310  0.6615 -0.0760
  715TIP3    H223637   5.341   4.153  11.074  2.9483  1.2175  1.0299
  716TIP3   OH223638   4.863   6.414   5.285 -0.7069  0.6329  0.4755
  716TIP3    H123639   4.948   6.443   5.251 -0.8770  0.8904  0.2689
  716TIP3    H223640   4.814   6.495   5.301 -1.3197  0.4591 -0.4532
  717TIP3   OH223641   1.667   6.001   1.441 -0.0417  0.4055  0.2334
  717TIP3    H123642   1.706   6.010   1.528  0.3431  1.5344 -0.0288
  717TIP3    H223643   1.741   6.015   1.381 -0.3580 -0.0701 -0.2716
  718TIP3   OH223644   2.246   2.356  14.289 -0.4749 -0.4591 -0.0432
  718TIP3    H123645   2.167   2.304  14.304 -0.4431 -0.4631  0.1124
  718TIP3    H223646   2.221   2.445  14.313  0.5584 -0.9875  3.4844
  719TIP3   OH223647   5.445   3.328  14.839 -0.3338 -0.2310  0.5410
  719TIP3    H123648   5.485   3.331  14.752 -0.4609  0.4933  0.5020
  719TIP3    H223649   5.365   3.277  14.827  0.3655 -1.3386  0.5377
  720TIP3   OH223650   2.890   0.149  15.433  0.3083 -0.2926  0.3140
  720TIP3    H123651   2.866   0.221  15.492 -0.6268  0.7033 -1.2150
  720TIP3    H223652   2.916   0.193  15.352  1.2427 -1.6430 -0.1494
  721TIP3   OH223653   1.139   0.569  11.164  0.0196  0.9890 -0.0067
  721TIP3    H123654   1.104   0.573  11.075 -0.5177 -1.3384  0.0436
  721TIP3    H223655   1.100   0.491  11.202  0.0002  2.0848  2.4165
  722TIP3   OH223656   2.149   4.592   0.714 -0.4679 -0.1158 -0.9901
  722TIP3    H123657   2.113   4.571   0.627 -0.7566  1.7333 -1.3621
  722TIP3    H223658   2.242   4.573   0.706 -0.4824  0.0723 -1.7206
  723TIP3   OH223659   1.130   4.182  11.490 -0.5035  0.5007 -0.2071
  723TIP3    H123660   1.097   4.106  11.538 -0.5092  1.0320  0.6503
  723TIP3    H223661   1.093   4.173  11.403 -0.7443 -0.3255 -0.0312
  724TIP3   OH223662   2.324   5.136  12.045 -0.5288  0.1291 -0.3515
  724TIP3    H123663   2.413   5.141  12.080 -0.8190 -1.7402  0.7868
  724TIP3    H223664   2.313   5.044  12.020 -2.2059  0.2816 -0.2865
  725TIP3   OH223665   5.144   0.361  11.904  0.2783  0.8229 -0.2111
  725TIP3    H123666   5.188   0.446  11.898  0.1655  0.8836 -0.1702
  725TIP3    H223667   5.052   0.383  11.918 -0.0407  0.7364 -1.8652
  726TIP3   OH223668   2.224   4.419  14.549  0.0140  0.3951 -0.2932
  726TIP3    H123669   2.232   4.362  14.473  1.6556 -0.1293  0.2443
  726TIP3    H223670   2.221   4.360  14.624 -0.8449  0.9372  0.1222
  727TIP3   OH223671   3.691   5.120  13.949 -0.4491  0.1660  0.6407
  727TIP3    H123672   3.677   5.122  14.044 -1.6199  0.0453  0.4965
  727TIP3    H223673   3.604   5.099  13.913  0.0613 -0.1616 -0.4367
  728TIP3   OH223674   5.535   1.862  14.656 -0.1629 -0.3100 -0.3677
  728TIP3    H123675   5.530   1.937  14.597  0.0329 -0.4037 -0.5046
  728TIP3    H223676   5.602   1.805  14.617 -0.7503 -0.8470 -0.5918
  729TIP3   OH223677   2.821   4.337  13.322 -0.6449  0.1338 -0.2114
  729TIP3    H123678   2.887   4.308  13.260 -1.5591  0.7615 -1.5402
  729TIP3    H223679   2.867   4.395  13.382  0.0470  0.4118 -1.0007
  730TIP3   OH223680   6.808   4.122   3.603  0.2860  0.2414 -0.1217
  730TIP3    H123681   6.716   4.128   3.577  0.3227 -0.1192 -0.3492
  730TIP3    H223682   6.807   4.142   3.697  0.2545  2.2651 -0.5114
  731TIP3   OH223683   3.813   2.313  14.566  0.2973 -0.2166  0.4809
  731TIP3    H123684   3.828   2.271  14.482 -0.6092 -0.8550  0.6216
  731TIP3    H223685   3.756   2.252  14.614  0.7747  0.1412  1.5435
  732TIP3   OH223686   6.467   2.145  13.400 -0.2562 -0.1301 -0.3973
  732TIP3    H123687   6.469   2.067  13.345 -0.6564  0.3667 -1.1219
  732TIP3    H223688   6.518   2.210  13.352  2.8901 -0.8386  1.6383
  733TIP3   OH223689   2.336   0.768   4.517 -0.1296 -0.1973 -0.0999
  733TIP3    H123690   2.393   0.692   4.510 -0.7781 -0.7001  0.0309
  733TIP3    H223691   2.395   0.840   4.540  0.1336 -1.2056  2.6676
  734TIP3   OH223692   2.493   5.225   3.020 -0.0428 -0.6576  0.2631
  734TIP3    H123693   2.409   5.222   2.973  0.0786  0.2911 -0.0442
  734TIP3    H223694   2.497   5.315   3.054  0.6237 -0.8498  0.6974
  735TIP3   OH223695   5.448   1.940  12.546 -0.3614 -0.3160  0.0396
  735TIP3    H123696   5.507   2.006  12.582 -0.9989  0.6365 -0.6357
  735TIP3    H223697   5.507   1.871  12.513  0.3081 -0.0363  0.6301
  736TIP3   OH223698   6.506   0.774  16.257 -0.0751  0.3724 -0.1805
  736TIP3    H123699   6.557   0.702  16.221 -0.6974 -0.1322 -0.0794
  736TIP3    H223700   6.545   0.793  16.342 -0.8240 -0.8658  0.4675
  737TIP3   OH223701   5.176   3.802   3.190 -0.3795 -1.1896 -0.7222
  737TIP3    H123702   5.144   3.767   3.273  0.8799  2.7180  1.6485
  737TIP3    H223703   5.097   3.819   3.139 -1.4749 -0.5663  1.0906
  738TIP3   OH223704   0.425   5.553  11.657  0.3539  0.5581 -0.0603
  738TIP3    H123705   0.375   5.483  11.698 -0.8814  1.9206  0.8530
  738TIP3    H223706   0.512   5.546  11.694  0.8059 -1.5751 -1.3296
  739TIP3   OH223707   6.776   3.142  14.652 -0.0065  0.2001  0.3123
  739TIP3    H123708   6.741   3.164  14.738  0.0755 -0.6664  0.5792
  739TIP3    H223709   6.710   3.084  14.613 -0.2077  0.8596 -0.3551
  740TIP3   OH223710   1.432   5.563   2.823  0.2438  0.0489 -0.3606
  740TIP3    H123711   1.425   5.478   2.866 -1.1107  0.5126  0.4174
  740TIP3    H223712   1.403   5.547   2.734  0.1042 -0.3373 -0.2492
  741TIP3   OH223713   1.538   6.201   0.084  0.0810 -0.6416  0.1540
  741TIP3    H123714   1.603   6.137   0.053 -0.0830 -0.4258 -0.6525
  741TIP3    H223715   1.464   6.147   0.114  0.6194 -0.8878  1.0734
  742TIP3   OH223716   3.285   1.403   4.089 -0.2840  0.0990 -0.6583
  742TIP3    H123717   3.207   1.409   4.033  0.3309 -0.2289 -1.5679
  742TIP3    H223718   3.338   1.479   4.064 -0.2356  0.2416 -0.1402
  743TIP3   OH223719   3.475   0.021  12.360  0.3175 -0.1290 -0.2277
  743TIP3    H123720   3.455   0.115  12.360  0.5090 -0.0710 -1.6158
  743TIP3    H223721   3.425  -0.014  12.434  0.3495  1.0839  0.3919
  744TIP3   OH223722   5.457   5.268   0.187 -0.2831  0.0376 -0.1088
  744TIP3    H123723   5.477   5.323   0.111  0.7700  0.0482  0.1535
  744TIP3    H223724   5.383   5.312   0.229  0.0199  0.8123 -0.3555
  745TIP3   OH223725   3.474   2.917  16.146  0.0835 -0.0452  0.0431
  745TIP3    H123726   3.453   2.865  16.224 -1.2108 -0.6274 -0.6523
  745TIP3    H223727   3.464   3.008  16.174 -0.1095 -0.2428  0.6337
  746TIP3   OH223728   3.142   2.337  12.626  0.3943  0.6096 -0.0273
  746TIP3    H123729   3.111   2.417  12.584  0.8603  0.8296  0.0405
  746TIP3    H223730   3.076   2.317  12.692 -0.7029 -0.1191 -1.3079
  747TIP3   OH223731   1.171   6.283   0.038  0.5038  0.5412  0.1657
  747TIP3    H123732   1.229   6.337  -0.017 -0.9141  0.0584 -1.9174
  747TIP3    H223733   1.090   6.333   0.042 -1.2642 -1.7575 -2.7731
  748TIP3   OH223734   0.900   1.475   4.920  0.3527  0.1779 -0.7178
  748TIP3    H123735   0.985   1.437   4.895  1.0210  2.0052 -1.3925
  748TIP3    H223736   0.890   1.550   4.861 -1.7312  0.0296 -0.6119
  749TIP3   OH223737   6.540   0.208  16.869 -0.0461 -0.2639 -0.3160
  749TIP3    H123738   6.504   0.178  16.786  1.4022 -1.6311 -0.4965
  749TIP3    H223739   6.525   0.136  16.930  0.9176 -0.2178  0.0009
  750TIP3   OH223740   4.208   2.373   0.523  0.3486  0.5902  0.2282
  750TIP3    H123741   4.148   2.300   0.538  1.1695 -0.2682 -0.5960
  750TIP3    H223742   4.240   2.396   0.610  0.3907 -0.2859  0.4516
  751TIP3   OH223743   3.810   3.746  13.921 -0.0230  0.0862 -0.3629
  751TIP3    H123744   3.814   3.801  14.000  0.1577 -0.3404 -0.0736
  751TIP3    H223745   3.789   3.808  13.851  0.5766  0.5949 -0.1051
  752TIP3   OH223746   6.297   4.059   0.951 -0.2054  0.4187 -0.0046
  752TIP3    H123747   6.216   4.110   0.951 -0.6392 -0.2606 -0.5949
  752TIP3    H223748   6.304   4.024   0.863  0.2405 -0.3036  0.3078
  753TIP3   OH223749   1.812   1.030  10.437 -0.4794  0.5070  0.3927
  753TIP3    H123750   1.843   0.999  10.352 -0.7599 -0.7049  0.7171
  753TIP3    H223751   1.791   0.951  10.486 -1.1937  1.2109  1.2751
  754TIP3   OH223752   4.144   6.485  17.094 -0.1299 -0.7765 -0.1592
  754TIP3    H123753   4.222   6.441  17.060  0.7400  1.2583 -0.9237
  754TIP3    H223754   4.073   6.457  17.036  1.0214  1.3227 -2.7905
  755TIP3   OH223755   3.048   3.016  16.079  0.4122  0.4113 -0.4172
  755TIP3    H123756   2.991   3.085  16.113 -0.6238 -0.7475  0.3003
  755TIP3    H223757   3.005   2.935  16.106  1.3425 -0.5248 -1.6458
  756TIP3   OH223758   1.542   3.461  15.439  0.0318  0.4735  0.3587
  756TIP3    H123759   1.595   3.513  15.501 -1.2721 -0.5072  2.3897
  756TIP3    H223760   1.456   3.456  15.480 -1.1901  0.5507 -2.0378
  757TIP3   OH223761   0.457   2.327  13.093 -0.0246 -0.5400  0.1137
  757TIP3    H123762   0.453   2.232  13.108 -1.8175 -0.6762 -0.9084
  757TIP3    H223763   0.369   2.358  13.115  0.3807  0.8064 -0.1014
  758TIP3   OH223764   3.617   3.606   4.298  0.1030 -0.5247 -0.0149
  758TIP3    H123765   3.568   3.627   4.377 -1.1738 -1.6469 -0.4684
  758TIP3    H223766   3.611   3.686   4.244  2.3344  0.8479  1.5825
  759TIP3   OH223767   0.560   3.513   2.098 -0.3770 -0.4152 -0.1780
  759TIP3    H123768   0.543   3.505   2.004  0.2830  0.8595 -0.4240
  759TIP3    H223769   0.487   3.565   2.131 -0.0610  0.0367 -0.1816
  760TIP3   OH223770   5.314   1.872  16.332  0.6982  0.2134 -0.2064
  760TIP3    H123771   5.289   1.786  16.364 -0.1565  0.0273 -1.2891
  760TIP3    H223772   5.316   1.927  16.410 -0.4230 -0.4109  0.2919
  761TIP3   OH223773   6.560   0.352   5.436  0.4992  0.1479 -0.4732
  761TIP3    H123774   6.600   0.342   5.349  1.5566 -0.1683  0.0319
  761TIP3    H223775   6.569   0.265   5.476 -1.8633 -0.3144 -0.7891
  762TIP3   OH223776   6.512   1.337  12.574  0.1713 -0.1639  0.4436
  762TIP3    H123777   6.604   1.311  12.571 -0.2223 -1.6730  0.6271
  762TIP3    H223778   6.504   1.386  12.657  1.2956  2.2082 -0.7324
  763TIP3   OH223779   0.157   0.788  13.630  0.0049 -0.1331 -0.1027
  763TIP3    H123780   0.107   0.869  13.638 -1.2873 -1.0124  1.1131
  763TIP3    H223781   0.121   0.744  13.554 -1.0780 -0.7264  0.7228
  764TIP3   OH223782   3.941   5.428   3.035 -0.1590  0.6707 -0.2927
  764TIP3    H123783   3.927   5.478   2.954 -2.0367  1.2109  0.3058
  764TIP3    H223784   3.860   5.441   3.085  0.6244 -0.3407  1.3131
  765TIP3   OH223785   0.158   2.524   3.409  0.5941 -0.2893  0.2871
  765TIP3    H123786   0.129   2.496   3.322 -0.0825  0.7203  0.1669
  765TIP3    H223787   0.213   2.601   3.392  0.5768 -0.1739  0.7442
  766TIP3   OH223788   5.034   3.846  15.872 -0.1484 -0.1078  0.1352
  766TIP3    H123789   5.115   3.829  15.921 -0.4621  0.0644  0.7249
  766TIP3    H223790   4.978   3.771  15.892  0.0916 -0.5417 -0.7767
  767TIP3   OH223791   5.709   2.579  16.533  0.1227  0.2495  0.1937
  767TIP3    H123792   5.617   2.602  16.544  0.5780  2.3399 -0.0919
  767TIP3    H223793   5.757   2.658  16.556  1.9362 -1.0722  1.3151
  768TIP3   OH223794   1.720   5.986   1.706 -0.2966 -0.3524 -0.3353
  768TIP3    H123795   1.738   6.013   1.796  1.3307 -1.7945 -0.1773
  768TIP3    H223796   1.660   5.912   1.714  2.2305 -2.5389 -0.1366
  769TIP3   OH223797   2.125   5.140  15.646  0.3161 -0.3807  0.4066
  769TIP3    H123798   2.056   5.184  15.597  0.0653  0.5157  1.5201
  769TIP3    H223799   2.167   5.083  15.582  0.2389  1.0154 -0.9549
  770TIP3   OH223800   5.637   1.713   4.814  0.3923 -0.4074 -0.0707
  770TIP3    H123801   5.666   1.689   4.726  0.0540 -1.9129  0.2131
  770TIP3    H223802   5.670   1.803   4.826 -1.1190  0.5532 -2.4179
  771TIP3   OH223803   6.491   1.325   2.594 -0.3667  0.1785  0.0525
  771TIP3    H123804   6.516   1.235   2.612 -0.6345 -0.6781 -3.2888
  771TIP3    H223805   6.574   1.373   2.591  0.2800 -0.9287 -2.4493
  772TIP3   OH223806   3.302   3.573   1.970  0.4042 -0.2844  0.3314
  772TIP3    H123807   3.293   3.578   1.875  1.1071  0.8385  0.3069
  772TIP3    H223808   3.285   3.481   1.991  1.4912 -0.8184 -1.0062
  773TIP3   OH223809   6.544   5.604  11.998  0.2731 -0.0210  0.1415
  773TIP3    H123810   6.566   5.593  11.905 -0.0407 -1.5143  0.2212
  773TIP3    H223811   6.524   5.515  12.028 -1.3878  0.6709  1.1966
  774TIP3   OH223812   6.807   3.885   2.107  0.4138  0.4478  0.6073
  774TIP3    H123813   6.822   3.977   2.086  1.0283  0.5434  1.4239
  774TIP3    H223814   6.888   3.840   2.082  0.7190  0.3870  1.6380
  775TIP3   OH223815   5.902   2.576  12.883  0.0797  0.2289 -0.2326
  775TIP3    H123816   5.839   2.516  12.923 -1.2451  0.9964 -1.0655
  775TIP3    H223817   5.926   2.534  12.800 -0.5463  0.6366 -0.6324
  776TIP3   OH223818   2.213   4.108  13.484 -0.7090  0.2332  0.0960
  776TIP3    H123819   2.149   4.057  13.435 -1.6622  1.4100  0.0833
  776TIP3    H223820   2.297   4.068  13.462 -1.0303  0.8971 -2.8342
  777TIP3   OH223821   0.510   0.449  11.306 -0.0487 -0.1534 -0.0756
  777TIP3    H123822   0.564   0.524  11.280  0.1329 -0.4723 -0.6326
  777TIP3    H223823   0.420   0.481  11.298 -0.0851 -0.6599 -2.5939
  778TIP3   OH223824   6.457   0.798   3.349 -0.2980 -0.2377 -0.3270
  778TIP3    H123825   6.483   0.706   3.347  0.2449 -0.2267  2.4799
  778TIP3    H223826   6.514   0.841   3.286  2.3062 -1.2411  1.2125
  779TIP3   OH223827   4.300   0.658   3.732 -0.5854 -0.0914  0.0991
  779TIP3    H123828   4.348   0.577   3.717 -1.3793 -0.1769 -2.3828
  779TIP3    H223829   4.341   0.722   3.674 -1.1309  0.8107  0.6744
  780TIP3   OH223830   0.936   5.133  13.734 -0.1294  0.3951 -0.1917
  780TIP3    H123831   1.013   5.132  13.792 -0.8481 -0.1357  0.7865
  780TIP3    H223832   0.878   5.197  13.774 -0.1735  0.8502 -0.9749
  781TIP3   OH223833   0.799   2.552   3.979  0.2982  0.1867 -0.0553
  781TIP3    H123834   0.779   2.545   4.072 -0.5040 -1.4877 -0.3170
  781TIP3    H223835   0.720   2.520   3.935  0.7320  0.7836 -1.3120
  782TIP3   OH223836   3.017   4.483   4.251 -0.3794 -0.7601  0.4355
  782TIP3    H123837   2.994   4.407   4.197 -0.9882 -0.3467  0.1025
  782TIP3    H223838   2.934   4.529   4.264 -0.0537 -0.2744  0.8315
  783TIP3   OH223839   3.472   4.365   2.474 -0.4845 -0.0525  0.1786
  783TIP3    H123840   3.481   4.430   2.543 -1.2943  1.2244 -0.8711
  783TIP3    H223841   3.501   4.410   2.395 -2.4267 -0.4616 -0.8266
  784TIP3   OH223842   1.745   6.148   0.742 -0.3551 -0.3480 -0.0028
  784TIP3    H123843   1.834   6.125   0.766 -0.3870 -0.0276  0.4410
  784TIP3    H223844   1.754   6.229   0.691 -0.5107  0.6417  1.4904
  785TIP3   OH223845   3.571   0.723  14.085 -0.0964  0.4007 -0.0301
  785TIP3    H123846   3.581   0.805  14.037 -0.6584  0.2314 -0.4484
  785TIP3    H223847   3.652   0.714  14.134 -0.6204  1.9618  1.2002
  786TIP3   OH223848   2.213   0.058  10.662  0.6006  0.7563 -0.2790
  786TIP3    H123849   2.145   0.086  10.724 -0.1532  0.3771 -0.9230
  786TIP3    H223850   2.294   0.098  10.696  0.4137 -0.3335  1.5733
  787TIP3   OH223851   4.846   0.706  13.326 -0.0300 -0.4936  0.2579
  787TIP3    H123852   4.924   0.750  13.292 -1.8777  4.3415  1.4525
  787TIP3    H223853   4.782   0.714  13.255 -1.1297  1.2298  1.3672
  788TIP3   OH223854   5.075   6.697   4.621 -0.0613 -0.1402  0.4124
  788TIP3    H123855   5.161   6.658   4.633 -0.1513 -0.3227  0.4705
  788TIP3    H223856   5.035   6.645   4.550  0.5642  1.0801 -0.8801
  789TIP3   OH223857   3.605   1.059   4.151 -0.4967  0.1330  0.5021
  789TIP3    H123858   3.604   0.971   4.189  1.4512  0.4454  1.4218
  789TIP3    H223859   3.575   1.116   4.221 -0.2237  0.3510  0.4453
  790TIP3   OH223860   1.743   5.764  10.832 -0.5342 -0.4472  0.1285
  790TIP3    H123861   1.745   5.849  10.788 -0.8212  0.3252  1.5416
  790TIP3    H223862   1.809   5.712  10.786 -2.2155 -0.3896 -2.4971
  791TIP3   OH223863   6.483   0.520   3.324  0.2622 -0.3671 -0.1309
  791TIP3    H123864   6.530   0.531   3.407  0.3393  2.1242 -0.4374
  791TIP3    H223865   6.515   0.437   3.290  2.5725  0.0140  0.8841
  792TIP3   OH223866   0.332   6.169  15.686  0.0313 -0.1850  0.4587
  792TIP3    H123867   0.291   6.124  15.760 -0.8909  0.0510  0.1105
  792TIP3    H223868   0.262   6.223  15.649  0.5637 -0.0441 -0.3853
  793TIP3   OH223869   3.841   6.753   4.388 -0.2714 -0.2071 -0.4488
  793TIP3    H123870   3.781   6.678   4.387 -0.4069 -0.1473  0.9427
  793TIP3    H223871   3.903   6.736   4.317  0.2855 -2.1335  0.4449
  794TIP3   OH223872   6.439   4.474   4.082  1.1254  0.1653 -0.3068
  794TIP3    H123873   6.477   4.546   4.030 -0.3656 -0.8408 -2.9860
  794TIP3    H223874   6.358   4.511   4.117 -0.0447 -0.3376 -2.3342
  795TIP3   OH223875   1.901   2.362   1.744  1.0632 -0.0109 -0.1034
  795TIP3    H123876   1.808   2.359   1.766  0.8562 -0.1031 -0.9727
  795TIP3    H223877   1.919   2.277   1.705  1.3762  0.2289 -0.4801
  796TIP3   OH223878   3.667   6.620   1.743 -0.7624  0.0120  0.3374
  796TIP3    H123879   3.603   6.690   1.731 -1.5150 -0.6306  0.4834
  796TIP3    H223880   3.718   6.647   1.819 -0.6281  0.6962  0.0122
  797TIP3   OH223881   2.794   2.810   2.418 -0.0037  0.1016 -0.4820
  797TIP3    H123882   2.797   2.904   2.398  0.7537  0.0789 -0.4976
  797TIP3    H223883   2.857   2.771   2.358  0.6847 -0.2388  0.4375
  798TIP3   OH223884   3.436   1.336  16.841 -0.3565  0.1898  0.5635
  798TIP3    H123885   3.372   1.354  16.910  0.0339  1.0072  0.7270
  798TIP3    H223886   3.483   1.419  16.830  4.3146 -1.5200  4.1093
  799TIP3   OH223887   4.313   2.135  11.177 -0.1845  0.0137 -0.1193
  799TIP3    H123888   4.356   2.102  11.256  0.8494 -1.3820 -1.2114
  799TIP3    H223889   4.334   2.228  11.174  0.5385 -0.1112  0.7573
  800TIP3   OH223890   5.564   3.303  10.975  0.2222  0.2229 -0.4899
  800TIP3    H123891   5.613   3.221  10.964  2.5032  1.0524  2.1326
  800TIP3    H223892   5.546   3.332  10.886  0.7570 -2.3091 -1.5213
  801TIP3   OH223893   2.285   4.612   4.418 -0.0561  0.5722 -0.6258
  801TIP3    H123894   2.275   4.669   4.494 -0.8894 -0.4353  0.0500
  801TIP3    H223895   2.338   4.663   4.356 -2.6817  3.0545 -1.0385
  802TIP3   OH223896   0.389   2.651   4.512 -1.2573 -0.3285  0.2055
  802TIP3    H123897   0.461   2.707   4.483 -1.0056 -0.4683  0.5497
  802TIP3    H223898   0.389   2.660   4.608  1.3084 -3.8803  0.7253
  803TIP3   OH223899   1.100   0.067   0.077 -0.0514 -0.4410 -0.3297
  803TIP3    H123900   1.153   0.134   0.034  0.1890  0.1055  0.7950
  803TIP3    H223901   1.021   0.061   0.024 -0.4504  1.3420  0.0250
  804TIP3   OH223902   0.427   6.125  11.441 -0.1255 -1.1224  0.1746
  804TIP3    H123903   0.503   6.080  11.477 -0.0891 -0.1357  1.4012
  804TIP3    H223904   0.381   6.160  11.517 -0.8595 -0.2147 -0.6536
  805TIP3   OH223905   2.034   6.295   2.734 -0.3692  0.5831 -0.4565
  805TIP3    H123906   1.998   6.366   2.787  0.5960  0.4248  0.4352
  805TIP3    H223907   2.107   6.261   2.785  0.0618 -0.1361 -1.5075
  806TIP3   OH223908   1.733   2.610   1.233  0.1326  1.1303 -0.0409
  806TIP3    H123909   1.807   2.573   1.281  0.9364 -0.8429 -2.5572
  806TIP3    H223910   1.662   2.615   1.297  1.7858  0.8997  1.8818
  807TIP3   OH223911   3.947   3.997  12.671 -0.2240  0.2156  0.4336
  807TIP3    H123912   3.866   4.009  12.720  0.5210 -1.4949  2.2093
  807TIP3    H223913   3.919   3.970  12.584 -1.5748  2.3119  0.1596
  808TIP3   OH223914   0.156   3.252   5.989  0.0682  0.4177 -0.2190
  808TIP3    H123915   0.177   3.337   6.027 -0.6438  0.3054  0.4669
  808TIP3    H223916   0.172   3.190   6.060  2.5115 -0.3018 -1.2810
  809TIP3   OH223917   5.285   5.538  15.469 -0.2261  0.5810  0.1064
  809TIP3    H123918   5.266   5.595  15.394  0.7924 -0.0185 -0.6295
  809TIP3    H223919   5.347   5.474  15.435 -1.0697 -0.7532  1.0285
  810TIP3   OH223920   4.573   6.432  12.176  0.1548  0.1343  0.2872
  810TIP3    H123921   4.634   6.407  12.107  0.1491  0.8303  0.0163
  810TIP3    H223922   4.492   6.386  12.155  0.1781  0.2758 -0.1321
  811TIP3   OH223923   6.492   6.005  10.845  0.3031  0.1986 -0.2338
  811TIP3    H123924   6.461   5.985  10.757 -0.5208  0.0213  0.0904
  811TIP3    H223925   6.466   6.095  10.860  0.1277  0.1154 -0.0358
  812TIP3   OH223926   4.757   6.170   5.382  0.8651  0.1828 -0.4236
  812TIP3    H123927   4.826   6.106   5.364 -0.6147 -1.2581 -1.2103
  812TIP3    H223928   4.784   6.248   5.333  1.3537 -0.7641 -1.7369
  813TIP3   OH223929   6.792   3.465  15.495 -0.8322  0.1523 -0.3819
  813TIP3    H123930   6.741   3.475  15.575  1.5970 -0.8077  1.4068
  813TIP3    H223931   6.726   3.465  15.425 -3.5811 -3.2974  1.8421
  814TIP3   OH223932   6.670   2.649   3.233 -0.7311 -0.0954 -0.3360
  814TIP3    H123933   6.677   2.594   3.311 -0.7833  0.6051  0.1685
  814TIP3    H223934   6.577   2.670   3.227 -0.2999  2.9611  1.6288
  815TIP3   OH223935   5.728   4.198  17.099 -0.2613  0.1888 -0.2180
  815TIP3    H123936   5.793   4.141  17.140 -0.6589  0.2965  0.5810
  815TIP3    H223937   5.722   4.167  17.009  1.0860  0.3499 -0.3761
  816TIP3   OH223938   5.502   0.173  12.035 -0.5929  0.3102 -0.0026
  816TIP3    H123939   5.422   0.130  12.065 -0.1422  0.0447  0.8461
  816TIP3    H223940   5.473   0.257  12.000 -1.1897  0.4271  0.7657
  817TIP3   OH223941   0.194   4.721   1.360  0.0031  0.2401  0.5378
  817TIP3    H123942   0.285   4.742   1.382  0.3928 -0.9869  0.2006
  817TIP3    H223943   0.196   4.627   1.340 -1.3576  0.1800  0.6124
  818TIP3   OH223944   5.000   5.308   1.303 -0.2508 -0.0536  0.2903
  818TIP3    H123945   4.940   5.329   1.231 -0.9585 -1.0403  0.5725
  818TIP3    H223946   4.997   5.213   1.310  2.6743 -0.3240 -0.8027
  819TIP3   OH223947   3.661   3.238  13.575 -0.0447 -0.6347  0.3152
  819TIP3    H123948   3.595   3.169  13.569  0.9929 -1.4876 -3.2268
  819TIP3    H223949   3.739   3.195  13.610  0.4367 -1.2011 -1.3765
  820TIP3   OH223950   0.649   3.778  15.936 -0.4227 -0.0766  0.0456
  820TIP3    H123951   0.674   3.691  15.902  0.8111  0.0531  0.5799
  820TIP3    H223952   0.660   3.771  16.030 -0.3265  0.6628  0.0922
  821TIP3   OH223953   5.572   2.485  15.757 -0.2271  0.0174  0.3276
  821TIP3    H123954   5.586   2.415  15.694 -1.2816  0.8039 -0.8171
  821TIP3    H223955   5.569   2.441  15.842 -0.2966 -1.2371 -0.3164
  822TIP3   OH223956   2.446   4.562  17.011 -0.2406 -0.0550 -0.3894
  822TIP3    H123957   2.431   4.524  17.098 -0.0777 -1.4064 -0.9239
  822TIP3    H223958   2.541   4.558  17.000 -0.1450  1.2447 -0.1577
  823TIP3   OH223959   1.968   5.445  14.892  0.2042 -0.0912  0.2223
  823TIP3    H123960   1.889   5.408  14.931  0.5685  0.9703  2.1281
  823TIP3    H223961   1.982   5.395  14.812 -3.6986  1.2466 -1.4966
  824TIP3   OH223962   4.593   3.042  12.844 -0.3942  0.0388  0.9896
  824TIP3    H123963   4.594   3.059  12.750 -2.0582  3.2238  1.3811
  824TIP3    H223964   4.681   3.010  12.863  0.6025  1.0495 -1.4055
  825TIP3   OH223965   3.964   2.602  13.781  0.0266  0.0852 -0.1307
  825TIP3    H123966   3.896   2.552  13.827 -0.2617  0.3307 -0.2918
  825TIP3    H223967   3.981   2.677  13.837  1.4221 -0.8658  0.7903
  826TIP3   OH223968   6.787   4.431  12.732 -0.2709  0.3755  0.9290
  826TIP3    H123969   6.844   4.455  12.805 -1.1839  0.6708  1.5637
  826TIP3    H223970   6.724   4.370  12.769 -0.1165 -0.2840  0.1328
  827TIP3   OH223971   0.751   4.133   2.964  0.2465 -0.2171 -0.3939
  827TIP3    H123972   0.685   4.103   2.902 -0.6231 -0.1094  0.4574
  827TIP3    H223973   0.798   4.203   2.918  0.3796 -0.9093 -1.3308
  828TIP3   OH223974   5.091   1.421  14.833  0.3561  0.0308 -0.1560
  828TIP3    H123975   5.121   1.366  14.905  1.5562 -1.2777 -1.5987
  828TIP3    H223976   4.995   1.418  14.838  0.4213 -0.7880  0.7984
  829TIP3   OH223977   4.308   4.724   2.017  0.0017  0.1035  1.0031
  829TIP3    H123978   4.379   4.786   2.004  1.3810 -1.0309  2.7351
  829TIP3    H223979   4.303   4.676   1.934 -0.1555  1.5311  0.1436
  830TIP3   OH223980   5.454   1.360  13.686 -0.1769  0.0703  0.3104
  830TIP3    H123981   5.437   1.449  13.716  1.8350  1.2166 -1.6652
  830TIP3    H223982   5.522   1.327  13.744 -0.5162  0.0256  0.6868
  831TIP3   OH223983   3.918   2.624   2.049 -0.2285  0.7765  0.0646
  831TIP3    H123984   3.966   2.569   2.112 -0.6273  0.1858 -0.1436
  831TIP3    H223985   3.950   2.713   2.067  3.0802  0.1538 -1.9311
  832TIP3   OH223986   0.903   4.843  13.793 -0.0666  0.2256  0.3043
  832TIP3    H123987   0.899   4.932  13.760  0.7744 -0.4188 -1.6524
  832TIP3    H223988   0.822   4.832  13.843 -0.5902  1.7850 -0.1590
  833TIP3   OH223989   5.523   2.671  14.190  0.2444 -0.7655 -0.1935
  833TIP3    H123990   5.492   2.582  14.174 -0.6927 -0.1789 -2.0420
  833TIP3    H223991   5.610   2.674  14.150  0.1640 -0.7981 -0.3750
  834TIP3   OH223992   6.101   1.531   0.608  0.7119  0.1430 -0.5667
  834TIP3    H123993   6.086   1.482   0.527  0.6169  1.0966 -1.1510
  834TIP3    H223994   6.014   1.554   0.639  0.3818 -3.8020  2.2100
  835TIP3   OH223995   6.197   5.564  16.860 -0.5199  0.3165  0.2940
  835TIP3    H123996   6.231   5.649  16.887 -1.8314  0.6991  0.8207
  835TIP3    H223997   6.108   5.582  16.828 -0.0327 -0.5346 -1.7328
  836TIP3   OH223998   6.174   5.900  12.127 -0.0186  0.4673  0.4444
  836TIP3    H123999   6.101   5.899  12.066  0.2357  0.0196  0.1447
  836TIP3    H224000   6.217   5.815  12.116 -0.2145  0.2066  1.5504
  837TIP3   OH224001   4.665   0.962  14.631  0.6044  0.2888  0.4329
  837TIP3    H124002   4.641   0.962  14.538  0.5298 -2.4017  0.3599
  837TIP3    H224003   4.587   0.931  14.676  1.0705  0.2415  1.2303
  838TIP3   OH224004   2.717   2.338  12.507  0.5430 -0.0205 -0.4049
  838TIP3    H124005   2.675   2.413  12.548  1.8629  0.6467 -0.2098
  838TIP3    H224006   2.645   2.278  12.488 -0.5536  1.3069 -0.6282
  839TIP3   OH224007   0.697   2.060   6.123  0.1612 -0.2504 -0.2812
  839TIP3    H124008   0.684   1.965   6.122  0.4662 -0.2927 -0.5118
  839TIP3    H224009   0.637   2.093   6.057  0.7731 -0.3871 -0.9250
  840TIP3   OH224010   3.567   5.973   4.464  0.1111 -0.2104 -0.4995
  840TIP3    H124011   3.533   5.927   4.541  0.6985 -0.5206 -0.4238
  840TIP3    H224012   3.662   5.975   4.477  0.0660  1.5478 -0.1963
  841TIP3   OH224013   4.781   5.584   3.593  0.0880  0.3857 -0.0893
  841TIP3    H124014   4.761   5.599   3.685 -0.3859  0.6769 -0.2298
  841TIP3    H224015   4.850   5.647   3.573  0.5493 -0.0289  0.1920
  842TIP3   OH224016   6.704   5.345  14.173 -0.2091 -0.1103  0.0870
  842TIP3    H124017   6.706   5.285  14.099  0.0954 -0.8376  0.6732
  842TIP3    H224018   6.611   5.352  14.196 -0.2030 -0.7248  0.3078
  843TIP3   OH224019   5.786   3.867  16.609  0.4644  0.4912  0.1724
  843TIP3    H124020   5.694   3.893  16.618  0.0244 -0.4712 -1.2802
  843TIP3    H224021   5.834   3.950  16.606 -0.3914  1.0116  0.5025
  844TIP3   OH224022   2.400   5.795   6.242  0.0779 -0.4371 -0.3814
  844TIP3    H124023   2.452   5.869   6.275 -2.5429  1.2479  0.2779
  844TIP3    H224024   2.402   5.731   6.313  2.4843 -1.1677 -1.0072
  845TIP3   OH224025   3.003   5.835  17.103  0.9724  0.0808  0.0601
  845TIP3    H124026   2.919   5.874  17.082  1.3491  0.7247 -0.2801
  845TIP3    H224027   3.029   5.789  17.023  0.7659 -0.4497  0.2930
  846TIP3   OH224028   1.158   2.510  12.496 -0.0029 -0.5265 -0.0511
  846TIP3    H124029   1.113   2.496  12.579  0.4003  1.0807  0.4771
  846TIP3    H224030   1.093   2.554  12.441  0.2100 -0.1898 -0.0387
  847TIP3   OH224031   5.598   3.130   1.427 -0.3251  0.3475  0.4608
  847TIP3    H124032   5.583   3.059   1.365  1.0255  0.6509 -0.2449
  847TIP3    H224033   5.533   3.116   1.495 -1.1420 -0.6214 -0.4744
  848TIP3   OH224034   4.030   3.456  13.006  0.0035 -0.0931 -0.0439
  848TIP3    H124035   3.984   3.383  12.965  1.2570 -1.7095  1.2895
  848TIP3    H224036   4.109   3.467  12.953  0.0345 -0.0066  0.0207
  849TIP3   OH224037   1.177   5.014   1.386 -0.3770  0.1380  0.1719
  849TIP3    H124038   1.143   5.082   1.328  2.3965  1.5550  0.0501
  849TIP3    H224039   1.230   4.958   1.330  0.0855 -0.1141  0.8433
  850TIP3   OH224040   4.519   2.747  16.660  0.1683 -0.3865 -0.1321
  850TIP3    H124041   4.477   2.736  16.745 -0.4477 -1.7579 -0.5828
  850TIP3    H224042   4.505   2.839  16.637  0.4036  0.0133  1.2646
  851TIP3   OH224043   5.598   3.352  12.722 -0.4251  0.2186 -0.7701
  851TIP3    H124044   5.589   3.416  12.793 -0.3701  0.1775 -0.7258
  851TIP3    H224045   5.558   3.272  12.755  1.6938 -0.5413  0.1633
  852TIP3   OH224046   2.229   3.695  17.037 -0.0812 -0.0570 -0.1234
  852TIP3    H124047   2.273   3.748  16.970 -0.4384 -0.0824 -0.3834
  852TIP3    H224048   2.223   3.753  17.113  2.2069 -0.6984  0.6289
  853TIP3   OH224049   2.037   5.315   0.961 -0.1170  0.5688  0.8714
  853TIP3    H124050   2.094   5.239   0.968  1.1185  1.1903 -1.3884
  853TIP3    H224051   1.976   5.294   0.890 -1.5392  0.6502  2.0297
  854TIP3   OH224052   0.528   3.298   4.286 -0.0617 -0.2179 -0.0018
  854TIP3    H124053   0.440   3.266   4.307 -0.4956  1.9257  1.8913
  854TIP3    H224054   0.586   3.245   4.342 -0.5999  1.0080  1.8123
  855TIP3   OH224055   6.098   4.499   4.929  0.5057  0.2698 -0.2279
  855TIP3    H124056   6.021   4.539   4.891  1.4161  1.3226 -1.0339
  855TIP3    H224057   6.094   4.520   5.022 -0.2048  0.2565 -0.2549
  856TIP3   OH224058   5.749   0.984   0.341  0.2646  0.5461 -0.3521
  856TIP3    H124059   5.791   0.902   0.368  0.4449  0.9370  0.5883
  856TIP3    H224060   5.817   1.031   0.293  1.1360  1.4342  1.6680
  857TIP3   OH224061   2.700   2.183   2.369 -0.0288  0.2457 -0.1375
  857TIP3    H124062   2.735   2.100   2.403  0.4362 -0.5220 -2.3641
  857TIP3    H224063   2.750   2.251   2.414  1.8048 -0.7571 -0.5893
  858TIP3   OH224064   5.474   0.416  13.229  0.4612 -0.0309  0.1605
  858TIP3    H124065   5.545   0.473  13.259  0.7952 -0.2409 -0.2252
  858TIP3    H224066   5.442   0.457  13.149 -1.2424  1.1973  1.3982
  859TIP3   OH224067   4.309   5.024   2.565 -0.2026 -0.6996  0.0034
  859TIP3    H124068   4.300   4.975   2.647 -1.1880 -0.7178 -0.0943
  859TIP3    H224069   4.321   4.956   2.499 -0.0661 -0.7212  0.0495
  860TIP3   OH224070   0.199   2.107   5.691  0.2872 -0.3313 -0.4372
  860TIP3    H124071   0.196   2.026   5.640  2.5961 -0.7604 -0.0084
  860TIP3    H224072   0.271   2.095   5.752 -0.0673  1.5988  0.4573
  861TIP3   OH224073   0.156   4.978  15.950  0.3952 -0.0774 -0.1157
  861TIP3    H124074   0.152   4.984  15.855  0.8247 -1.6118 -0.2611
  861TIP3    H224075   0.241   4.937  15.968 -0.5056 -1.6552  0.7879
  862TIP3   OH224076   6.120   6.727   2.122  0.0386 -0.3695  0.7388
  862TIP3    H124077   6.153   6.638   2.126  1.3202  0.0412 -0.0917
  862TIP3    H224078   6.146   6.766   2.206  0.7676 -0.3579  0.5134
  863TIP3   OH224079   1.865   5.608   2.316  0.1434  0.1509  0.2906
  863TIP3    H124080   1.888   5.638   2.404 -0.3679  1.2783  0.0590
  863TIP3    H224081   1.794   5.666   2.288 -0.5216 -0.9540 -0.4116
  864TIP3   OH224082   2.721   1.907   1.520 -0.0100 -0.5544  0.1115
  864TIP3    H124083   2.800   1.958   1.501 -0.2182 -0.3143 -0.1197
  864TIP3    H224084   2.750   1.840   1.581  0.3767 -0.4736  0.0198
  865TIP3   OH224085   5.648   1.980   4.808 -0.4607 -0.2235  0.4010
  865TIP3    H124086   5.662   2.016   4.896  1.3559  3.6738 -1.2424
  865TIP3    H224087   5.564   2.018   4.780 -0.0524  0.2385 -0.2287
  866TIP3   OH224088   4.739   3.289  10.577 -0.1985 -0.3510  0.3111
  866TIP3    H124089   4.752   3.382  10.561 -0.3137 -0.1211  1.5201
  866TIP3    H224090   4.657   3.269  10.533  1.1718 -0.5457 -2.3904
  867TIP3   OH224091   3.117   2.922   2.583 -0.3145  0.1427  0.3822
  867TIP3    H124092   3.175   2.846   2.582 -1.1441 -0.5128  0.8512
  867TIP3    H224093   3.108   2.947   2.491  0.3578 -0.0101  0.2699
  868TIP3   OH224094   2.776   1.267  15.649 -0.6813 -0.1920  0.7269
  868TIP3    H124095   2.806   1.271  15.740 -1.0534 -0.1092  0.8461
  868TIP3    H224096   2.753   1.175  15.635 -0.1705 -0.3013  0.5658
  869TIP3   OH224097   6.370   6.049  11.230 -0.4049 -0.5064  0.6533
  869TIP3    H124098   6.336   6.134  11.257 -1.0480 -0.7871  0.7352
  869TIP3    H224099   6.441   6.070  11.170 -0.3218  0.0928  0.9492
  870TIP3   OH224100   1.261   2.569  16.868 -0.2875 -0.2588 -0.1291
  870TIP3    H124101   1.221   2.580  16.954 -1.2261  1.6494 -0.7652
  870TIP3    H224102   1.355   2.564  16.886 -0.5903 -2.2895  1.1657
  871TIP3   OH224103   5.380   3.903   0.588 -0.4561  0.3317  0.0001
  871TIP3    H124104   5.397   3.889   0.495  4.2329  1.2254  0.4694
  871TIP3    H224105   5.402   3.820   0.630 -0.1169  0.6542  0.4793
  872TIP3   OH224106   6.082   4.641   2.970  0.5043  0.0180 -0.0290
  872TIP3    H124107   6.143   4.572   2.998  0.0277 -0.8570 -1.0535
  872TIP3    H224108   6.072   4.697   3.046  1.4105 -0.6858  0.6312
  873TIP3   OH224109   3.507   5.223   6.585 -0.1276  0.0851  0.1837
  873TIP3    H124110   3.551   5.268   6.657  0.4972  0.2383 -0.2773
  873TIP3    H224111   3.416   5.216   6.613  0.6017 -2.4622  2.2789
  874TIP3   OH224112   4.045   6.342   1.428  0.0359  0.1877 -0.3977
  874TIP3    H124113   4.026   6.415   1.369  0.7784  1.0524  0.3977
  874TIP3    H224114   3.960   6.320   1.466 -0.0070  1.5255  0.3329
  875TIP3   OH224115   5.711   5.724   5.290 -0.4556  0.1779  0.1554
  875TIP3    H124116   5.737   5.815   5.274 -0.4513 -0.0196 -1.0638
  875TIP3    H224117   5.622   5.730   5.325  0.0076  0.6961  1.3002
  876TIP3   OH224118   3.673   3.637  15.495  0.5655  0.3563  0.4989
  876TIP3    H124119   3.767   3.621  15.508  0.4358  0.2117  1.2878
  876TIP3    H224120   3.667   3.670  15.405  1.2663 -0.4993  0.1198
  877TIP3   OH224121   0.426   5.755  12.674 -0.3336  0.0159 -0.2726
  877TIP3    H124122   0.401   5.755  12.581 -0.9080 -0.7573 -0.1301
  877TIP3    H224123   0.348   5.787  12.719  0.0680  0.7388 -0.0763
  878TIP3   OH224124   2.609   2.254   1.271 -0.0152 -0.7881 -0.0818
  878TIP3    H124125   2.542   2.189   1.294  0.2761 -0.8991  0.4607
  878TIP3    H224126   2.595   2.326   1.333  2.0164 -1.9131  1.8013
  879TIP3   OH224127   3.665   2.693   4.356 -0.4404 -0.3299  0.6611
  879TIP3    H124128   3.666   2.648   4.271 -1.4581  0.0469  0.4306
  879TIP3    H224129   3.672   2.786   4.333 -0.6927 -0.2288  0.9949
  880TIP3   OH224130   6.547   4.281  13.911  0.2811  0.0999  0.2378
  880TIP3    H124131   6.523   4.220  13.841 -1.9012  1.3316 -0.1740
  880TIP3    H224132   6.473   4.278  13.973  0.3566  1.8702  0.4831
  881TIP3   OH224133   1.633   2.058  16.295 -0.5979  0.2457 -0.0929
  881TIP3    H124134   1.641   2.116  16.370  4.4315  1.5053 -1.2198
  881TIP3    H224135   1.630   1.970  16.333 -0.6643  0.9481  1.6041
  882TIP3   OH224136   2.607   1.822  14.517  0.0638  0.0799  0.2805
  882TIP3    H124137   2.665   1.791  14.448 -1.5438 -0.8999 -0.7124
  882TIP3    H224138   2.647   1.791  14.598  0.2322 -1.8281 -0.4741
  883TIP3   OH224139   1.610   4.695  14.330  0.0937 -0.0215 -0.3393
  883TIP3    H124140   1.679   4.749  14.293 -1.8403  1.6878 -1.7196
  883TIP3    H224141   1.541   4.758  14.354 -2.6702 -1.8217 -2.8777
  884TIP3   OH224142   1.920   6.150   0.439 -0.0062 -0.4028 -0.3792
  884TIP3    H124143   1.966   6.188   0.513  0.7770 -1.8733 -0.0822
  884TIP3    H224144   1.848   6.101   0.478 -0.2175 -0.3333 -0.6751
  885TIP3   OH224145   0.531   5.915   0.362  0.2912  0.2850 -0.1145
  885TIP3    H124146   0.496   5.838   0.319  0.7283 -0.4372  0.8033
  885TIP3    H224147   0.596   5.949   0.300  0.1983 -0.1579 -0.4611
  886TIP3   OH224148   2.848   6.393  12.468 -0.0244  0.3752  1.0602
  886TIP3    H124149   2.760   6.430  12.480 -0.1684 -0.0442  1.3504
  886TIP3    H224150   2.904   6.468  12.452 -0.8427  0.5185 -1.6601
  887TIP3   OH224151   4.853   1.278   2.342 -0.2652  0.3439 -0.0645
  887TIP3    H124152   4.832   1.367   2.313 -3.0238  0.6336  2.3041
  887TIP3    H224153   4.905   1.290   2.422 -0.7567 -0.1371  0.3373
  888TIP3   OH224154   0.758   1.151   1.827  0.1431 -0.4995  0.7064
  888TIP3    H124155   0.787   1.122   1.913  0.6364  0.3299  0.8320
  888TIP3    H224156   0.831   1.129   1.769  0.5098  0.4276  0.7978
  889TIP3   OH224157   3.488   4.721   5.973 -0.0252  0.1036 -0.3213
  889TIP3    H124158   3.429   4.697   6.044 -0.4006  1.5463 -0.1168
  889TIP3    H224159   3.469   4.813   5.955  1.7273  0.4430 -0.6667
  890TIP3   OH224160   3.445   6.054  11.942 -0.0162 -0.5788  0.1173
  890TIP3    H124161   3.452   6.015  11.855 -1.0264 -0.2524 -0.1287
  890TIP3    H224162   3.351   6.049  11.963  0.4918 -3.3722  2.4641
  891TIP3   OH224163   5.902   5.831  16.360 -0.0491 -0.5404 -0.0167
  891TIP3    H124164   5.977   5.890  16.353 -0.0195 -0.3763  1.4800
  891TIP3    H224165   5.923   5.775  16.434 -1.3565 -0.5747  0.3404
  892TIP3   OH224166   5.994   6.433  14.307  0.0873 -0.3030 -0.1572
  892TIP3    H124167   5.975   6.488  14.231  1.2879  0.4920  0.0973
  892TIP3    H224168   5.958   6.482  14.381  0.5197 -0.1996 -0.0127
  893TIP3   OH224169   1.473   2.624  16.393  0.2039 -0.2666  0.1684
  893TIP3    H124170   1.547   2.685  16.387  1.6471 -1.7958  1.5088
  893TIP3    H224171   1.472   2.597  16.485 -3.8704  1.8356  0.9726
  894TIP3   OH224172   5.065   6.751  15.107  0.0023  0.0082  0.3258
  894TIP3    H124173   5.137   6.690  15.093 -0.7467 -0.8230  0.0533
  894TIP3    H224174   5.107   6.829  15.143  1.0325 -0.4776  0.2112
  895TIP3   OH224175   2.801   5.083  15.442 -0.0358  0.2672  0.2928
  895TIP3    H124176   2.828   5.024  15.513  1.4903 -0.0670 -0.5315
  895TIP3    H224177   2.848   5.051  15.365 -0.5397  1.5079 -0.5550
  896TIP3   OH224178   5.651   3.817   4.429 -0.9037 -0.6399 -0.1464
  896TIP3    H124179   5.742   3.846   4.436 -0.8302 -0.6150 -1.1337
  896TIP3    H224180   5.621   3.810   4.520  0.4452 -1.8045  0.2410
  897TIP3   OH224181   5.603   5.871   3.271 -0.1668 -0.1112 -0.4158
  897TIP3    H124182   5.631   5.952   3.227 -1.2337 -0.1030 -1.1151
  897TIP3    H224183   5.508   5.878   3.276 -0.1878 -0.8380  0.5106
  898TIP3   OH224184   5.314   4.475  12.346  0.1945 -0.3107  0.2038
  898TIP3    H124185   5.334   4.408  12.280  0.3941  0.6578 -0.7538
  898TIP3    H224186   5.259   4.538  12.299 -0.5523 -0.1371  1.2810
  899TIP3   OH224187   6.600   3.688  16.993  1.1777  0.1818 -0.6082
  899TIP3    H124188   6.552   3.719  17.070  0.5873  0.8864 -1.2411
  899TIP3    H224189   6.567   3.742  16.921  1.4503 -0.7194 -1.4253
  900TIP3   OH224190   6.361   3.657   1.996  0.3633  0.1513  0.0805
  900TIP3    H124191   6.318   3.664   2.081 -1.3749  1.1574 -0.8205
  900TIP3    H224192   6.424   3.730   1.995  1.9957 -1.1612  1.2958
  901TIP3   OH224193   3.400   5.367   2.196  0.1563 -0.2997 -0.0500
  901TIP3    H124194   3.360   5.329   2.118 -0.5961 -0.5555  0.4517
  901TIP3    H224195   3.382   5.461   2.189 -1.8506 -0.5491  0.8674
  902TIP3   OH224196   0.010   0.432   1.390  0.0814 -0.4778  0.3455
  902TIP3    H124197  -0.031   0.377   1.323  0.9470 -0.4241 -0.2543
  902TIP3    H224198  -0.016   0.521   1.368 -2.6609 -0.6873  2.2596
  903TIP3   OH224199   0.821   6.386   0.393  0.2527  0.1165  0.5622
  903TIP3    H124200   0.797   6.333   0.317  1.1590 -0.4212  0.6385
  903TIP3    H224201   0.800   6.332   0.468 -0.5933  0.6291  0.7042
  904TIP3   OH224202   1.003   3.834  13.329  0.3207  0.0052 -0.0271
  904TIP3    H124203   1.095   3.854  13.346  0.2082 -0.6132  1.3931
  904TIP3    H224204   0.998   3.738  13.331 -0.2967  0.0161 -0.5100
  905TIP3   OH224205   2.975   5.402  17.136 -0.4650  0.0185  0.5070
  905TIP3    H124206   3.056   5.453  17.143 -1.6222  2.4263 -1.7646
  905TIP3    H224207   2.911   5.463  17.099 -2.4531 -2.6502 -0.8452
  906TIP3   OH224208   5.296   6.220   3.271 -0.3246  0.3814  0.6174
  906TIP3    H124209   5.224   6.167   3.238  0.0901 -0.1961  0.6143
  906TIP3    H224210   5.340   6.253   3.192 -0.4135  0.5005  0.6169
  907TIP3   OH224211   2.231   4.615   2.144  0.1604  0.2614 -0.2370
  907TIP3    H124212   2.144   4.644   2.170 -0.3092  0.9897 -2.3986
  907TIP3    H224213   2.290   4.682   2.180 -0.3796  0.8323 -0.3872
  908TIP3   OH224214   4.255   0.285   1.722  0.1715 -0.2438 -0.2397
  908TIP3    H124215   4.339   0.299   1.678 -0.4393 -1.0108 -1.7508
  908TIP3    H224216   4.277   0.268   1.813  1.6876 -0.7280 -0.6730
  909TIP3   OH224217   6.275   2.726   3.809 -0.0639 -0.0975  0.1626
  909TIP3    H124218   6.293   2.769   3.892  1.1623 -0.8718  0.3436
  909TIP3    H224219   6.196   2.675   3.824 -0.0465  0.0483  0.7482
  910TIP3   OH224220   3.423   3.441   0.649 -0.2669 -0.6100 -0.0952
  910TIP3    H124221   3.403   3.390   0.727 -2.4997  0.2157 -0.0270
  910TIP3    H224222   3.405   3.532   0.675  1.4666 -0.0190 -0.8410
  911TIP3   OH224223   0.211   3.892  15.844  0.3216 -0.1660  0.4665
  911TIP3    H124224   0.261   3.937  15.912  2.8216 -1.4236 -0.4066
  911TIP3    H224225   0.171   3.818  15.889  1.4196 -0.6169  0.7399
  912TIP3   OH224226   0.304   4.087   3.114  0.7640  0.1596  0.6951
  912TIP3    H124227   0.338   4.018   3.171 -0.6905  0.5881  2.1508
  912TIP3    H224228   0.211   4.091   3.134  0.7138  2.2186  0.2820
  913TIP3   OH224229   6.544   0.606  12.969 -0.3563 -0.5820 -0.1497
  913TIP3    H124230   6.615   0.547  12.944 -0.7031 -0.8527 -0.5165
  913TIP3    H224231   6.572   0.692  12.939 -0.1553 -0.6785 -0.2390
  914TIP3   OH224232   2.761   1.354   0.362  0.4531  0.2133  0.3027
  914TIP3    H124233   2.821   1.307   0.304  0.9087  2.2954 -1.0332
  914TIP3    H224234   2.678   1.356   0.314 -0.0398 -0.6151  1.0929
  915TIP3   OH224235   5.840   5.715   2.018  0.1337  0.7975  0.1385
  915TIP3    H124236   5.861   5.712   2.112 -1.9497 -0.5612  0.6290
  915TIP3    H224237   5.876   5.633   1.983 -1.4249 -0.0127  0.3485
  916TIP3   OH224238   1.523   1.326   2.149 -0.0179 -0.2289 -0.5038
  916TIP3    H124239   1.612   1.360   2.139 -0.6318  1.4876 -0.5224
  916TIP3    H224240   1.514   1.311   2.243 -0.4770  1.9849 -0.1398
  917TIP3   OH224241   2.330   5.283  14.785 -0.4342 -0.0588 -0.5144
  917TIP3    H124242   2.277   5.226  14.730 -1.0301 -0.5778  0.5610
  917TIP3    H224243   2.311   5.254  14.874  0.6445  0.6334 -0.0414
  918TIP3   OH224244   1.535   5.040   0.341  0.3147 -0.1230  0.1778
  918TIP3    H124245   1.459   5.092   0.314 -0.7772 -2.4080 -1.4824
  918TIP3    H224246   1.525   5.030   0.435 -0.0690  1.6446  0.3638
  919TIP3   OH224247   4.641   1.480  14.139 -0.2190 -0.2243 -0.1007
  919TIP3    H124248   4.612   1.448  14.224 -0.9930  1.2172  0.1970
  919TIP3    H224249   4.654   1.400  14.087  0.2531 -1.1275  1.3331
  920TIP3   OH224250   4.540   2.371  10.466  0.2277  0.2147  0.8016
  920TIP3    H124251   4.622   2.394  10.510  0.8079 -0.5496  0.1541
  920TIP3    H224252   4.493   2.317  10.529  0.4910  0.1692  0.9612
  921TIP3   OH224253   1.558   0.587  12.363  0.5674 -0.2699  0.6287
  921TIP3    H124254   1.611   0.541  12.429  0.7462  1.7927  2.0319
  921TIP3    H224255   1.622   0.627  12.305  0.4076 -2.0493 -0.8669
  922TIP3   OH224256   2.008   5.942   2.170  0.0300  0.1688 -0.1229
  922TIP3    H124257   2.065   6.010   2.206 -0.2287  0.4119 -0.1747
  922TIP3    H224258   1.971   5.899   2.246 -0.1156  0.3456 -0.0942
  923TIP3   OH224259   0.431   1.766  13.185  0.2699  0.5475 -0.2986
  923TIP3    H124260   0.488   1.696  13.153 -0.8222 -0.3120 -0.4342
  923TIP3    H224261   0.425   1.751  13.280 -1.3185 -0.6366 -0.5368
  924TIP3   OH224262   1.284   5.862  15.989 -0.9581 -0.1060  0.1905
  924TIP3    H124263   1.365   5.827  16.027 -0.8899 -0.2778 -0.1128
  924TIP3    H224264   1.273   5.947  16.032 -0.6487 -0.1084  0.2798
  925TIP3   OH224265   2.137   1.931  12.768  0.0642 -0.1828 -0.0848
  925TIP3    H124266   2.079   1.879  12.712  0.9604 -2.0479  0.6382
  925TIP3    H224267   2.098   1.926  12.855  0.1378  0.4288 -0.0095
  926TIP3   OH224268   6.517   2.224   5.008 -0.0998  0.0944  0.4029
  926TIP3    H124269   6.451   2.155   5.015 -0.3415  0.3685  0.8236
  926TIP3    H224270   6.596   2.178   4.978 -0.2269 -0.3908  0.7901
  927TIP3   OH224271   3.797   5.237  10.916 -0.2656 -0.5048 -0.3178
  927TIP3    H124272   3.825   5.238  10.825  1.2188  0.2074  0.1130
  927TIP3    H224273   3.776   5.146  10.935 -2.6502 -0.3653 -1.9335
  928TIP3   OH224274   5.311   2.910   1.562  0.0447 -0.7264 -0.3566
  928TIP3    H124275   5.305   2.974   1.634  1.5659 -0.0870 -0.7463
  928TIP3    H224276   5.257   2.947   1.493  1.1363  0.3330 -0.6830
  929TIP3   OH224277   1.088   3.505   0.965 -0.2667 -0.3101  0.0816
  929TIP3    H124278   1.004   3.482   0.923  0.3525  0.3245 -1.5971
  929TIP3    H224279   1.116   3.424   1.007 -1.2061 -0.8320 -0.2571
  930TIP3   OH224280   4.731   1.158  12.251  0.0069  0.1794 -0.3776
  930TIP3    H124281   4.740   1.191  12.161  1.8258 -0.0704 -0.3247
  930TIP3    H224282   4.820   1.134  12.277 -0.5059  0.1224  1.4652
  931TIP3   OH224283   2.172   1.357   4.864 -0.5526 -0.2032  0.0116
  931TIP3    H124284   2.230   1.303   4.811  0.2018 -0.1046  0.6996
  931TIP3    H224285   2.108   1.296   4.900 -1.6078 -0.1437 -1.6587
  932TIP3   OH224286   3.598   4.177   5.329 -0.0418 -0.1018 -0.1846
  932TIP3    H124287   3.603   4.117   5.254  0.5772  0.4887 -0.6247
  932TIP3    H224288   3.637   4.259   5.297  1.2914 -0.1834  1.1186
  933TIP3   OH224289   3.551   3.576   3.914 -0.1212  0.9221  0.4305
  933TIP3    H124290   3.485   3.507   3.928 -0.3513  0.7587 -1.2600
  933TIP3    H224291   3.525   3.617   3.831  1.7730  0.9976 -0.1586
  934TIP3   OH224292   5.694   0.593  14.237  0.1576 -0.1187 -0.7037
  934TIP3    H124293   5.718   0.618  14.326  0.9073  0.9656 -1.1956
  934TIP3    H224294   5.750   0.518  14.217  0.6558  0.2197 -0.5923
  935TIP3   OH224295   1.471   4.770  12.898 -0.1100  0.3560  0.4555
  935TIP3    H124296   1.388   4.815  12.914 -0.2484 -0.0642  0.9592
  935TIP3    H224297   1.518   4.827  12.837 -1.4650 -0.2043 -1.2103
  936TIP3   OH224298   6.257   6.685  13.429 -0.4700 -0.1494  0.4374
  936TIP3    H124299   6.289   6.770  13.401  0.1878 -0.4529  0.2621
  936TIP3    H224300   6.295   6.672  13.516  1.1883 -1.1851 -0.3928
  937TIP3   OH224301   6.445   3.065  11.266  0.4383  0.3068 -0.0997
  937TIP3    H124302   6.493   3.026  11.339  1.3532  0.0621 -0.8060
  937TIP3    H224303   6.448   2.998  11.198 -0.1686  0.6361 -0.4547
  938TIP3   OH224304   4.056   4.754  13.814 -0.4210 -0.2583  0.1811
  938TIP3    H124305   3.974   4.802  13.832  0.3602  1.0567  0.3849
  938TIP3    H224306   4.119   4.823  13.792  0.8609 -1.1812  0.8651
  939TIP3   OH224307   1.256   5.809   5.709  0.5821 -0.2164  0.3744
  939TIP3    H124308   1.180   5.752   5.696  1.0460 -1.0317  1.1389
  939TIP3    H224309   1.278   5.799   5.802  1.6381 -0.0189  0.1593
  940TIP3   OH224310   1.598   3.363  16.588 -0.7534 -0.6717 -0.2175
  940TIP3    H124311   1.536   3.434  16.605 -0.4101 -0.6130  0.8557
  940TIP3    H224312   1.544   3.290  16.558 -1.1812 -0.1730 -0.6791
  941TIP3   OH224313   5.920   5.439   6.027  0.2136  0.0895 -0.0238
  941TIP3    H124314   5.985   5.501   6.061 -0.1964  0.1154  0.7300
  941TIP3    H224315   5.867   5.491   5.967 -0.3258  0.5701  0.8410
  942TIP3   OH224316   1.350   0.326   1.979 -0.0276 -0.0831  0.6880
  942TIP3    H124317   1.270   0.325   2.031 -0.4157  0.4624  0.1211
  942TIP3    H224318   1.409   0.266   2.025 -0.1348  0.8409  2.0852
  943TIP3   OH224319   6.682   2.843  16.069  0.5673  0.0485  0.8283
  943TIP3    H124320   6.604   2.895  16.089  1.1750  1.6833 -0.7491
  943TIP3    H224321   6.753   2.886  16.117  0.8321 -0.2090  0.6702
  944TIP3   OH224322   5.503   1.777   5.248 -0.2504 -0.4342  0.3685
  944TIP3    H124323   5.597   1.770   5.235 -0.3796 -0.4192 -0.6218
  944TIP3    H224324   5.491   1.760   5.342  0.6312 -1.4521  0.3134
  945TIP3   OH224325   2.225   6.586  16.877 -0.4803 -0.5909 -0.7126
  945TIP3    H124326   2.205   6.602  16.969  1.4327  0.4376 -0.4294
  945TIP3    H224327   2.191   6.498  16.860  2.4228 -2.4444  2.0657
  946TIP3   OH224328   0.402   0.755  11.013  0.0352 -0.0977  0.0781
  946TIP3    H124329   0.373   0.687  10.952  0.6772 -0.6876  0.4076
  946TIP3    H224330   0.451   0.817  10.959  3.3079 -2.1990  0.3538
  947TIP3   OH224331   4.790   1.544   2.391  0.2266  0.0075  0.4120
  947TIP3    H124332   4.755   1.569   2.477 -0.6135  2.2393 -0.5223
  947TIP3    H224333   4.856   1.610   2.372  0.1760 -0.2797 -0.7979
  948TIP3   OH224334   3.124   0.319  11.651 -0.5903 -0.2429  0.2712
  948TIP3    H124335   3.091   0.401  11.614 -2.3256 -1.0622 -0.0885
  948TIP3    H224336   3.053   0.288  11.708  0.7512 -0.6240  1.8171
  949TIP3   OH224337   1.570   4.508  15.503  0.4074 -0.1954  0.3312
  949TIP3    H124338   1.521   4.552  15.573 -1.3448 -0.8091 -0.4442
  949TIP3    H224339   1.530   4.541  15.422  1.2927 -0.7406 -0.3483
  950TIP3   OH224340   6.522   4.190  14.487  0.0798  0.4081  0.3665
  950TIP3    H124341   6.562   4.273  14.513 -0.7094  1.9920 -2.9564
  950TIP3    H224342   6.574   4.161  14.412 -2.4417  0.4721 -1.5527
  951TIP3   OH224343   2.693   2.920  16.661 -0.3622  0.1654 -0.6775
  951TIP3    H124344   2.658   2.854  16.600  1.6707 -1.4329 -0.2302
  951TIP3    H224345   2.725   2.869  16.735  1.9693  1.5543 -0.6414
  952TIP3   OH224346   4.608   2.077  15.012  0.7332 -0.1076 -0.4243
  952TIP3    H124347   4.697   2.045  14.998  0.4342 -0.6231 -1.1728
  952TIP3    H224348   4.620   2.167  15.044  1.6096 -1.1259  2.4093
  953TIP3   OH224349   2.739   2.109  12.111  0.2472  0.0623  0.7969
  953TIP3    H124350   2.722   2.190  12.160 -1.8281 -0.0445  0.3647
  953TIP3    H224351   2.681   2.044  12.151  1.0380 -0.9207  0.3831
  954TIP3   OH224352   1.250   4.366   1.127 -0.1004  0.3390 -0.4679
  954TIP3    H124353   1.208   4.448   1.101 -0.3480 -0.4707 -2.8161
  954TIP3    H224354   1.321   4.353   1.064 -0.1732 -1.3286 -0.2670
  955TIP3   OH224355   3.122   4.796  15.751  0.4404 -0.0106 -0.0362
  955TIP3    H124356   3.128   4.773  15.844  0.1967  2.2342  0.5785
  955TIP3    H224357   3.202   4.845  15.734 -0.1348  0.7073 -0.6755
  956TIP3   OH224358   4.319   5.867   1.764 -0.3530  0.1271 -0.1174
  956TIP3    H124359   4.255   5.796   1.766  0.7591 -0.9908 -1.6950
  956TIP3    H224360   4.304   5.915   1.845 -2.0081 -1.1368  0.3808
  957TIP3   OH224361   4.560   2.486  13.857 -0.5137 -0.1357 -0.4163
  957TIP3    H124362   4.471   2.475  13.824 -0.2694  0.6744 -1.4049
  957TIP3    H224363   4.559   2.446  13.944 -1.8542 -0.0847 -0.3936
  958TIP3   OH224364   1.255   5.806   2.960 -0.6285 -0.1618  0.1202
  958TIP3    H124365   1.350   5.798   2.951 -0.7468 -3.6392  0.4830
  958TIP3    H224366   1.220   5.780   2.875 -1.2136 -2.8154  1.0719
  959TIP3   OH224367   1.655   4.753   3.302 -0.3297  0.3011 -0.0729
  959TIP3    H124368   1.622   4.795   3.381 -1.7825 -1.6318  0.4260
  959TIP3    H224369   1.736   4.709   3.329 -0.1495  0.6900  0.0205
  960TIP3   OH224370   4.492   5.668  16.949 -0.4713 -0.4913 -0.5558
  960TIP3    H124371   4.517   5.717  17.028  0.5903 -0.6136 -0.8060
  960TIP3    H224372   4.397   5.662  16.954 -0.6166  1.3535 -0.3632
  961TIP3   OH224373   4.316   6.731   1.319 -0.1890 -0.0880 -0.1744
  961TIP3    H124374   4.274   6.750   1.236  1.1898  1.4570 -0.5922
  961TIP3    H224375   4.357   6.814   1.344 -0.7283 -0.4490  2.1585
  962TIP3   OH224376   2.248   2.834   4.584 -0.8445  0.3316  0.1446
  962TIP3    H124377   2.271   2.850   4.675 -0.1411  0.9816 -0.1364
  962TIP3    H224378   2.184   2.903   4.563 -1.8575 -0.4958  0.4605
  963TIP3   OH224379   4.215   1.575  16.550 -0.1010 -0.5952  0.2729
  963TIP3    H124380   4.214   1.589  16.455  1.8208  2.9173  0.6262
  963TIP3    H224381   4.133   1.614  16.580 -0.0979 -0.5137  0.1765
  964TIP3   OH224382   6.262   2.423   5.335 -0.1588 -0.0180  0.2312
  964TIP3    H124383   6.188   2.362   5.326 -1.6931  1.8710 -0.7022
  964TIP3    H224384   6.242   2.473   5.414  1.6801 -1.3966  1.6507
  965TIP3   OH224385   4.416   6.652   3.901  1.0642 -0.8856  0.2362
  965TIP3    H124386   4.497   6.702   3.907  1.0928 -0.7189 -1.2868
  965TIP3    H224387   4.367   6.678   3.979  2.0363 -0.2179  0.6504
  966TIP3   OH224388   3.086   1.664   1.717  0.5189 -0.2672  0.3078
  966TIP3    H124389   3.153   1.649   1.651 -0.9527 -2.9083 -0.7378
  966TIP3    H224390   3.101   1.597   1.783 -1.2337 -1.1484 -0.1300
  967TIP3   OH224391   0.415   1.063   5.327 -0.1454 -0.6704 -0.3305
  967TIP3    H124392   0.399   1.117   5.249 -0.3186  0.2071  0.2902
  967TIP3    H224393   0.328   1.048   5.363  0.0890  1.1091  1.0992
  968TIP3   OH224394   5.261   3.401  16.887  0.3250 -0.0262  0.0025
  968TIP3    H124395   5.355   3.402  16.902  0.7241 -2.3721 -1.8858
  968TIP3    H224396   5.226   3.341  16.954  0.4575 -0.7671 -0.5873
  969TIP3   OH224397   6.592   5.270   2.280 -0.4303 -0.6870 -0.4648
  969TIP3    H124398   6.620   5.338   2.341  0.3955 -0.4344 -1.1119
  969TIP3    H224399   6.536   5.316   2.217  0.9633 -0.3651 -1.5130
  970TIP3   OH224400   2.989   0.853   2.036  0.2027 -0.0585  0.1118
  970TIP3    H124401   2.987   0.840   1.941 -0.4844  0.8576 -0.0097
  970TIP3    H224402   3.079   0.835   2.060  0.6581  0.7487 -0.8853
  971TIP3   OH224403   5.850   4.932   0.318 -0.1213 -0.4197  0.5373
  971TIP3    H124404   5.835   5.005   0.258  2.5351 -0.2374 -0.0312
  971TIP3    H224405   5.798   4.953   0.395 -1.3944  0.7601 -0.5779
  972TIP3   OH224406   4.448   6.675   2.288 -0.0671  0.0035  0.1907
  972TIP3    H124407   4.450   6.768   2.266  0.4104  0.0225  0.3071
  972TIP3    H224408   4.368   6.643   2.248 -0.4128  0.5384  0.4444
  973TIP3   OH224409   6.186   0.603   3.267  0.2306  0.6628 -0.1974
  973TIP3    H124410   6.164   0.522   3.313  0.8316  1.5631  1.7874
  973TIP3    H224411   6.282   0.604   3.264  0.2125  0.8826 -1.0270
  974TIP3   OH224412   4.171   1.628  15.397  0.0607  0.6600 -0.1391
  974TIP3    H124413   4.120   1.638  15.317 -1.7773  0.8603  1.0055
  974TIP3    H224414   4.107   1.606  15.464  1.9100 -2.9714  0.6998
  975TIP3   OH224415   0.883   5.998  16.898 -0.2549 -0.4771  0.2444
  975TIP3    H124416   0.908   6.066  16.961 -0.9194  1.8555 -1.8457
  975TIP3    H224417   0.821   6.041  16.840 -0.6182 -2.8888 -1.2798
  976TIP3   OH224418   3.578   4.812   4.955  0.7656 -0.3807 -0.0427
  976TIP3    H124419   3.567   4.906   4.937  1.2680 -0.0995  1.0312
  976TIP3    H224420   3.504   4.791   5.012 -0.5537 -1.1511 -1.9510
  977TIP3   OH224421   6.587   0.938   4.900  0.4740 -0.1632  0.4554
  977TIP3    H124422   6.679   0.963   4.911  0.1910  0.1054  2.6775
  977TIP3    H224423   6.584   0.845   4.921  0.0033  0.1948  2.0469
  978TIP3   OH224424   1.439   3.447  11.512 -0.4335 -0.1882  0.3894
  978TIP3    H124425   1.531   3.424  11.516  0.3435  2.6476  3.1669
  978TIP3    H224426   1.395   3.380  11.564  0.0237 -1.4993 -0.8657
  979TIP3   OH224427   2.599   2.545   5.100 -0.5456  0.3504  0.3101
  979TIP3    H124428   2.602   2.635   5.135 -0.1230  0.0675  1.0290
  979TIP3    H224429   2.605   2.556   5.005  2.8660  0.9976  0.4531
  980TIP3   OH224430   1.026   4.141   5.278 -0.2146 -0.1129  0.1702
  980TIP3    H124431   1.023   4.143   5.374  0.7815  1.1145  0.2070
  980TIP3    H224432   1.002   4.051   5.255  0.5959 -0.7328  1.6169
  981TIP3   OH224433   6.718   1.868   3.924  0.2041 -0.5343  0.5427
  981TIP3    H124434   6.777   1.863   3.848 -1.3560 -0.0327 -0.7670
  981TIP3    H224435   6.656   1.796   3.910 -1.1688  0.6442  0.3580
  982TIP3   OH224436   1.044   4.900  15.242 -0.1151 -0.0879  0.1216
  982TIP3    H124437   1.029   4.816  15.199 -2.5475 -0.1813  0.9675
  982TIP3    H224438   1.053   4.962  15.170 -2.9867 -0.4193 -0.6721
  983TIP3   OH224439   3.611   1.986   1.825 -0.3448  0.2998 -0.1069
  983TIP3    H124440   3.677   2.034   1.876 -1.4158  1.2426  0.4452
  983TIP3    H224441   3.571   1.926   1.887  1.3267 -1.7952 -0.9074
  984TIP3   OH224442   5.992   0.986   4.077  0.2885 -0.2250 -0.5602
  984TIP3    H124443   6.038   1.069   4.090 -1.4233  0.9009 -1.4369
  984TIP3    H224444   6.063   0.921   4.069  1.7001  1.3071 -1.1033
  985TIP3   OH224445   5.444   3.810  13.343  0.3097  0.6030  0.2447
  985TIP3    H124446   5.378   3.741  13.356  0.2347  0.7315  0.5578
  985TIP3    H224447   5.393   3.891  13.336  0.4539  0.7674  0.9675
  986TIP3   OH224448   5.812   4.004   2.746 -0.5623  0.3225 -0.0551
  986TIP3    H124449   5.718   3.993   2.738 -0.4502 -1.3832  0.5300
  986TIP3    H224450   5.847   3.968   2.664 -0.4625  2.6976 -1.1407
  987TIP3   OH224451   5.533   3.783  16.248  0.1876  0.1727  0.5902
  987TIP3    H124452   5.497   3.695  16.239 -0.4439  0.6332 -2.7549
  987TIP3    H224453   5.461   3.835  16.283 -0.5254 -0.0574 -0.4870
  988TIP3   OH224454   3.358   1.027  15.026  0.2593 -0.0273  0.0739
  988TIP3    H124455   3.403   0.943  15.036 -0.8900 -0.6871 -0.1321
  988TIP3    H224456   3.290   1.010  14.962  1.3164  1.6219 -1.5615
  989TIP3   OH224457   2.112   1.428  11.187 -0.1566 -0.3591  0.3412
  989TIP3    H124458   2.163   1.452  11.110 -0.8909 -2.0546 -0.7184
  989TIP3    H224459   2.162   1.358  11.229  0.6292  1.0712  1.8896
  990TIP3   OH224460   0.828   3.478   3.426  0.3649 -0.3334  0.0932
  990TIP3    H124461   0.844   3.545   3.492  1.6880  0.3265 -0.8336
  990TIP3    H224462   0.748   3.506   3.381  0.5568  0.2888  0.1340
  991TIP3   OH224463   6.412   5.343   4.548  0.2912 -0.2438 -0.1222
  991TIP3    H124464   6.487   5.311   4.598  0.8847 -0.3366 -1.0347
  991TIP3    H224465   6.451   5.378   4.467 -0.6115  0.1216 -0.4136
  992TIP3   OH224466   2.861   5.196   5.487  0.2749 -0.4481 -0.1525
  992TIP3    H124467   2.920   5.121   5.476  2.7242  1.5876 -2.1204
  992TIP3    H224468   2.900   5.246   5.559  1.4642  1.2265 -1.8666
  993TIP3   OH224469   3.561   1.858  11.412 -0.3049  0.0939 -0.1032
  993TIP3    H124470   3.565   1.859  11.507 -0.8081  1.4582 -0.0736
  993TIP3    H224471   3.582   1.768  11.387  0.7037 -0.0598  1.2495
  994TIP3   OH224472   5.726   5.428  13.193  0.0850  0.0209  0.4044
  994TIP3    H124473   5.678   5.378  13.126  0.8701  0.5860 -0.6074
  994TIP3    H224474   5.803   5.374  13.212  0.6430  0.5508 -0.2798
  995TIP3   OH224475   6.641   3.610   2.101  0.0809 -0.0355  0.4472
  995TIP3    H124476   6.557   3.584   2.064 -0.3169 -0.4631  1.6010
  995TIP3    H224477   6.645   3.705   2.087 -1.0181  0.1371  1.2008
  996TIP3   OH224478   5.762   6.538  15.555  0.0452  0.0570  0.1131
  996TIP3    H124479   5.801   6.522  15.641 -0.4093  0.2613  0.3598
  996TIP3    H224480   5.745   6.451  15.520  1.5994 -0.0713 -0.4139
  997TIP3   OH224481   6.332   5.218  13.093 -0.1019  0.4647  0.0144
  997TIP3    H124482   6.316   5.190  13.003  0.0073 -0.6835  0.3434
  997TIP3    H224483   6.250   5.199  13.139 -0.3822  1.6451  0.0265
  998TIP3   OH224484   2.622   6.804   5.877  0.8772 -0.1013 -0.2266
  998TIP3    H124485   2.687   6.737   5.853  0.6048 -0.5005  0.1317
  998TIP3    H224486   2.642   6.878   5.820  1.9104 -0.0679  0.1707
  999TIP3   OH224487   0.633   5.200  11.717  0.7586  0.3827 -0.5395
  999TIP3    H124488   0.573   5.236  11.782  2.2757  1.1871  0.4443
  999TIP3    H224489   0.672   5.124  11.760 -0.9274 -1.3647 -1.8870
 1000TIP3   OH224490   4.679   2.653   2.474  0.0126  0.3275 -0.7707
 1000TIP3    H124491   4.645   2.717   2.536  1.0879  0.4737 -0.3063
 1000TIP3    H224492   4.601   2.609   2.441 -0.5681 -1.2366  2.2592
 1001TIP3   OH224493   6.423   5.922   5.356  0.5797 -0.1519  0.4509
 1001TIP3    H124494   6.386   5.834   5.366 -0.6879  0.5536  2.7321
 1001TIP3    H224495   6.517   5.910   5.368  0.5810 -1.3374 -0.5075
 1002TIP3   OH224496   0.353   5.196  14.971  0.1080  0.3078  0.0979
 1002TIP3    H124497   0.268   5.238  14.983  1.1776  2.9999 -1.0182
 1002TIP3    H224498   0.415   5.252  15.018  1.4394 -0.9206 -0.1032
 1003TIP3   OH224499   3.874   5.167   0.978  0.1402  0.0026  0.0549
 1003TIP3    H124500   3.962   5.196   0.999  0.0182  0.2677  0.2112
 1003TIP3    H224501   3.880   5.072   0.973 -0.1070 -0.2303  2.7297
 1004TIP3   OH224502   2.482   6.156  13.741  0.5714  0.1587 -0.2190
 1004TIP3    H124503   2.473   6.120  13.652  2.4137  0.6436 -0.6475
 1004TIP3    H224504   2.481   6.079  13.798 -2.1226 -0.0754 -0.4577
 1005TIP3   OH224505   6.517   3.969   2.621  0.2641 -0.6316 -0.4432
 1005TIP3    H124506   6.451   4.026   2.660  1.0556 -0.1322  0.2019
 1005TIP3    H224507   6.468   3.912   2.562 -0.7148 -0.1661 -0.0980
 1006TIP3   OH224508   1.861   1.941  10.517 -0.1273  0.2598  0.0641
 1006TIP3    H124509   1.834   2.032  10.528  0.7836  1.5928 -5.5341
 1006TIP3    H224510   1.953   1.946  10.493 -0.6351 -1.6905 -2.8307
 1007TIP3   OH224511   6.203   0.998   0.369  0.5278  0.4777  0.4005
 1007TIP3    H124512   6.172   1.021   0.456  0.4651  1.1140  0.2134
 1007TIP3    H224513   6.142   1.040   0.309 -1.0736 -2.1750  0.0080
 1008TIP3   OH224514   5.356   4.404   2.276  0.0385 -0.0253  0.4610
 1008TIP3    H124515   5.394   4.446   2.198 -1.0585 -0.9739 -0.6309
 1008TIP3    H224516   5.291   4.343   2.241  1.3116 -2.4176  1.9801
 1009TIP3   OH224517   4.159   2.967   5.559  0.3530  0.3500  0.3940
 1009TIP3    H124518   4.087   2.917   5.521 -1.1887  1.1635  2.0781
 1009TIP3    H224519   4.217   2.901   5.597 -0.7156 -0.2323  1.0432
 1010TIP3   OH224520   3.287   0.551  16.060  0.0292 -0.2793  0.5661
 1010TIP3    H124521   3.256   0.639  16.081 -1.1271 -0.7499  0.9286
 1010TIP3    H224522   3.225   0.493  16.104  0.8701 -1.2818  0.4713
 1011TIP3   OH224523   4.528   4.732   0.581  0.2727  0.2754  0.2159
 1011TIP3    H124524   4.606   4.723   0.528  1.4846 -1.8481  2.1647
 1011TIP3    H224525   4.479   4.651   0.567  1.0625 -0.7690  2.8324
 1012TIP3   OH224526   5.849   6.346   2.287 -0.3257 -0.5963  0.1278
 1012TIP3    H124527   5.778   6.324   2.228 -0.5182  1.1662 -0.3505
 1012TIP3    H224528   5.875   6.435   2.262  2.2272 -1.2634  0.1076
 1013TIP3   OH224529   1.575   2.568   0.787  0.6472  0.0064  0.3136
 1013TIP3    H124530   1.493   2.604   0.820 -1.2446 -2.6804 -1.0708
 1013TIP3    H224531   1.639   2.587   0.855 -2.1295 -1.7769  3.7064
 1014TIP3   OH224532   1.926   0.420  16.722 -0.0422  0.1436 -0.0927
 1014TIP3    H124533   1.933   0.515  16.729 -0.5201  0.1954 -0.2788
 1014TIP3    H224534   1.994   0.387  16.780 -1.7250  0.5645  2.2364
 1015TIP3   OH224535   2.610   5.012  13.520 -0.0445  0.9182 -0.7197
 1015TIP3    H124536   2.555   5.070  13.466 -1.3554  0.1844 -0.2265
 1015TIP3    H224537   2.665   4.965  13.457  0.4077  2.0270 -1.1926
 1016TIP3   OH224538   3.594   6.348  12.629  0.5714 -0.6256  0.1701
 1016TIP3    H124539   3.602   6.344  12.724  0.4476  0.0761  0.2159
 1016TIP3    H224540   3.525   6.285  12.608  1.3046 -1.5458  0.4363
 1017TIP3   OH224541   4.272   6.566   5.645  0.3916  0.6388  0.0946
 1017TIP3    H124542   4.274   6.575   5.741 -0.9303 -0.5737  0.2717
 1017TIP3    H224543   4.342   6.504   5.626 -0.0972 -0.0257  0.4157
 1018TIP3   OH224544   3.172   4.367   6.085 -0.1997  0.5115  0.8156
 1018TIP3    H124545   3.268   4.374   6.086 -0.1257  1.5711 -2.4741
 1018TIP3    H224546   3.146   4.405   6.001 -3.5596  0.4327  1.6912
 1019TIP3   OH224547   3.101   5.957  15.484  0.5697  0.1579  0.0930
 1019TIP3    H124548   3.128   6.011  15.409  0.3734  0.7044  0.4132
 1019TIP3    H224549   3.121   6.011  15.561 -1.5013  0.6277  0.3508
 1020TIP3   OH224550   2.721   6.353  13.263  0.5562 -0.5363 -0.0556
 1020TIP3    H124551   2.748   6.392  13.346  0.9254  2.0788 -1.2862
 1020TIP3    H224552   2.626   6.347  13.268  0.5526 -0.0746  0.4346
 1021TIP3   OH224553   3.685   1.034   0.643  0.1735 -0.4033  0.8728
 1021TIP3    H124554   3.609   1.049   0.586 -0.0024 -2.1500  0.5932
 1021TIP3    H224555   3.696   1.117   0.690 -0.2849  0.7758 -0.9647
 1022TIP3   OH224556   3.431   1.381   0.083 -0.2030 -0.0372  0.2689
 1022TIP3    H124557   3.432   1.291   0.117  1.5434 -0.1069  0.1226
 1022TIP3    H224558   3.383   1.375   0.001  0.0195 -0.8765  0.1882
 1023TIP3   OH224559   0.712   0.345   3.703  0.0002 -0.2244  0.2709
 1023TIP3    H124560   0.687   0.256   3.726 -1.7655  0.3308  0.6563
 1023TIP3    H224561   0.634   0.383   3.663  0.7099  1.1653  0.1132
 1024TIP3   OH224562   5.623   4.681  15.481 -0.6418  0.0557  0.2448
 1024TIP3    H124563   5.710   4.701  15.516 -0.8927 -0.5590  1.2586
 1024TIP3    H224564   5.584   4.767  15.465 -0.0386  0.3429  0.2671
 1025TIP3   OH224565   2.468   1.914   3.759  0.5515  0.2121 -0.2448
 1025TIP3    H124566   2.387   1.953   3.792 -1.5733 -2.5360 -1.8510
 1025TIP3    H224567   2.463   1.925   3.664  1.0929 -1.7244 -0.5264
 1026TIP3   OH224568   2.792   2.458   2.010 -0.5186 -0.0035  0.0972
 1026TIP3    H124569   2.743   2.448   1.928 -1.4666 -0.8546  0.7436
 1026TIP3    H224570   2.863   2.519   1.988  0.6374 -1.9248 -1.9620
 1027TIP3   OH224571   3.299   1.964   1.556  0.5496 -0.2945  0.2273
 1027TIP3    H124572   3.224   1.938   1.502  1.0445 -1.8328  0.2254
 1027TIP3    H224573   3.375   1.933   1.507  1.0142 -1.7465  1.7695
 1028TIP3   OH224574   5.542   2.760  12.405  0.2263 -0.8843  0.3669
 1028TIP3    H124575   5.478   2.694  12.380 -0.3187 -1.2443  2.5044
 1028TIP3    H224576   5.607   2.712  12.457 -0.4720  0.2682  2.4262
 1029TIP3   OH224577   1.033   2.876   5.682 -0.3715 -0.0773  0.1532
 1029TIP3    H124578   1.095   2.814   5.644 -0.5909 -0.9075  1.0968
 1029TIP3    H224579   0.975   2.899   5.610  1.9378  1.9755 -1.1841
 1030TIP3   OH224580   0.422   1.385  11.214  0.5852  0.4100 -0.3947
 1030TIP3    H124581   0.395   1.294  11.198 -0.4430  0.4444  0.8930
 1030TIP3    H224582   0.415   1.428  11.129  1.0524 -0.7011 -1.0116
 1031TIP3   OH224583   4.335   0.034   5.895 -0.0214  0.2335 -0.5715
 1031TIP3    H124584   4.296  -0.053   5.882  0.0767  0.4002 -2.2595
 1031TIP3    H224585   4.378   0.029   5.980 -1.3173 -0.8685  0.0597
 1032TIP3   OH224586   4.990   6.743  13.717  0.0524  0.0485  0.1143
 1032TIP3    H124587   4.978   6.838  13.705 -0.1021  0.2587  1.6609
 1032TIP3    H224588   4.968   6.705  13.632  0.6972  1.4402 -0.7124
 1033TIP3   OH224589   4.456   3.436  10.823 -0.2961 -0.1188  0.2902
 1033TIP3    H124590   4.401   3.511  10.848 -1.1204 -0.2183 -1.1096
 1033TIP3    H224591   4.454   3.436  10.728  1.8768 -0.3585  0.1853
 1034TIP3   OH224592   5.451   3.687  13.824  0.6496  0.4005 -0.6874
 1034TIP3    H124593   5.483   3.625  13.891  0.1009  0.7048 -0.1327
 1034TIP3    H224594   5.412   3.758  13.875 -0.3562  0.3263 -1.3424
 1035TIP3   OH224595   6.353   3.143  12.027 -0.1546 -0.1995 -0.2284
 1035TIP3    H124596   6.277   3.183  11.986 -0.7965 -0.1976  0.9186
 1035TIP3    H224597   6.415   3.215  12.039 -0.6741  0.1533  0.3973
 1036TIP3   OH224598   0.765   2.038   3.132 -0.3176 -0.7249  0.3122
 1036TIP3    H124599   0.852   2.074   3.152  0.4820 -1.6231 -1.3862
 1036TIP3    H224600   0.781   1.947   3.110 -1.5431 -0.6218 -1.1285
 1037TIP3   OH224601   2.745   0.456  13.183  0.1007  0.1592  0.4613
 1037TIP3    H124602   2.679   0.394  13.152  0.3561 -0.6694  1.4986
 1037TIP3    H224603   2.701   0.509  13.248  0.2673  0.1049  0.6187
 1038TIP3   OH224604   4.383   1.092   4.707 -0.0197 -0.9492  0.3749
 1038TIP3    H124605   4.306   1.057   4.752  0.6917 -1.4562  1.2308
 1038TIP3    H224606   4.424   1.016   4.666  0.6026 -0.8639  0.8204
 1039TIP3   OH224607   2.942   1.073   5.072 -0.5355  0.5399  0.3536
 1039TIP3    H124608   2.986   1.127   5.006 -0.2231 -0.1142  0.0102
 1039TIP3    H224609   3.008   1.063   5.141  0.3462 -1.3936 -0.6716
 1040TIP3   OH224610   3.045   4.977  12.757  0.0399 -0.2449 -0.1975
 1040TIP3    H124611   2.977   4.977  12.824  1.9809 -1.7622  1.9430
 1040TIP3    H224612   3.096   5.057  12.775 -0.4493  0.2702 -1.0389
 1041TIP3   OH224613   6.230   0.001   5.864 -0.2017 -0.5954  0.0459
 1041TIP3    H124614   6.154  -0.046   5.899 -1.4823  0.7802 -0.7472
 1041TIP3    H224615   6.221   0.090   5.898 -0.5721  0.3497 -2.3215
 1042TIP3   OH224616   6.144   1.019  13.476 -0.0842 -0.3396  0.4654
 1042TIP3    H124617   6.086   1.091  13.499 -0.4134 -0.4805  0.0934
 1042TIP3    H224618   6.124   1.001  13.384  1.3033  0.3081  0.0138
 1043TIP3   OH224619   2.087   3.281  15.204  0.1977  0.2299  0.1031
 1043TIP3    H124620   2.171   3.271  15.159  0.0319  1.9163 -0.6620
 1043TIP3    H224621   2.042   3.197  15.191  0.1259  0.6411 -3.0286
 1044TIP3   OH224622   5.559   2.425   5.376 -0.2724  0.6372  0.6800
 1044TIP3    H124623   5.608   2.343   5.367  0.9179  1.4595 -0.7723
 1044TIP3    H224624   5.517   2.418   5.462  0.6476 -1.0421  1.0431
 1045TIP3   OH224625   5.061   2.778  15.355  0.3287 -0.1881 -0.8332
 1045TIP3    H124626   5.036   2.687  15.374  1.8364 -0.3898  0.4155
 1045TIP3    H224627   4.981   2.828  15.371  0.0042 -1.0818  0.5103
 1046TIP3   OH224628   4.157   4.484  16.154 -0.1535  0.0785 -0.3741
 1046TIP3    H124629   4.125   4.430  16.227  0.2958  0.1221 -0.1438
 1046TIP3    H224630   4.238   4.442  16.127  2.3723  2.7478  2.3554
 1047TIP3   OH224631   0.588   0.969  10.914 -0.6490  0.1556 -0.6473
 1047TIP3    H124632   0.639   0.907  10.862 -0.0887  0.6771 -0.7308
 1047TIP3    H224633   0.512   0.990  10.860 -0.1302  0.6034 -1.2102
 1048TIP3   OH224634   0.838   1.442   1.067  0.1456 -0.0144  0.6005
 1048TIP3    H124635   0.919   1.393   1.055 -0.1200 -0.7823  1.7569
 1048TIP3    H224636   0.798   1.442   0.980  0.3914 -1.4607  0.4496
 1049TIP3   OH224637   1.238   0.747  15.277  0.1295 -0.5563 -0.1684
 1049TIP3    H124638   1.273   0.684  15.214  0.1208  0.5471 -1.3020
 1049TIP3    H224639   1.206   0.693  15.349  0.3286 -1.8397 -1.0127
 1050TIP3   OH224640   4.172   6.645  15.198  0.7825 -0.5042 -0.0363
 1050TIP3    H124641   4.165   6.731  15.156 -0.9231 -2.6778 -4.9773
 1050TIP3    H224642   4.092   6.639  15.251  0.1033  0.4390 -0.8900
 1051TIP3   OH224643   3.124   1.991  13.766  0.2617 -0.6511 -0.4380
 1051TIP3    H124644   3.105   2.047  13.841 -1.6393 -1.3378 -0.3469
 1051TIP3    H224645   3.197   2.034  13.722  0.1908  0.7794  0.7637
 1052TIP3   OH224646   1.705   1.667  16.697  0.1545 -0.0764  0.0042
 1052TIP3    H124647   1.764   1.688  16.769  1.1348  0.6694 -0.9814
 1052TIP3    H224648   1.698   1.571  16.699  0.0738 -0.0580  1.1438
 1053TIP3   OH224649   1.084   3.302  11.037  0.4139  0.0839  0.0199
 1053TIP3    H124650   1.137   3.242  10.985  0.9272  0.2792  0.3056
 1053TIP3    H224651   1.142   3.329  11.109  0.8722  2.3275 -1.0772
 1054TIP3   OH224652   2.894   5.011   3.884 -0.3797  0.2688 -0.6599
 1054TIP3    H124653   2.898   5.029   3.978 -0.9117  0.7008 -0.7148
 1054TIP3    H224654   2.964   5.064   3.846 -0.0511 -0.0434 -0.4862
 1055TIP3   OH224655   0.514   2.112   3.189 -0.0048  0.0368 -0.0699
 1055TIP3    H124656   0.604   2.079   3.180 -0.1937 -0.0541 -2.0562
 1055TIP3    H224657   0.525   2.204   3.213  0.5746 -0.3220  1.1500
 1056TIP3   OH224658   0.842   2.084   2.469 -0.5115  0.5392 -0.4262
 1056TIP3    H124659   0.912   2.022   2.494 -0.2314  0.5917 -1.0695
 1056TIP3    H224660   0.878   2.170   2.489 -1.0008  0.4938  0.7127
 1057TIP3   OH224661   0.652   2.002   2.214  0.3950  0.0800  0.5833
 1057TIP3    H124662   0.686   2.016   2.126 -0.0385  0.3757  0.4570
 1057TIP3    H224663   0.599   1.922   2.207  1.9651 -1.0635  1.0470
 1058TIP3   OH224664   4.220   4.413   4.023 -0.2996  0.0630 -0.1283
 1058TIP3    H124665   4.304   4.402   4.067  0.8453  2.3486 -1.5391
 1058TIP3    H224666   4.211   4.334   3.969  1.6666  0.3475 -0.9923
 1059TIP3   OH224667   5.583   4.479  16.540  0.5375 -0.2838 -0.1279
 1059TIP3    H124668   5.670   4.491  16.578  0.6095  0.5845 -0.5486
 1059TIP3    H224669   5.586   4.527  16.458 -0.8923  1.3022  0.6839
 1060TIP3   OH224670   4.763   0.271   3.320  0.2893 -0.6805  0.8089
 1060TIP3    H124671   4.821   0.336   3.280 -1.8033  0.1729 -1.0447
 1060TIP3    H224672   4.775   0.282   3.414  1.6434  0.8316  0.4937
 1061TIP3   OH224673   5.592   0.825  12.840 -0.6854  0.5087  0.1582
 1061TIP3    H124674   5.514   0.777  12.868 -1.7554  1.1836 -1.5127
 1061TIP3    H224675   5.623   0.868  12.919 -2.0864  0.3240  0.8413
 1062TIP3   OH224676   1.020   2.273   2.701  0.4508 -0.4098 -0.1901
 1062TIP3    H124677   1.032   2.272   2.796 -0.9892 -0.0459  0.0290
 1062TIP3    H224678   0.938   2.321   2.688  0.9727  0.1357 -1.6698
 1063TIP3   OH224679   1.488   2.205  10.227 -0.0354 -0.0894 -0.5021
 1063TIP3    H124680   1.548   2.144  10.182 -1.6939 -2.0620 -0.1988
 1063TIP3    H224681   1.542   2.248  10.293  1.3436 -0.7573 -1.1527
 1064TIP3   OH224682   3.870   1.240   4.702  0.4099  0.4309  0.7738
 1064TIP3    H124683   3.950   1.284   4.732  1.0470  1.1402 -1.6715
 1064TIP3    H224684   3.902   1.166   4.650 -0.3304  1.8169 -1.8847
 1065TIP3   OH224685   5.301   1.417  14.246  0.6818  0.0015  0.4143
 1065TIP3    H124686   5.377   1.461  14.284 -0.2816  3.1920 -1.0490
 1065TIP3    H224687   5.226   1.470  14.272 -0.5545 -0.5878 -1.6510
 1066TIP3   OH224688   3.202   6.756  11.155 -0.1399  0.3370 -0.5699
 1066TIP3    H124689   3.202   6.805  11.073 -1.3252  2.1417  0.4460
 1066TIP3    H224690   3.109   6.747  11.177  0.1862  1.0360  1.2108
 1067TIP3   OH224691   6.631   1.297   1.245 -0.4053  0.1024  0.2998
 1067TIP3    H124692   6.708   1.353   1.242  0.4354 -1.0614 -1.0131
 1067TIP3    H224693   6.576   1.329   1.173  0.9351 -1.8623 -1.6997
 1068TIP3   OH224694   0.252   5.332  13.845 -0.5004 -0.2457  0.0816
 1068TIP3    H124695   0.325   5.391  13.862 -0.7546  0.3937 -0.9244
 1068TIP3    H224696   0.221   5.356  13.757 -0.2094 -2.2965 -0.6589
 1069TIP3   OH224697   2.818   3.907  12.376 -0.2376  0.5830 -0.0404
 1069TIP3    H124698   2.834   3.986  12.325  1.5877  1.7159  2.0901
 1069TIP3    H224699   2.809   3.938  12.466  1.3929 -1.6604  0.9844
 1070TIP3   OH224700   5.214   0.100   5.814 -0.0662 -0.2557 -0.0506
 1070TIP3    H124701   5.288   0.056   5.856  0.6279 -0.3721 -1.3395
 1070TIP3    H224702   5.201   0.053   5.732 -1.5836 -0.2237  0.1444
 1071TIP3   OH224703   6.177   1.164   5.539  0.1905  0.1072 -0.1664
 1071TIP3    H124704   6.130   1.229   5.591  0.0308  0.7696 -1.1182
 1071TIP3    H224705   6.241   1.127   5.600 -0.6128  0.1893  0.7597
 1072TIP3   OH224706   1.576   5.996  15.021 -0.7331 -0.3517  0.4815
 1072TIP3    H124707   1.505   6.009  15.082 -0.9788 -1.2660  0.4020
 1072TIP3    H224708   1.655   5.996  15.075 -0.9116 -0.7163  0.7448
 1073TIP3   OH224709   3.198   4.261   2.700 -0.4229 -0.1315  0.6334
 1073TIP3    H124710   3.268   4.202   2.730  1.5169  1.2176 -0.9421
 1073TIP3    H224711   3.221   4.346   2.738  0.9822  1.1573 -2.7061
 1074TIP3   OH224712   4.577   5.610  13.663  0.1140  0.3789 -0.3843
 1074TIP3    H124713   4.494   5.571  13.689  0.6646 -2.2078 -2.0932
 1074TIP3    H224714   4.612   5.649  13.743 -1.3901 -1.0842  1.0752
 1075TIP3   OH224715   0.194   1.538   5.448 -0.3056 -0.6473 -0.0194
 1075TIP3    H124716   0.240   1.455   5.452 -0.3023 -0.5978  1.4133
 1075TIP3    H224717   0.211   1.579   5.533 -0.0643  0.9488 -0.8012
 1076TIP3   OH224718   5.614   3.218  16.059 -0.0570 -0.2689 -0.0301
 1076TIP3    H124719   5.608   3.170  15.976  1.3701 -1.1156  0.3324
 1076TIP3    H224720   5.614   3.310  16.033 -1.9527 -0.4402 -0.7928
 1077TIP3   OH224721   0.922   2.505  14.837 -0.2423  0.0877 -0.1822
 1077TIP3    H124722   0.936   2.461  14.921  0.5973  1.4717  0.4367
 1077TIP3    H224723   0.882   2.588  14.860 -0.9547  0.0617 -1.2538
 1078TIP3   OH224724   0.083   6.536  15.535  0.1588  0.4509 -0.0916
 1078TIP3    H124725   0.017   6.487  15.486  0.1346  1.0476 -0.6749
 1078TIP3    H224726   0.065   6.516  15.627  0.1194 -0.5879 -0.3110
 1079TIP3   OH224727   3.151   5.537   3.723  0.3842 -0.5706  0.0186
 1079TIP3    H124728   3.082   5.477   3.752 -1.4551  1.5217  0.2224
 1079TIP3    H224729   3.225   5.516   3.780 -0.4653 -2.0808  0.6380
 1080TIP3   OH224730   5.359   2.713  15.822  0.0447  0.4961  0.5280
 1080TIP3    H124731   5.446   2.743  15.795  0.9072 -1.8994  0.3985
 1080TIP3    H224732   5.376   2.657  15.898 -1.2209 -0.9456 -0.1994
 1081TIP3   OH224733   0.092   6.598   3.784 -0.3016 -0.6937 -0.9021
 1081TIP3    H124734   0.150   6.525   3.763 -0.4828 -0.5711 -1.8453
 1081TIP3    H224735   0.094   6.603   3.880 -0.8621 -2.3875 -0.7772
 1082TIP3   OH224736   1.854   6.116   6.540  0.0185 -0.0486 -0.2769
 1082TIP3    H124737   1.829   6.069   6.620 -0.3976  0.2415 -0.2319
 1082TIP3    H224738   1.789   6.187   6.533 -0.4039 -0.5178 -1.2698
 1083TIP3   OH224739   2.625   0.739   5.261 -0.1592 -0.5842  0.1545
 1083TIP3    H124740   2.533   0.763   5.256  0.1929  1.5378  2.1144
 1083TIP3    H224741   2.627   0.663   5.319 -0.6898 -0.6986  0.0232
 1084TIP3   OH224742   6.050   4.713  15.237 -0.3659 -0.2009 -0.5225
 1084TIP3    H124743   5.986   4.708  15.166 -1.1636  0.5954  0.1115
 1084TIP3    H224744   6.036   4.800  15.274  0.6148 -0.2922  0.0752
 1085TIP3   OH224745   2.764   6.385  15.526 -0.8948  0.4298 -0.1129
 1085TIP3    H124746   2.775   6.303  15.479  0.6938  0.6196 -0.1201
 1085TIP3    H224747   2.729   6.446  15.461  2.6084  1.0967 -1.6218
 1086TIP3   OH224748   2.249   1.464   2.129 -0.2725  0.7110 -0.1441
 1086TIP3    H124749   2.195   1.489   2.203 -0.3638  1.2103 -0.3735
 1086TIP3    H224750   2.289   1.546   2.100  0.0051  0.4709 -0.4525
 1087TIP3   OH224751   6.734   2.833  13.283 -0.1527  0.1105 -0.3230
 1087TIP3    H124752   6.648   2.790  13.278  0.0206 -0.2567 -0.1490
 1087TIP3    H224753   6.747   2.851  13.376  0.0525 -0.0320 -0.3223
 1088TIP3   OH224754   5.547   0.407  17.144 -0.4450  0.6980  0.7256
 1088TIP3    H124755   5.508   0.320  17.136 -1.8720  1.4614 -1.9408
 1088TIP3    H224756   5.487   0.456  17.199 -1.0470  0.6777  0.1082
 1089TIP3   OH224757   3.033   0.469  12.571  0.5084  0.5378 -0.5095
 1089TIP3    H124758   3.046   0.542  12.631 -1.7553  0.4575  0.1743
 1089TIP3    H224759   2.954   0.491  12.522 -0.3422 -1.5001 -0.1567
 1090TIP3   OH224760   6.765   2.975  11.372  0.1459  0.0971 -0.2250
 1090TIP3    H124761   6.745   3.055  11.322  0.2576  0.4774  0.3238
 1090TIP3    H224762   6.758   3.003  11.463  0.7229 -0.3941 -0.0305
 1091TIP3   OH224763   6.646   5.954  15.354  0.7794  0.0731 -0.0567
 1091TIP3    H124764   6.614   6.006  15.281  3.1321 -0.2394 -1.4242
 1091TIP3    H224765   6.740   5.974  15.358  1.2046 -1.9125  1.2054
 1092TIP3   OH224766   4.249   6.186   0.686 -0.3802  0.0109 -0.0528
 1092TIP3    H124767   4.279   6.096   0.694 -0.6713  0.0365  1.6022
 1092TIP3    H224768   4.313   6.238   0.734 -0.5486  0.6220 -0.4681
 1093TIP3   OH224769   0.646   3.766   1.064 -0.2716 -0.0525 -0.0552
 1093TIP3    H124770   0.629   3.725   1.149  1.4634 -1.4448 -0.3259
 1093TIP3    H224771   0.573   3.737   1.009 -0.3855 -0.7486  0.4491
 1094TIP3   OH224772   6.080   3.012   3.583 -0.5378  0.3620  0.1972
 1094TIP3    H124773   5.986   3.000   3.572 -0.8400  1.1031  1.7084
 1094TIP3    H224774   6.117   2.985   3.499 -1.9921 -0.9264 -0.0857
 1095TIP3   OH224775   5.418   2.671  16.574  0.5314  1.0014 -0.3205
 1095TIP3    H124776   5.347   2.662  16.510 -1.4962  2.8214  1.5135
 1095TIP3    H224777   5.403   2.602  16.638 -0.6845  2.3468  0.9402
 1096TIP3   OH224778   4.372   2.832   4.483 -0.1245  0.5773  0.0699
 1096TIP3    H124779   4.441   2.866   4.539  0.2799  0.2605 -0.2354
 1096TIP3    H224780   4.384   2.876   4.399 -0.4502  0.7112  0.0894
 1097TIP3   OH224781   6.311   6.785  14.327  0.2033  0.0851  0.0522
 1097TIP3    H124782   6.398   6.762  14.295  0.7889  2.1246  0.0635
 1097TIP3    H224783   6.262   6.811  14.249 -0.0724 -0.0680  0.1718
 1098TIP3   OH224784   5.000   2.806   1.626  0.5882 -0.1077 -0.1457
 1098TIP3    H124785   4.948   2.877   1.587  0.4040 -0.6317 -0.8860
 1098TIP3    H224786   4.986   2.815   1.720 -1.3575 -0.5776 -0.3316
 1099TIP3   OH224787   5.743   1.208   3.637 -0.1563  0.3911 -0.0943
 1099TIP3    H124788   5.828   1.240   3.667  1.2216 -1.9270 -1.2440
 1099TIP3    H224789   5.731   1.126   3.683 -1.5566  0.4304 -0.3426
 1100TIP3   OH224790   4.522   3.448  15.305  0.2622  0.2969  0.0886
 1100TIP3    H124791   4.589   3.478  15.244  1.2007 -2.7154 -0.5103
 1100TIP3    H224792   4.469   3.386  15.254 -0.0582 -0.9196  1.8105
 1101TIP3   OH224793   6.739   0.087   0.368  0.7473  0.2403 -0.2969
 1101TIP3    H124794   6.727  -0.005   0.343 -0.2870  0.0500  0.7595
 1101TIP3    H224795   6.812   0.085   0.431  0.7118  0.1282 -0.2581
 1102TIP3   OH224796   0.772   0.797   5.470  0.1725  0.0915 -0.3620
 1102TIP3    H124797   0.709   0.793   5.397 -0.8476 -2.5483  0.5260
 1102TIP3    H224798   0.786   0.705   5.494  1.5174  0.8131  1.9293
 1103TIP3   OH224799   1.788   5.628  13.167 -0.7156  0.1089  0.2601
 1103TIP3    H124800   1.832   5.638  13.251  2.2260 -1.4311 -0.9736
 1103TIP3    H224801   1.784   5.717  13.131 -4.6214  1.3325  3.0285
 1104TIP3   OH224802   3.359   4.423  12.442  0.0650  0.2497  0.1507
 1104TIP3    H124803   3.316   4.446  12.360 -0.8621  0.0413  0.5679
 1104TIP3    H224804   3.299   4.361  12.484  1.4469 -1.2073  0.0684
 1105TIP3   OH224805   1.264   2.312  13.004  0.4847 -0.0324  0.4004
 1105TIP3    H124806   1.331   2.328  13.070  1.1920 -0.2917 -0.2495
 1105TIP3    H224807   1.290   2.231  12.961 -2.4291 -2.4837  2.8584
 1106TIP3   OH224808   4.233   6.702   4.939  0.2688  0.4628  0.5084
 1106TIP3    H124809   4.285   6.622   4.940 -0.7735 -0.2520  1.4860
 1106TIP3    H224810   4.287   6.766   4.894  0.4925 -1.2065 -1.8101
 1107TIP3   OH224811   2.793   0.586  12.780 -0.1934  0.3821 -0.0645
 1107TIP3    H124812   2.805   0.648  12.852  3.1731  0.2201 -0.3410
 1107TIP3    H224813   2.835   0.506  12.810 -3.6444 -1.6047 -0.0935
 1108TIP3   OH224814   5.545   2.135   1.680 -0.1220 -0.0342 -0.0509
 1108TIP3    H124815   5.521   2.051   1.720 -1.2656  0.6312  0.6942
 1108TIP3    H224816   5.462   2.175   1.655  0.2057  1.8344  1.5807
 1109TIP3   OH224817   2.788   4.550  16.261  0.0362 -0.1952 -0.1075
 1109TIP3    H124818   2.864   4.550  16.204  0.3560 -0.9831  0.3126
 1109TIP3    H224819   2.713   4.555  16.201  0.3605 -1.1889 -0.6046
 1110TIP3   OH224820   2.700   3.332   4.443  0.0186 -0.0591  0.6306
 1110TIP3    H124821   2.723   3.402   4.505  2.8576 -1.1712  0.9541
 1110TIP3    H224822   2.615   3.359   4.408 -0.5968  1.7993  3.2540
 1111TIP3   OH224823   2.890   4.648   2.377  0.0612 -0.3833 -0.1095
 1111TIP3    H124824   2.919   4.582   2.441 -1.3552 -1.7686 -0.8482
 1111TIP3    H224825   2.933   4.729   2.406  0.8722 -1.3468  1.5432
 1112TIP3   OH224826   3.332   2.793   2.787  0.4515 -0.5644 -0.1530
 1112TIP3    H124827   3.401   2.798   2.854  1.4223 -0.6727 -1.1123
 1112TIP3    H224828   3.374   2.750   2.713 -1.1084 -2.0083 -0.2465
 1113TIP3   OH224829   4.582   0.425  16.940  0.6537 -0.4293 -0.0805
 1113TIP3    H124830   4.639   0.386  16.874  0.0597  1.6898 -1.9950
 1113TIP3    H224831   4.641   0.470  17.000  1.1049 -0.5758 -0.4094
 1114TIP3   OH224832   1.714   5.136   1.106  0.3365  0.2794 -0.2646
 1114TIP3    H124833   1.655   5.088   1.164 -1.9398  0.4835 -2.2755
 1114TIP3    H224834   1.739   5.214   1.156 -1.8356  0.6340  0.3634
 1115TIP3   OH224835   4.919   2.765  11.134  0.0962  0.2326 -0.0317
 1115TIP3    H124836   4.945   2.675  11.153  1.0131  0.4231 -0.3041
 1115TIP3    H224837   5.001   2.815  11.140 -0.4615  1.1119  0.5003
 1116TIP3   OH224838   1.397   3.447  16.042 -1.0089  0.0685  0.3449
 1116TIP3    H124839   1.451   3.526  16.047 -0.8899 -0.0001  0.1629
 1116TIP3    H224840   1.315   3.470  16.086 -0.0899 -0.4545  2.4215
 1117TIP3   OH224841   3.454   0.816   1.272 -0.0122 -0.2731  0.2860
 1117TIP3    H124842   3.525   0.848   1.216  0.6376  0.2849  1.4055
 1117TIP3    H224843   3.415   0.744   1.222  0.5973  0.1531 -0.8452
 1118TIP3   OH224844   0.422   0.155   4.784  0.2918 -0.0102  0.6217
 1118TIP3    H124845   0.477   0.153   4.706  2.4660  0.7586  2.0524
 1118TIP3    H224846   0.381   0.241   4.783  0.4971  0.0842  0.4414
 1119TIP3   OH224847   1.255   3.065   3.312 -0.2904 -0.2151  0.2113
 1119TIP3    H124848   1.200   3.136   3.345 -1.0492 -0.8858  0.4071
 1119TIP3    H224849   1.294   3.027   3.391 -1.0809 -0.9861  0.2341
 1120TIP3   OH224850   5.801   0.009  14.697 -0.3348  0.0481 -0.2740
 1120TIP3    H124851   5.731   0.073  14.711 -0.0715  0.2330  0.1897
 1120TIP3    H224852   5.772  -0.040  14.619  0.5896  2.2564 -2.1423
 1121TIP3   OH224853   6.822   6.426   4.520 -0.5812 -0.3888 -0.1638
 1121TIP3    H124854   6.776   6.492   4.468  0.4168  0.2578 -0.2491
 1121TIP3    H224855   6.755   6.362   4.542 -1.8225  1.1694  0.7997
 1122TIP3   OH224856   6.315   6.290   0.241 -0.2350  0.2309 -0.2466
 1122TIP3    H124857   6.316   6.248   0.327 -1.4428 -0.8356 -0.7227
 1122TIP3    H224858   6.225   6.279   0.211  0.3590 -0.1163 -1.9805
 1123TIP3   OH224859   6.378   1.987   2.919  0.0234 -0.0556  0.0125
 1123TIP3    H124860   6.312   1.922   2.942 -0.2163 -0.1302 -0.8277
 1123TIP3    H224861   6.330   2.053   2.868  0.7610 -0.6537 -1.5232
 1124TIP3   OH224862   1.581   5.618  15.427  0.8329  0.7858  0.0818
 1124TIP3    H124863   1.537   5.539  15.396 -0.2989  1.6337 -0.5928
 1124TIP3    H224864   1.602   5.666  15.346 -1.2767  2.5862  0.5056
 1125TIP3   OH224865   1.116   6.159  13.707  0.9206 -0.2090  0.4325
 1125TIP3    H124866   1.191   6.216  13.693  1.3678 -0.7805  0.4697
 1125TIP3    H224867   1.153   6.071  13.708  0.2528 -0.4927  0.4769
 1126TIP3   OH224868   3.588   0.174   2.915  0.2496 -0.0196 -0.1171
 1126TIP3    H124869   3.598   0.268   2.924  0.2957 -0.0469  0.1119
 1126TIP3    H224870   3.620   0.155   2.827  0.8632  0.0887  0.0782
 1127TIP3   OH224871   3.965   2.812   5.455  0.2553  0.5254  0.3244
 1127TIP3    H124872   4.015   2.804   5.373 -2.5375 -0.7944 -1.3996
 1127TIP3    H224873   3.885   2.858   5.430 -1.5674 -1.6060  1.8223
 1128TIP3   OH224874   3.450   4.923   3.073 -0.1131 -0.4161  0.0980
 1128TIP3    H124875   3.398   4.998   3.045  1.3674  1.3917  1.9175
 1128TIP3    H224876   3.492   4.892   2.992 -0.4921  0.9345 -0.6513
 1129TIP3   OH224877   2.015   0.965   4.833 -0.8497 -0.1033 -0.5918
 1129TIP3    H124878   1.955   0.900   4.797  1.4257 -2.1093 -0.9754
 1129TIP3    H224879   2.080   0.980   4.763  1.1329 -0.7440  1.0282
 1130TIP3   OH224880   6.464   4.782  13.055  0.6965  0.0718  0.1621
 1130TIP3    H124881   6.467   4.878  13.055  0.5496  0.0885 -0.7805
 1130TIP3    H224882   6.419   4.760  13.137  0.8503  0.8038  0.4519
 1131TIP3   OH224883   3.684   5.828  13.673  0.0567  0.0671  0.1936
 1131TIP3    H124884   3.654   5.888  13.605  1.2280 -1.6802 -2.0223
 1131TIP3    H224885   3.753   5.875  13.718 -1.0131  1.4182  0.4814
 1132TIP3   OH224886   5.072   5.390  15.579 -0.4077  0.7197  0.1051
 1132TIP3    H124887   5.163   5.417  15.562 -0.7584  0.2438 -3.0503
 1132TIP3    H224888   5.026   5.472  15.597  0.5250  1.0003  1.4036
 1133TIP3   OH224889   1.623   2.714  13.659 -0.0693 -0.1497  0.0794
 1133TIP3    H124890   1.546   2.736  13.712 -0.5993  0.1539 -0.7863
 1133TIP3    H224891   1.651   2.628  13.691  0.6599  0.7587  1.9816
 1134TIP3   OH224892   6.638   5.562   4.629  0.9159 -0.1534 -0.8242
 1134TIP3    H124893   6.605   5.552   4.718 -2.0140 -0.5040 -1.8424
 1134TIP3    H224894   6.697   5.637   4.634  0.7738 -0.1236  1.3860
 1135TIP3   OH224895   3.892   1.512   0.794  0.0045  0.7329  0.3437
 1135TIP3    H124896   3.948   1.573   0.747 -1.0721  1.4296 -0.0744
 1135TIP3    H224897   3.933   1.426   0.780 -0.9173  0.6752 -3.0529
 1136TIP3   OH224898   2.460   3.542   3.710 -0.0120  0.4419 -0.0189
 1136TIP3    H124899   2.454   3.450   3.684 -3.4817  0.8612 -1.3025
 1136TIP3    H224900   2.471   3.540   3.805 -1.0642 -1.3503  0.1117
 1137TIP3   OH224901   6.656   1.780   3.179  0.2714 -0.5170 -0.4305
 1137TIP3    H124902   6.709   1.709   3.144  0.3179 -0.7894  0.1711
 1137TIP3    H224903   6.571   1.771   3.138  0.0648 -1.3462  0.1633
 1138TIP3   OH224904   6.717   2.137   1.357  0.3178 -0.6752  0.2241
 1138TIP3    H124905   6.783   2.067   1.355 -0.8015 -1.8426  1.7813
 1138TIP3    H224906   6.645   2.102   1.304  1.1184  0.8635 -2.0241
 1139TIP3   OH224907   4.261   4.316  14.020 -0.2971  0.1775  0.0438
 1139TIP3    H124908   4.291   4.404  14.040 -1.8083  0.3318  1.8704
 1139TIP3    H224909   4.185   4.328  13.963 -1.1203  0.1111  1.1195
 1140TIP3   OH224910   1.845   1.482   3.020 -0.0193 -0.1855  0.0261
 1140TIP3    H124911   1.916   1.516   2.966  0.6942 -3.5122 -1.4140
 1140TIP3    H224912   1.791   1.559   3.041  2.4611  2.0191 -1.1397
 1141TIP3   OH224913   4.393   0.650  16.328  0.1131 -0.1486 -0.4852
 1141TIP3    H124914   4.334   0.715  16.365  1.2345  1.6144 -1.6663
 1141TIP3    H224915   4.397   0.671  16.235  0.6105 -1.8541 -0.8801
 1142TIP3   OH224916   6.482   2.724  13.164 -0.4038 -0.2617 -0.1148
 1142TIP3    H124917   6.455   2.769  13.084 -0.4672 -1.7311 -0.9747
 1142TIP3    H224918   6.514   2.638  13.133 -0.4979 -0.8892  1.4401
 1143TIP3   OH224919   6.497   2.572   1.063  0.0822 -0.3475  0.2856
 1143TIP3    H124920   6.470   2.550   1.153 -0.8624 -1.4908 -0.2516
 1143TIP3    H224921   6.417   2.601   1.021  0.4189 -0.3005 -0.3280
 1144TIP3   OH224922   4.699   2.197  12.270 -0.1393 -0.2923  0.1309
 1144TIP3    H124923   4.610   2.165  12.255 -0.8739  1.3866  0.7109
 1144TIP3    H224924   4.744   2.183  12.186 -2.4513  3.5035 -1.9908
 1145TIP3   OH224925   1.360   0.871  12.264 -0.1744 -0.5504  0.3775
 1145TIP3    H124926   1.454   0.862  12.279  0.2289  0.7674 -1.1084
 1145TIP3    H224927   1.324   0.784  12.283  1.6226 -1.6508 -0.9262
 1146TIP3   OH224928   1.884   3.431  15.308  0.5531  0.0022 -0.2711
 1146TIP3    H124929   1.959   3.384  15.269  1.5352  0.7573  0.6405
 1146TIP3    H224930   1.856   3.491  15.240  1.1057  0.0630 -0.4553
 1147TIP3   OH224931   2.639   0.299  12.627  0.0783 -0.5890  0.3567
 1147TIP3    H124932   2.698   0.325  12.698 -1.1239 -0.2642  1.2792
 1147TIP3    H224933   2.626   0.205  12.640  0.8917 -0.7944 -0.2490
 1148TIP3   OH224934   4.256   1.323   5.024  0.7622 -0.0973 -0.0195
 1148TIP3    H124935   4.302   1.399   4.988 -0.4457  0.3568 -0.6531
 1148TIP3    H224936   4.316   1.289   5.091  0.8041  2.1897  1.2234
 1149TIP3   OH224937   5.667   1.228  16.394  0.3916  0.5726  0.1184
 1149TIP3    H124938   5.736   1.283  16.431 -1.1098  1.3284  1.9376
 1149TIP3    H224939   5.606   1.290  16.354  0.4408 -0.0512 -0.9817
 1150TIP3   OH224940   5.630   0.878   4.568 -0.7276 -0.1621  0.2681
 1150TIP3    H124941   5.704   0.824   4.540 -0.0718  0.5831  0.5309
 1150TIP3    H224942   5.661   0.923   4.646 -1.4527  0.1983  0.3578
 1151TIP3   OH224943   5.140   2.019   4.551  0.3043 -0.0712  0.0948
 1151TIP3    H124944   5.108   1.980   4.470 -0.4050 -0.4475  0.5506
 1151TIP3    H224945   5.123   2.113   4.540  0.7285 -0.0512 -0.4220
 1152TIP3   OH224946   0.209   5.489  10.526 -0.1859  0.5278 -0.4710
 1152TIP3    H124947   0.162   5.494  10.609  0.7944 -2.2718  0.3476
 1152TIP3    H224948   0.143   5.507  10.459 -1.6796 -0.1383  0.7922
 1153TIP3   OH224949   0.162   1.786   2.254 -0.3025 -0.3162  0.4199
 1153TIP3    H124950   0.087   1.845   2.245 -0.3633 -0.3598  0.6421
 1153TIP3    H224951   0.145   1.715   2.193  0.3460  0.4916 -0.7393
 1154TIP3   OH224952   3.067   4.760  13.144  0.3324  0.7279  0.4160
 1154TIP3    H124953   3.155   4.752  13.107 -1.1697  1.7555 -3.9330
 1154TIP3    H224954   3.028   4.674  13.132  0.3049  0.6321  1.1516
 1155TIP3   OH224955   2.706   1.013   0.421  0.4595  0.0595  0.1521
 1155TIP3    H124956   2.615   0.995   0.446  0.4330 -0.9879 -0.6114
 1155TIP3    H224957   2.749   1.038   0.502 -0.8952  2.3346  0.2360
 1156TIP3   OH224958   5.025   4.832  16.195  0.3646 -0.0154 -0.6228
 1156TIP3    H124959   5.031   4.883  16.276  3.3983 -0.7798 -0.2518
 1156TIP3    H224960   4.962   4.763  16.215 -0.6999  1.1378  0.2377
 1157TIP3   OH224961   6.079   5.364   0.612  0.4214 -0.7024 -0.1936
 1157TIP3    H124962   6.029   5.295   0.657 -0.3093 -0.5375 -0.7417
 1157TIP3    H224963   6.059   5.351   0.519 -2.7599  2.4714 -0.1670
 1158TIP3   OH224964   3.296   1.586   4.567  0.0139 -0.2286 -0.1177
 1158TIP3    H124965   3.255   1.662   4.608 -1.5336 -0.4580 -1.1546
 1158TIP3    H224966   3.364   1.559   4.629 -1.0877  0.4758  1.4542
 1159TIP3   OH224967   3.551   4.481  15.346 -0.0364 -0.2164  0.2598
 1159TIP3    H124968   3.466   4.461  15.307 -0.8157  0.7716  1.3852
 1159TIP3    H224969   3.531   4.545  15.414  1.4818 -0.7576  1.2486
 1160TIP3   OH224970   5.827   4.272   5.724  0.2826  0.1622 -0.2722
 1160TIP3    H124971   5.793   4.186   5.699 -0.2657 -0.2207  1.5980
 1160TIP3    H224972   5.774   4.297   5.800 -0.8708  3.0469 -1.8796
 1161TIP3   OH224973   4.335   0.140  13.084 -0.0641 -0.0470 -0.7741
 1161TIP3    H124974   4.279   0.102  13.016  1.4886  0.3999 -2.3808
 1161TIP3    H224975   4.276   0.194  13.136 -1.6211 -1.7315 -0.6789
 1162TIP3   OH224976   3.437   6.464  12.387  0.8547 -0.2783 -0.8211
 1162TIP3    H124977   3.367   6.516  12.426 -0.1469 -0.6589 -2.0599
 1162TIP3    H224978   3.500   6.452  12.458 -0.3487  0.0422  0.3373
 1163TIP3   OH224979   2.675   2.846  14.097 -0.1873 -0.1065 -1.0669
 1163TIP3    H124980   2.682   2.937  14.067  0.6501  0.4648  0.7203
 1163TIP3    H224981   2.646   2.798  14.020  1.2992  1.3400 -2.6406
 1164TIP3   OH224982   3.587   3.296  13.885 -0.0552 -0.1973 -0.1832
 1164TIP3    H124983   3.588   3.362  13.815 -1.2333  1.1633  1.0254
 1164TIP3    H224984   3.496   3.293  13.913  0.0777 -1.9846  0.1695
 1165TIP3   OH224985   1.866   4.299   1.495 -0.2393 -0.5701  0.6447
 1165TIP3    H124986   1.808   4.223   1.494 -0.1470 -0.6451  0.9753
 1165TIP3    H224987   1.840   4.349   1.417  1.0250 -1.9241 -0.7078
 1166TIP3   OH224988   1.029   0.473   0.380 -0.1970 -0.0593 -0.9162
 1166TIP3    H124989   1.120   0.501   0.365  0.2168  0.5725  2.1953
 1166TIP3    H224990   1.036   0.387   0.419 -0.8915  0.2943  0.0135
 1167TIP3   OH224991   5.564   5.406  16.289  0.1754  0.2247 -0.1108
 1167TIP3    H124992   5.558   5.484  16.345  1.0974  0.9081 -0.9310
 1167TIP3    H224993   5.629   5.351  16.332  1.6025  1.1809 -0.9720
 1168TIP3   OH224994   5.603   4.473   0.561  0.5251  0.6360 -0.2100
 1168TIP3    H124995   5.646   4.392   0.535 -1.6263 -0.3401 -0.9251
 1168TIP3    H224996   5.545   4.447   0.633  2.0641  2.1831  1.7156
 1169TIP3   OH224997   5.871   2.363  11.228  0.2039  0.3327  0.3445
 1169TIP3    H124998   5.814   2.421  11.279 -1.8992  1.3793 -2.8901
 1169TIP3    H224999   5.946   2.418  11.204 -0.3897  0.8489 -0.3498
 1170TIP3   OH225000   5.922   1.644  11.609 -0.0958 -0.4187 -0.3101
 1170TIP3    H125001   6.010   1.650  11.645  0.5186 -1.5220 -1.5455
 1170TIP3    H225002   5.910   1.726  11.560 -0.2485  0.2703  0.8360
 1171TIP3   OH225003   2.066   0.545   2.037 -0.0667  0.0205  0.4666
 1171TIP3    H125004   2.045   0.510   1.950 -0.3428  1.5485 -0.1188
 1171TIP3    H225005   2.010   0.622   2.046  0.9580  0.6856  1.4097
 1172TIP3   OH225006   5.027   6.200   2.956 -0.9786  0.3844  0.0727
 1172TIP3    H125007   4.955   6.202   3.019 -0.8520  2.8505  0.2379
 1172TIP3    H225008   5.089   6.266   2.988  0.0349  0.2876 -1.5602
 1173TIP3   OH225009   5.299   0.842   3.630  0.6142  0.0956 -0.4252
 1173TIP3    H125010   5.230   0.783   3.658  0.7945  0.2845  0.4333
 1173TIP3    H225011   5.374   0.820   3.685  1.1642  0.0769 -1.1592
 1174TIP3   OH225012   6.267   2.022  15.976  0.1616 -0.0590 -0.1930
 1174TIP3    H125013   6.231   2.075  16.048  0.6100 -1.4481  1.1136
 1174TIP3    H225014   6.338   2.076  15.940 -0.1406  0.7116  0.3281
 1175TIP3   OH225015   0.448   2.942  12.656  0.1484 -0.3555 -0.3920
 1175TIP3    H125016   0.396   2.918  12.579  0.8033 -0.6948 -0.7434
 1175TIP3    H225017   0.385   2.947  12.727 -0.5808  0.6091 -1.0666
 1176TIP3   OH225018   2.300   4.293   2.748  0.0419  0.5800  0.0195
 1176TIP3    H125019   2.321   4.315   2.838  1.7678 -1.3693  0.1590
 1176TIP3    H225020   2.290   4.198   2.747 -0.2677  0.5829 -1.7861
 1177TIP3   OH225021   2.302   5.163  16.005  0.2129  0.1413  0.3327
 1177TIP3    H125022   2.348   5.085  16.036 -1.0292 -0.8057 -0.1226
 1177TIP3    H225023   2.359   5.200  15.938 -0.2074 -1.6997 -1.1050
 1178TIP3   OH225024   4.703   3.859   1.904 -0.1257 -0.5208 -0.0239
 1178TIP3    H125025   4.700   3.952   1.929 -0.8321 -0.8221  1.0694
 1178TIP3    H225026   4.706   3.812   1.987  0.7720 -1.4742 -0.5751
 1179TIP3   OH225027   0.961   3.037   2.985 -0.3719 -0.0545  0.4071
 1179TIP3    H125028   0.923   3.116   3.026  0.2843  0.4306  0.0965
 1179TIP3    H225029   0.965   3.058   2.892 -0.1831 -0.4529  0.3230
 1180TIP3   OH225030   6.133   3.050  12.873 -0.6573 -0.3948  0.3078
 1180TIP3    H125031   6.192   3.016  12.807  1.3985 -0.1013  1.8875
 1180TIP3    H225032   6.079   2.975  12.899  0.7071 -1.3184  0.5435
 1181TIP3   OH225033   2.846   4.488   1.350 -0.0840  0.6440  0.1659
 1181TIP3    H125034   2.923   4.543   1.332  0.5356  0.1869  1.3638
 1181TIP3    H225035   2.785   4.510   1.279  1.0925  1.0962 -0.7536
 1182TIP3   OH225036   1.811   5.035   4.010 -0.1658 -0.2064  0.1915
 1182TIP3    H125037   1.876   4.976   4.048 -1.0870 -1.1057  0.3945
 1182TIP3    H225038   1.745   5.046   4.078 -0.9867 -0.4947 -0.5454
 1183TIP3   OH225039   0.623   6.579   4.199  0.8172  0.1359  0.1982
 1183TIP3    H125040   0.538   6.554   4.164  0.2227  0.3953  1.4185
 1183TIP3    H225041   0.619   6.556   4.291  2.0971  0.1078  0.2591
 1184TIP3   OH225042   5.147   3.707   0.647  0.0174  0.1061 -0.4381
 1184TIP3    H125043   5.234   3.746   0.632 -0.1364 -0.6031 -3.8215
 1184TIP3    H225044   5.086   3.780   0.637  0.0815  0.1479 -0.5255
 1185TIP3   OH225045   0.873   5.320   0.323 -0.0149  0.4090 -0.2357
 1185TIP3    H125046   0.781   5.337   0.343 -0.2398  0.1211 -0.9665
 1185TIP3    H225047   0.870   5.257   0.251  0.7590 -0.6050  0.5767
 1186TIP3   OH225048   2.127   0.516   5.489 -0.2463  0.2121  0.0556
 1186TIP3    H125049   2.164   0.604   5.502  0.5599 -0.1871  0.5164
 1186TIP3    H225050   2.080   0.523   5.406  0.6836  0.8123 -0.4456
 1187TIP3   OH225051   1.269   5.297  13.553 -0.1344  0.3831  0.0415
 1187TIP3    H125052   1.309   5.281  13.639  0.4620  1.3864 -0.0318
 1187TIP3    H225053   1.244   5.389  13.555 -0.9979  0.1743 -0.5196
 1188TIP3   OH225054   3.241   0.833  12.930  0.2617 -0.1223  0.5105
 1188TIP3    H125055   3.321   0.873  12.896 -0.3370  0.4113 -0.2872
 1188TIP3    H225056   3.173   0.897  12.913 -0.3206 -0.5113  1.3264
 1189TIP3   OH225057   1.956   2.855   2.502 -0.5620  0.2838  0.3892
 1189TIP3    H125058   1.907   2.785   2.458 -0.8751  1.1051 -0.6043
 1189TIP3    H225059   1.888   2.909   2.543 -0.2792 -0.4225  1.8585
 1190TIP3   OH225060   6.328   3.491   1.772  0.7483 -0.2662  0.2058
 1190TIP3    H125061   6.302   3.462   1.860  0.0788  0.9539  0.4365
 1190TIP3    H225062   6.373   3.574   1.787 -0.9383  0.8638 -0.7176
 1191TIP3   OH225063   0.747   2.090  13.328  0.6310  0.4959 -0.4447
 1191TIP3    H125064   0.652   2.096  13.317  0.6260 -0.5444 -1.1234
 1191TIP3    H225065   0.780   2.058  13.244  1.4628 -0.1240  0.0873
 1192TIP3   OH225066   5.151   6.041   0.787  0.1598  0.0118 -0.1160
 1192TIP3    H125067   5.151   5.946   0.799  0.1718  0.0080 -0.1459
 1192TIP3    H225068   5.106   6.055   0.704 -0.4985  0.0774  0.2444
 1193TIP3   OH225069   1.521   4.791   0.846 -0.7701 -0.1070  0.0325
 1193TIP3    H125070   1.439   4.828   0.813 -1.2646 -0.9092  0.3397
 1193TIP3    H225071   1.564   4.755   0.768 -0.6172  0.4699 -0.1562
 1194TIP3   OH225072   0.690   3.200   0.768  0.1087  0.7557 -0.0688
 1194TIP3    H125073   0.634   3.276   0.754  1.2256  1.4027 -1.2354
 1194TIP3    H225074   0.702   3.162   0.681  0.3990 -0.1572  0.3515
 1195TIP3   OH225075   5.725   3.070   2.402  0.4259 -0.2372  0.4142
 1195TIP3    H125076   5.795   3.022   2.447 -0.8583 -1.6296  1.0151
 1195TIP3    H225077   5.700   3.013   2.329 -0.0719  0.2488  0.2016
 1196TIP3   OH225078   0.688   1.782  12.967  0.6849 -0.0175  0.0002
 1196TIP3    H125079   0.690   1.723  13.041  0.3615 -0.0174  0.0075
 1196TIP3    H225080   0.727   1.864  13.000  0.0471  0.1596  0.3213
 1197TIP3   OH225081   5.438   6.217   2.736 -1.0509 -0.1738  0.0802
 1197TIP3    H125082   5.360   6.258   2.699 -0.9606  0.1723  0.2731
 1197TIP3    H225083   5.482   6.176   2.661  0.0746  2.0089 -0.5352
 1198TIP3   OH225084   2.669   0.957   4.728  0.5362  0.3484 -0.5970
 1198TIP3    H125085   2.735   0.928   4.791 -0.2556  0.0039  0.1051
 1198TIP3    H225086   2.691   0.912   4.647  1.0520  0.0920 -0.3208
 1199TIP3   OH225087   4.754   2.740  17.003  0.4141  0.1258 -0.2088
 1199TIP3    H125088   4.786   2.652  17.024  1.4736  0.6638  0.4796
 1199TIP3    H225089   4.667   2.743  17.044 -0.6394 -1.3546 -2.1372
 1200TIP3   OH225090   6.076   1.290   3.464 -0.4999 -0.1645  0.0478
 1200TIP3    H125091   6.066   1.265   3.555 -0.3015  0.7358  0.3276
 1200TIP3    H225092   6.059   1.210   3.415  1.2226 -1.1269  0.9479
 1201TIP3   OH225093   2.889   0.786  13.875  0.4572 -0.3126  0.1503
 1201TIP3    H125094   2.816   0.799  13.814 -0.3212 -0.0209  1.1170
 1201TIP3    H225095   2.906   0.692  13.874  0.7147 -0.2603 -0.8041
 1202TIP3   OH225096   2.113   0.883   1.249 -0.1971 -0.4887 -0.5874
 1202TIP3    H125097   2.089   0.943   1.320 -0.5288 -0.1368 -0.9898
 1202TIP3    H225098   2.207   0.868   1.260 -0.4841 -1.4939  0.7250
 1203TIP3   OH225099   0.908   0.382  13.866  0.0613  0.3271  0.6492
 1203TIP3    H125100   0.984   0.335  13.901  0.9879  1.2758 -0.0031
 1203TIP3    H225101   0.910   0.467  13.911 -0.7993  0.2455  0.8489
 1204TIP3   OH225102   3.432   1.117   2.238 -0.4207  0.5144 -0.0245
 1204TIP3    H125103   3.422   1.024   2.218  2.0467  0.4274 -1.2453
 1204TIP3    H225104   3.360   1.159   2.192  0.0910 -0.5555 -1.8938
 1205TIP3   OH225105   0.342   1.970  10.896  0.1516 -0.1235 -1.1343
 1205TIP3    H125106   0.259   1.933  10.868 -0.3492  1.1848 -1.4708
 1205TIP3    H225107   0.320   2.020  10.975  0.8619 -0.7733 -0.5101
 1206TIP3   OH225108   0.392   1.532  14.772  0.0763  0.6616  0.3498
 1206TIP3    H125109   0.475   1.545  14.817  0.9174  0.9396 -1.2160
 1206TIP3    H225110   0.326   1.535  14.842  1.4040 -0.1180  1.7004
 1207TIP3   OH225111   0.784   1.185  11.869 -0.2701  0.0243  0.0073
 1207TIP3    H125112   0.741   1.171  11.784  0.5251 -1.5329 -0.1753
 1207TIP3    H225113   0.714   1.173  11.933 -0.6933  0.3495 -0.3834
 1208TIP3   OH225114   3.990   0.027  11.987  0.3727 -1.1671 -0.0857
 1208TIP3    H125115   3.945   0.019  11.903  0.8639 -0.0962 -0.4698
 1208TIP3    H225116   4.051   0.099  11.974 -1.2231  0.6939  1.9067
 1209TIP3   OH225117   0.744   2.308   4.329  0.0264 -0.0647  0.0295
 1209TIP3    H125118   0.720   2.281   4.418 -0.1385  1.3553  0.4497
 1209TIP3    H225119   0.706   2.242   4.272 -1.2392 -0.1496  0.9343
 1210TIP3   OH225120   3.167   5.841   0.460 -0.4452 -0.1984  0.0898
 1210TIP3    H125121   3.247   5.807   0.500 -0.0520  0.9875  0.3517
 1210TIP3    H225122   3.197   5.882   0.378 -0.0939  3.5610  1.8659
 1211TIP3   OH225123   0.268   0.941  13.355  0.0751  0.0371  0.0301
 1211TIP3    H125124   0.196   0.885  13.328 -1.1939  1.3092  0.6142
 1211TIP3    H225125   0.235   0.986  13.433  2.2478 -0.8030  1.5030
 1212TIP3   OH225126   1.123   6.167   3.751  0.8023  0.3765  0.0929
 1212TIP3    H125127   1.206   6.200   3.717  1.0150  0.0276  0.2674
 1212TIP3    H225128   1.090   6.237   3.807  0.2689  1.1178 -1.0951
 1213TIP3   OH225129   5.612   5.714  10.948  0.2608 -0.0241  0.5023
 1213TIP3    H125130   5.677   5.752  10.889  1.2980 -0.2550  1.4487
 1213TIP3    H225131   5.580   5.636  10.902 -1.5355  1.6172 -1.2460
 1214TIP3   OH225132   1.843   2.778   2.867  0.1983  0.6496  0.2895
 1214TIP3    H125133   1.935   2.767   2.843  0.5640 -0.6236  2.0356
 1214TIP3    H225134   1.846   2.825   2.951 -0.6072 -1.0187  1.2978
 1215TIP3   OH225135   0.044   3.394   5.175 -0.7067 -0.4143 -0.3761
 1215TIP3    H125136  -0.040   3.434   5.155 -0.0873 -0.0155 -2.4455
 1215TIP3    H225137   0.021   3.307   5.209 -1.9606 -0.4246 -1.1719
 1216TIP3   OH225138   3.257   1.558  10.764 -0.3623  0.2784 -0.4177
 1216TIP3    H125139   3.178   1.580  10.815  0.6593  0.8500  1.0018
 1216TIP3    H225140   3.253   1.464  10.752 -0.5162  0.0808  0.9992
 1217TIP3   OH225141   5.831   2.973   5.031  0.0187 -0.2236  0.6144
 1217TIP3    H125142   5.834   3.020   5.115  0.9921 -0.4842  0.7311
 1217TIP3    H225143   5.919   2.940   5.019  0.0575  0.3506 -0.8374
 1218TIP3   OH225144   0.072   3.098  15.950 -0.0901 -0.4304  0.4472
 1218TIP3    H125145  -0.008   3.084  15.899 -0.1490  1.3159 -0.0184
 1218TIP3    H225146   0.056   3.056  16.034 -1.9930  0.9080  0.7956
 1219TIP3   OH225147   0.415   4.660   5.892 -0.2757 -0.0004 -0.3910
 1219TIP3    H125148   0.434   4.575   5.853  1.6565  0.5731 -0.8248
 1219TIP3    H225149   0.477   4.720   5.850 -2.9163  2.0918 -1.6501
 1220TIP3   OH225150   1.418   6.568   0.010 -0.1795 -0.6139 -0.8942
 1220TIP3    H125151   1.397   6.610  -0.073 -0.7241  0.4274 -0.2609
 1220TIP3    H225152   1.336   6.572   0.060  0.8281  1.4301  0.7692
 1221TIP3   OH225153   6.602   5.640   3.269 -0.3393 -0.1897 -0.0944
 1221TIP3    H125154   6.519   5.593   3.276  0.1817 -1.5574 -2.1701
 1221TIP3    H225155   6.663   5.589   3.323 -0.8149  0.8698  1.5086
 1222TIP3   OH225156   5.926   0.001  15.840  0.1795  0.2625 -0.3158
 1222TIP3    H125157   5.866   0.074  15.827  0.0571  0.2474  0.1354
 1222TIP3    H225158   5.889  -0.048  15.914  1.8652  1.4647  1.4046
 1223TIP3   OH225159   0.201   3.914   5.213 -0.2114 -0.1444  0.2475
 1223TIP3    H125160   0.187   3.852   5.285  0.2266 -1.7888 -1.0287
 1223TIP3    H225161   0.119   3.963   5.207 -0.9482 -1.3081  0.6137
 1224TIP3   OH225162   0.782   0.384   6.525 -0.3964 -0.0207  0.2487
 1224TIP3    H125163   0.738   0.409   6.607 -1.6792  2.6070 -1.1025
 1224TIP3    H225164   0.845   0.317   6.551 -0.5436  0.9005  3.4485
 1225TIP3   OH225165   3.020   0.002  13.815 -0.1935 -0.3122  0.1923
 1225TIP3    H125166   3.070  -0.043  13.746 -0.9589 -0.3470 -0.3553
 1225TIP3    H225167   3.073  -0.008  13.894  0.1161 -1.3379 -0.1306
 1226TIP3   OH225168   3.268   3.895   4.653  0.0268  0.4731 -0.2812
 1226TIP3    H125169   3.265   3.939   4.568 -0.2798  4.1403  1.4373
 1226TIP3    H225170   3.344   3.934   4.697 -0.7664 -0.1420  1.7160
 1227TIP3   OH225171   3.754   1.096  13.396 -0.0618  0.6225  0.8465
 1227TIP3    H125172   3.777   1.184  13.426  0.3194 -0.0528  2.6340
 1227TIP3    H225173   3.779   1.038  13.468  1.6543 -1.2113 -1.0699
 1228TIP3   OH225174   5.351   6.112  11.389 -0.0748 -0.3331 -0.2149
 1228TIP3    H125175   5.320   6.193  11.349 -0.2243 -0.0773  0.4051
 1228TIP3    H225176   5.413   6.141  11.457  1.2440 -0.8099 -1.1700
 1229TIP3   OH225177   0.125   5.096   1.316 -0.4311 -0.1772  0.2835
 1229TIP3    H125178   0.192   5.095   1.385 -0.6120  0.1914  0.4648
 1229TIP3    H225179   0.172   5.068   1.237  0.3979  1.8851 -0.0033
 1230TIP3   OH225180   1.112   1.455  15.816  0.4167  0.4825 -0.0320
 1230TIP3    H125181   1.152   1.467  15.902  1.4020 -1.1379 -0.2296
 1230TIP3    H225182   1.124   1.362  15.796 -1.7264  0.3534 -0.9871
 1231TIP3   OH225183   4.060   4.416   0.292 -0.1648 -0.3752 -0.3601
 1231TIP3    H125184   4.053   4.347   0.227 -1.6570  0.2709 -0.9438
 1231TIP3    H225185   4.154   4.426   0.307  0.2555 -0.3238 -2.6529
 1232TIP3   OH225186   5.417   4.277   5.591  0.5420 -0.0211 -0.4585
 1232TIP3    H125187   5.356   4.306   5.659 -0.0357  1.1267 -1.4226
 1232TIP3    H225188   5.471   4.354   5.573  0.3416 -0.1391 -1.6502
 1233TIP3   OH225189   1.704   1.087   4.665  0.3404  0.0262 -0.0819
 1233TIP3    H125190   1.672   1.173   4.692  1.3779  0.3222  0.2140
 1233TIP3    H225191   1.746   1.102   4.580  0.3426 -0.2291 -0.1286
 1234TIP3   OH225192   3.795   4.531   5.536 -0.4549  0.0888  0.1555
 1234TIP3    H125193   3.887   4.556   5.536 -0.8319  1.5577  0.2489
 1234TIP3    H225194   3.749   4.608   5.570 -1.7655 -0.4227 -0.3833
 1235TIP3   OH225195   1.073   5.440  14.276  0.2317 -0.6116 -0.5437
 1235TIP3    H125196   1.039   5.373  14.336  2.4383 -2.7893 -1.5418
 1235TIP3    H225197   1.157   5.464  14.314  1.1170 -1.1515 -2.0950
 1236TIP3   OH225198   0.803   4.429  15.135 -0.4637  0.1968 -1.6446
 1236TIP3    H125199   0.779   4.337  15.124  0.8326 -0.2899 -0.5803
 1236TIP3    H225200   0.721   4.477  15.120 -1.3168 -1.1665 -1.4903
 1237TIP3   OH225201   4.673   2.924  14.497  0.3368 -0.2919 -0.1987
 1237TIP3    H125202   4.670   3.014  14.529 -1.0221 -0.6052  0.6466
 1237TIP3    H225203   4.766   2.907  14.481  0.5706  1.3845 -0.7918
 1238TIP3   OH225204   1.823   2.502  10.909  0.1242 -0.0157  0.9697
 1238TIP3    H125205   1.854   2.531  10.995  0.0723 -0.6165  1.1941
 1238TIP3    H225206   1.894   2.448  10.875  0.8252  1.4768 -0.0545
 1239TIP3   OH225207   1.792   5.063   0.832  0.5021 -0.0231  0.0969
 1239TIP3    H125208   1.786   5.022   0.919 -0.4621 -1.1623 -0.4788
 1239TIP3    H225209   1.780   5.157   0.849 -0.9711 -0.3579  1.0789
 1240TIP3   OH225210   3.951   3.413   5.842  0.2581  0.4697 -0.0930
 1240TIP3    H125211   3.878   3.471   5.868 -0.4338 -0.1343 -0.6578
 1240TIP3    H225212   3.914   3.325   5.846  0.7735  0.2032 -1.0028
 1241TIP3   OH225213   1.180   5.249  13.047  0.7082 -0.4569 -0.6534
 1241TIP3    H125214   1.257   5.305  13.034 -0.9204  2.1817  0.3504
 1241TIP3    H225215   1.126   5.262  12.970 -0.0766  0.0714 -0.0361
 1242TIP3   OH225216   1.495   2.370  10.847 -0.0022  0.0128  0.2385
 1242TIP3    H125217   1.591   2.367  10.849  0.0246  0.7997  0.4103
 1242TIP3    H225218   1.472   2.325  10.766  0.5666  0.7493 -0.3516
 1243TIP3   OH225219   1.646   3.599   5.274 -0.6010  0.4204 -0.0134
 1243TIP3    H125220   1.569   3.575   5.224 -1.4763  1.4314  0.8015
 1243TIP3    H225221   1.624   3.682   5.315  0.1265 -0.2619  1.8983
 1244TIP3   OH225222   3.068   3.449  12.289 -0.5785  0.1231  0.1412
 1244TIP3    H125223   3.124   3.523  12.315 -1.8234  1.4099 -0.6671
 1244TIP3    H225224   2.988   3.461  12.340 -2.2917  1.5877 -2.6035
 1245TIP3   OH225225   4.330   3.574  12.166 -0.6583 -0.5788  0.4702
 1245TIP3    H125226   4.341   3.632  12.242 -0.2081  0.5078 -0.3864
 1245TIP3    H225227   4.405   3.514  12.171 -1.6213 -1.7442  1.8737
 1246TIP3   OH225228   3.914   2.483  11.339 -0.3214  0.7813  0.1453
 1246TIP3    H125229   3.899   2.393  11.369 -0.1048  0.8485  0.4600
 1246TIP3    H225230   3.828   2.511  11.306 -0.2254  0.2254 -0.6017
 1247TIP3   OH225231   5.419   5.645  11.918  0.2581 -0.2699 -0.9572
 1247TIP3    H125232   5.466   5.573  11.960 -0.3850 -0.9370 -1.3728
 1247TIP3    H225233   5.474   5.722  11.935  1.3343 -0.9725 -1.1509
 1248TIP3   OH225234   1.685   5.710  16.986  0.2322  0.1892  0.0322
 1248TIP3    H125235   1.745   5.672  17.050 -0.3675  0.2140  0.6109
 1248TIP3    H225236   1.739   5.774  16.938  1.1828 -1.1621 -0.7684
 1249TIP3   OH225237   5.112   2.197   5.463  0.4410  0.1954  0.3275
 1249TIP3    H125238   5.134   2.259   5.533  0.7869 -1.3718  1.6684
 1249TIP3    H225239   5.194   2.155   5.441  0.3916  0.9050 -1.3086
 1250TIP3   OH225240   5.755   4.422   5.410 -0.2279 -0.3997  0.6990
 1250TIP3    H125241   5.816   4.494   5.394 -1.8829  1.1185  0.7579
 1250TIP3    H225242   5.728   4.433   5.502  0.3905 -1.8627  1.0858
 1251TIP3   OH225243   1.990   4.301   3.439  0.0419 -0.1822 -0.2246
 1251TIP3    H125244   2.052   4.374   3.446  0.4288 -0.2419 -2.2642
 1251TIP3    H225245   1.966   4.281   3.529  0.2387  2.2012  0.4328
 1252TIP3   OH225246   1.180   5.292  11.096  0.1227 -0.0547  0.5320
 1252TIP3    H125247   1.178   5.197  11.085  1.7921 -0.2921  1.8822
 1252TIP3    H225248   1.134   5.307  11.179 -1.1353  0.4694 -0.2227
 1253TIP3   OH225249   2.216   0.441   5.142  0.1248  0.0831 -0.5647
 1253TIP3    H125250   2.295   0.396   5.171 -0.7117 -1.1732 -0.1447
 1253TIP3    H225251   2.220   0.438   5.046  1.1498  1.0923 -0.5742
 1254TIP3   OH225252   5.366   6.609   4.141  0.0943  0.3561  0.0284
 1254TIP3    H125253   5.348   6.670   4.212 -0.3604  0.5949 -0.2894
 1254TIP3    H225254   5.409   6.535   4.183 -2.0262 -0.4605  0.9345
 1255TIP3   OH225255   0.715   6.146  12.342  0.0091 -0.1354 -0.2426
 1255TIP3    H125256   0.693   6.198  12.419  1.2925 -0.0558  0.0755
 1255TIP3    H225257   0.696   6.056  12.368  2.8244 -0.4419  1.1361
 1256TIP3   OH225258   2.584   4.236  13.448 -0.1046 -0.3353  0.3052
 1256TIP3    H125259   2.674   4.238  13.417 -0.3333 -0.2032 -0.3702
 1256TIP3    H225260   2.588   4.191  13.532  0.4944 -0.9747 -0.0570
 1257TIP3   OH225261   0.745   4.072  15.525 -0.3610 -0.4969  0.0642
 1257TIP3    H125262   0.664   4.020  15.525  0.0745 -1.2075  0.9049
 1257TIP3    H225263   0.802   4.026  15.586 -0.3791  1.6124  1.7815
 1258TIP3   OH225264   3.427   1.512  11.194  0.3459  0.3459 -0.3971
 1258TIP3    H125265   3.465   1.519  11.106  0.7013 -0.8391 -0.3471
 1258TIP3    H225266   3.348   1.566  11.189  0.3903  0.3424 -1.4325
 1259TIP3   OH225267   3.610   0.329  14.179  0.0279  0.2519 -0.3784
 1259TIP3    H125268   3.670   0.296  14.112 -0.9446 -1.1946 -0.5871
 1259TIP3    H225269   3.667   0.358  14.250  1.0516  1.0386 -1.4727
 1260TIP3   OH225270   0.348   1.498  10.949 -0.2394 -0.0820 -0.1146
 1260TIP3    H125271   0.429   1.462  10.914  1.1724  2.3623  0.3870
 1260TIP3    H225272   0.313   1.552  10.878 -1.1500 -0.6440 -0.1180
 1261TIP3   OH225273   5.233   4.967  13.438 -0.1151  0.3620  0.0171
 1261TIP3    H125274   5.326   4.988  13.445  0.0472 -0.3454  0.0371
 1261TIP3    H225275   5.199   5.031  13.375 -0.0911  2.0522  1.6409
 1262TIP3   OH225276   5.164   0.496  12.441 -0.1908 -0.1081 -0.2116
 1262TIP3    H125277   5.179   0.421  12.384 -0.0030  0.3062 -0.7094
 1262TIP3    H225278   5.250   0.537  12.451  0.0289 -0.8962  1.3944
 1263TIP3   OH225279   5.946   5.358  14.740  0.3181  0.1913 -0.3268
 1263TIP3    H125280   6.012   5.311  14.688 -1.8057 -2.3400 -0.9187
 1263TIP3    H225281   5.983   5.361  14.829  1.8471  0.1552 -0.9386
 1264TIP3   OH225282   6.488   5.835   3.809 -0.1259 -0.0472  0.2151
 1264TIP3    H125283   6.442   5.909   3.770  0.6435  0.3255 -0.0118
 1264TIP3    H225284   6.570   5.872   3.842 -0.1706 -0.6164  0.9955
 1265TIP3   OH225285   0.430   4.480  12.614  0.1839  0.0243 -0.2662
 1265TIP3    H125286   0.400   4.526  12.692  1.9376 -0.6223  0.8527
 1265TIP3    H225287   0.363   4.413  12.598  0.2088 -0.3813  1.2055
 1266TIP3   OH225288   4.033   2.021  13.784 -0.2031 -0.7832 -0.0677
 1266TIP3    H125289   3.997   2.101  13.746 -1.1786 -0.7073  0.9522
 1266TIP3    H225290   4.083   2.051  13.860 -0.3546 -1.1166  0.1668
 1267TIP3   OH225291   4.627   2.657  11.013 -0.3444  0.3966 -0.4525
 1267TIP3    H125292   4.620   2.752  11.029 -2.8110 -0.0064  1.4860
 1267TIP3    H225293   4.648   2.620  11.099 -0.2046 -0.8906 -1.0230
 1268TIP3   OH225294   6.246   2.356  13.452  0.5792 -0.0829 -0.3365
 1268TIP3    H125295   6.319   2.299  13.429  1.0385 -0.6367  2.2304
 1268TIP3    H225296   6.171   2.319  13.404  1.2602 -1.6639 -0.2521
 1269TIP3   OH225297   0.717   0.903   3.791  0.2067 -0.0220 -0.1371
 1269TIP3    H125298   0.782   0.859   3.736 -1.1184 -1.7295 -0.4578
 1269TIP3    H225299   0.662   0.951   3.729 -1.2230 -1.8614 -0.3944
 1270TIP3   OH225300   6.137   4.262  14.584 -0.3568 -0.3094 -0.3139
 1270TIP3    H125301   6.055   4.261  14.633  0.2206  0.0724  0.6826
 1270TIP3    H225302   6.191   4.327  14.628 -0.7063  1.9660 -2.9542
 1271TIP3   OH225303   2.824   4.846  15.242 -0.0982  0.5172  0.7305
 1271TIP3    H125304   2.879   4.883  15.173  0.9016 -2.9870 -0.5782
 1271TIP3    H225305   2.745   4.899  15.241  1.3551  2.8258 -0.5534
 1272TIP3   OH225306   0.244   6.260   1.257  0.0373 -0.1036  0.0089
 1272TIP3    H125307   0.295   6.333   1.291 -0.6735 -0.1908  1.3323
 1272TIP3    H225308   0.271   6.252   1.165  2.4227 -0.1959  0.6477
 1273TIP3   OH225309   3.263   0.376   1.729 -0.1262  0.1733  0.1500
 1273TIP3    H125310   3.270   0.292   1.774 -1.2678  0.0442  0.1147
 1273TIP3    H225311   3.226   0.436   1.794 -1.2371  0.1282 -0.4219
 1274TIP3   OH225312   0.170   5.910   0.785 -0.2846 -0.0501 -0.2326
 1274TIP3    H125313   0.226   5.969   0.835 -0.0048 -0.5013 -0.0199
 1274TIP3    H225314   0.190   5.930   0.693 -1.1009  1.0752 -0.1995
 1275TIP3   OH225315   4.612   1.518  13.497 -0.3327  0.0445  0.2588
 1275TIP3    H125316   4.668   1.441  13.497  2.1893  1.7532  0.2759
 1275TIP3    H225317   4.651   1.576  13.562 -2.2224  1.3291  0.3496
 1276TIP3   OH225318   5.332   6.551  13.324 -0.3441  0.4855  0.2613
 1276TIP3    H125319   5.295   6.629  13.282 -1.5960  0.1307  0.6714
 1276TIP3    H225320   5.276   6.535  13.400 -0.1855 -0.8918  0.1180
 1277TIP3   OH225321   2.018   4.915  12.418 -0.2992 -0.0855  0.0815
 1277TIP3    H125322   2.096   4.899  12.365  1.1535 -0.8482  2.2977
 1277TIP3    H225323   2.037   4.996  12.466  0.2975 -1.5374  2.4723
 1278TIP3   OH225324   6.444   4.891   2.137  0.2905  0.0027 -0.0379
 1278TIP3    H125325   6.379   4.960   2.140  0.2499  0.0173 -0.9557
 1278TIP3    H225326   6.528   4.936   2.131  0.5224  0.0129  2.3086
 1279TIP3   OH225327   5.934   0.168   4.550  0.4873  1.4003  0.8878
 1279TIP3    H125328   5.880   0.095   4.580  0.6704  0.6160 -0.5607
 1279TIP3    H225329   5.901   0.187   4.462  2.1376  1.2934  0.1990
 1280TIP3   OH225330   0.551   0.211  16.780 -0.1593  0.7563  0.0673
 1280TIP3    H125331   0.576   0.267  16.854 -2.0904 -0.4300  1.7294
 1280TIP3    H225332   0.460   0.234  16.762  0.0328  0.4378 -1.4453
 1281TIP3   OH225333   1.450   0.803   5.609  0.6308  0.5128 -0.3728
 1281TIP3    H125334   1.525   0.746   5.629  0.9459  1.0294 -0.0427
 1281TIP3    H225335   1.484   0.892   5.622  0.1999  0.7834 -1.0603
 1282TIP3   OH225336   6.334   2.162  11.571 -0.0316  0.2341 -0.7273
 1282TIP3    H125337   6.267   2.095  11.584  1.0836 -0.7929 -0.0631
 1282TIP3    H225338   6.292   2.228  11.516 -0.5212 -2.0605 -3.3402
 1283TIP3   OH225339   5.521   4.530   5.566 -0.0010 -0.5019 -0.1969
 1283TIP3    H125340   5.548   4.544   5.657  0.8532  1.7982 -0.7603
 1283TIP3    H225341   5.432   4.565   5.562  0.7790  1.5572 -0.7215
 1284TIP3   OH225342   1.384   6.024  15.507  0.1824  0.2284  0.0676
 1284TIP3    H125343   1.372   5.934  15.537  2.8964 -0.2034  0.1544
 1284TIP3    H225344   1.438   6.016  15.429  2.7386  1.8013  1.5335
 1285TIP3   OH225345   6.588   4.969   0.317 -0.1778 -1.1183  0.5732
 1285TIP3    H125346   6.505   5.000   0.281  0.3569 -0.5386 -0.1912
 1285TIP3    H225347   6.655   5.006   0.259  0.5998 -1.8442  0.9789
 1286TIP3   OH225348   6.425   2.901   0.716  0.2022 -0.2008  0.1173
 1286TIP3    H125349   6.414   2.982   0.765  1.6854  1.5939 -2.3051
 1286TIP3    H225350   6.344   2.852   0.731 -1.3411  2.3205  0.5613
 1287TIP3   OH225351   5.900   1.984   4.648 -0.4839  0.1197 -0.6810
 1287TIP3    H125352   5.829   1.961   4.708  0.2422 -0.1583  0.0939
 1287TIP3    H225353   5.856   2.009   4.567 -1.5617  1.7269  0.3460
 1288TIP3   OH225354   2.655   4.803  13.714  0.0975  0.2530 -0.3610
 1288TIP3    H125355   2.705   4.763  13.643  0.6171  1.4570 -0.6877
 1288TIP3    H225356   2.621   4.884  13.677 -0.9854  0.1097  0.2764
 1289TIP3   OH225357   2.891   2.797  11.032  0.0648 -0.2306 -0.0488
 1289TIP3    H125358   2.876   2.719  10.978  1.6442 -0.2042 -0.5769
 1289TIP3    H225359   2.810   2.848  11.023 -0.1453 -0.7633 -1.4801
 1290TIP3   OH225360   3.753   4.097   1.824  0.1601 -0.2995 -0.5117
 1290TIP3    H125361   3.703   4.151   1.886  1.9176  0.8381 -0.0333
 1290TIP3    H225362   3.814   4.048   1.879  0.8265 -0.2869 -1.2298
 1291TIP3   OH225363   1.835   3.251  14.044  0.0403  0.0543 -0.6916
 1291TIP3    H125364   1.925   3.280  14.025  0.0979 -0.0674 -0.6035
 1291TIP3    H225365   1.845   3.184  14.111 -0.1685  0.5908 -0.1102
 1292TIP3   OH225366   3.192   0.647  13.871  0.3527  0.1580  0.2050
 1292TIP3    H125367   3.205   0.611  13.959 -1.3718  0.3173  0.5633
 1292TIP3    H225368   3.127   0.590  13.830  2.2341 -0.8166 -1.5788
 1293TIP3   OH225369   3.691   0.333  16.092  0.0059  0.0633 -0.6311
 1293TIP3    H125370   3.722   0.420  16.119 -1.3077  0.2906  0.2215
 1293TIP3    H225371   3.610   0.350  16.044  0.0556 -0.6618 -0.9882
 1294TIP3   OH225372   2.321   6.358   2.548 -0.2519  0.3009 -0.0534
 1294TIP3    H125373   2.309   6.268   2.518  0.0412 -0.2910  1.5136
 1294TIP3    H225374   2.232   6.393   2.554 -0.7433 -1.1330  2.8540
 1295TIP3   OH225375   1.140   6.666   3.988  0.3237  0.3987  0.2079
 1295TIP3    H125376   1.092   6.686   3.908  0.4118  2.2868  0.5999
 1295TIP3    H225377   1.076   6.681   4.058  0.2061 -1.3680  0.5364
 1296TIP3   OH225378   1.255   5.571  15.709 -0.1608 -0.1651  0.2663
 1296TIP3    H125379   1.228   5.597  15.797  2.5803 -0.6479  1.3495
 1296TIP3    H225380   1.251   5.475  15.709 -0.2037 -0.1671 -0.1499
 1297TIP3   OH225381   6.722   6.801   3.981 -0.2131  0.3326 -0.1587
 1297TIP3    H125382   6.809   6.764   3.993  0.2309  1.0230 -1.1361
 1297TIP3    H225383   6.723   6.881   4.034 -0.6459 -0.2313  0.7198
 1298TIP3   OH225384   0.531   5.790  13.312  0.4298 -0.0007  0.2089
 1298TIP3    H125385   0.528   5.878  13.349  0.4269 -0.2846  0.8865
 1298TIP3    H225386   0.593   5.742  13.366 -2.3785 -1.5308  2.3601
 1299TIP3   OH225387   4.347   2.816   2.509  0.6210 -0.3562 -0.1023
 1299TIP3    H125388   4.296   2.823   2.589  1.8784  1.4002  0.6176
 1299TIP3    H225389   4.425   2.869   2.526  0.6997  0.4887 -2.6634
 1300TIP3   OH225390   5.619   0.192  13.326  0.5234 -0.1393  0.0737
 1300TIP3    H125391   5.545   0.246  13.299 -1.4518 -1.9311  1.5770
 1300TIP3    H225392   5.696   0.246  13.309 -1.1838  2.2732 -0.4536
 1301TIP3   OH225393   3.120   1.051   5.290  0.3109  0.3745  0.5610
 1301TIP3    H125394   3.084   0.977   5.338 -0.3251 -0.2364 -0.8316
 1301TIP3    H225395   3.190   1.084   5.347  1.8005 -2.3536  0.4733
 1302TIP3   OH225396   2.354   5.951  15.768  0.2990 -0.0226  0.1452
 1302TIP3    H125397   2.289   5.984  15.830  3.0311  1.5649  2.3938
 1302TIP3    H225398   2.421   5.910  15.823  2.2150  0.2623 -1.8269
 1303TIP3   OH225399   0.456   1.074  14.367 -0.4385 -0.5196  0.0506
 1303TIP3    H125400   0.484   1.012  14.300  0.5956 -0.1767  0.1509
 1303TIP3    H225401   0.469   1.028  14.450  0.1895 -0.2311  0.1174
 1304TIP3   OH225402   5.430   5.718  16.561  0.2136 -1.0684  0.3973
 1304TIP3    H125403   5.510   5.725  16.508  0.7517 -0.2136  1.2992
 1304TIP3    H225404   5.363   5.688  16.498  0.8030  0.0284 -0.8049
 1305TIP3   OH225405   4.720   6.378   5.770  0.1790  0.0064  0.3282
 1305TIP3    H125406   4.736   6.316   5.842  0.2812  1.5427  1.6813
 1305TIP3    H225407   4.673   6.450   5.810  1.5772  1.6290 -0.8016
 1306TIP3   OH225408   0.240   3.455   0.542  0.2625  0.6766 -0.1267
 1306TIP3    H125409   0.249   3.470   0.448 -0.2154 -0.4159 -0.3587
 1306TIP3    H225410   0.182   3.379   0.549 -1.5106  2.0376  1.0811
 1307TIP3   OH225411   0.006   3.469   3.052  0.5986  0.5302  0.0153
 1307TIP3    H125412   0.013   3.414   3.130  1.3680  1.7999  0.8822
 1307TIP3    H225413   0.091   3.459   3.009  0.3939  0.3027 -0.3356
 1308TIP3   OH225414   2.744   1.736  14.771  0.4380 -0.3475 -0.0236
 1308TIP3    H125415   2.733   1.641  14.766 -0.1591 -0.4819  2.4000
 1308TIP3    H225416   2.822   1.754  14.719  0.6273 -2.1693 -0.4512
 1309TIP3   OH225417   6.127   5.336   2.072  0.7928  0.3612 -0.0160
 1309TIP3    H125418   6.127   5.403   2.003 -0.9806  0.3489 -0.0508
 1309TIP3    H225419   6.066   5.269   2.041  0.6742 -0.0876  1.1580
 1310TIP3   OH225420   5.157   0.937   3.135 -0.1260  0.2379 -0.8541
 1310TIP3    H125421   5.189   0.942   3.225 -0.1670  1.3191 -0.8827
 1310TIP3    H225422   5.134   0.845   3.122  2.3272 -0.4656 -0.6199
 1311TIP3   OH225423   0.212   2.645  12.888 -0.5655 -0.3309  0.6517
 1311TIP3    H125424   0.197   2.556  12.857  0.1732 -1.0136  2.1495
 1311TIP3    H225425   0.205   2.639  12.983  1.9161  0.6623  0.9849
 1312TIP3   OH225426   6.157   1.328   2.770 -0.3968 -0.3027  0.7388
 1312TIP3    H125427   6.206   1.261   2.818  0.2111 -1.9078 -1.8901
 1312TIP3    H225428   6.136   1.286   2.686  0.2361  2.8646 -1.1557
 1313TIP3   OH225429   5.876   6.638  13.349  0.4230  0.5045  0.0629
 1313TIP3    H125430   5.958   6.617  13.305 -0.5609 -1.5566 -0.8907
 1313TIP3    H225431   5.821   6.676  13.281  0.6568  2.3152  0.8014
 1314TIP3   OH225432   3.131   4.742   3.919 -0.3248  0.1879 -0.4208
 1314TIP3    H125433   3.039   4.718   3.906 -1.0233  2.8609 -1.2429
 1314TIP3    H225434   3.139   4.756   4.013 -0.4257 -1.1874 -0.1975
 1315TIP3   OH225435   4.190   2.885  14.024  0.5171 -0.4848  0.0531
 1315TIP3    H125436   4.218   2.919  14.109  0.5918 -2.5253  0.9004
 1315TIP3    H225437   4.268   2.891  13.968  0.9347 -0.6706  0.6160
 1316TIP3   OH225438   2.667   4.825   1.116 -0.2750  0.1411  0.8328
 1316TIP3    H125439   2.591   4.832   1.174 -0.5223  0.6593  0.4594
 1316TIP3    H225440   2.730   4.888   1.152  0.3666 -0.9684  1.7027
 1317TIP3   OH225441   4.045   0.308   4.043  0.0832 -0.3320  0.0680
 1317TIP3    H125442   3.992   0.232   4.063  0.5827 -0.6485  0.2058
 1317TIP3    H225443   4.129   0.272   4.013  0.9129  0.1567  1.6871
 1318TIP3   OH225444   1.954   3.994  13.651 -0.2619 -0.4938  0.2565
 1318TIP3    H125445   1.972   4.071  13.597 -0.7179 -0.2755  0.4157
 1318TIP3    H225446   2.036   3.980  13.699 -0.6334  0.7559  1.2971
 1319TIP3   OH225447   6.694   0.759  14.848 -0.4346 -0.9625  0.1320
 1319TIP3    H125448   6.716   0.782  14.938  1.3699  0.7473 -0.6698
 1319TIP3    H225449   6.733   0.673  14.834 -0.0909 -0.9084  0.7598
 1320TIP3   OH225450   4.249   1.123   5.403  0.2402  0.2070  0.1004
 1320TIP3    H125451   4.246   1.075   5.486 -0.3937 -0.8798 -0.5227
 1320TIP3    H225452   4.323   1.084   5.355 -0.2976 -0.1828 -0.4238
 1321TIP3   OH225453   2.211   6.220  14.749  0.9093 -0.6770 -0.1971
 1321TIP3    H125454   2.134   6.200  14.694  0.5921 -0.5041  0.1772
 1321TIP3    H225455   2.201   6.162  14.825  0.5746  0.1084  0.3650
 1322TIP3   OH225456   5.024   6.801  14.622 -0.1386  0.0266  0.0522
 1322TIP3    H125457   5.077   6.872  14.585  0.1784 -0.5646 -0.6655
 1322TIP3    H225458   5.052   6.796  14.713 -0.1226  0.7818  0.0997
 1323TIP3   OH225459   2.692   4.306   4.478  0.6209  0.1610 -0.2533
 1323TIP3    H125460   2.615   4.250   4.487  1.4881 -0.9771  0.3814
 1323TIP3    H225461   2.697   4.354   4.561  0.7030  0.1020 -0.2242
 1324TIP3   OH225462   6.244   1.213   1.338  0.0962  0.4952  0.3653
 1324TIP3    H125463   6.193   1.204   1.257 -0.2262  0.5643  0.5563
 1324TIP3    H225464   6.190   1.172   1.405 -0.0963  1.3027  0.7247
 1325TIP3   OH225465   0.811   6.374  11.977  0.2919 -0.4259  0.6176
 1325TIP3    H125466   0.838   6.288  12.009  0.4424 -0.8287 -0.5437
 1325TIP3    H225467   0.729   6.358  11.930  0.5918 -0.0297 -0.0562
 1326TIP3   OH225468   0.566   2.597   6.220 -0.4745  0.4066  0.3256
 1326TIP3    H125469   0.502   2.527   6.205 -1.7553  1.8485 -1.3993
 1326TIP3    H225470   0.616   2.568   6.296  0.4886 -3.3828 -1.4846
 1327TIP3   OH225471   0.107   4.926  10.931  0.3135 -0.5929 -0.1734
 1327TIP3    H125472   0.051   4.848  10.923  1.7974 -1.6112 -1.4967
 1327TIP3    H225473   0.062   4.983  10.992 -0.6821 -2.6484  1.0968
 1328TIP3   OH225474   0.861   4.107  16.063 -0.1926  0.0492  0.1709
 1328TIP3    H125475   0.918   4.127  16.137  0.2221  1.7366 -0.5574
 1328TIP3    H225476   0.914   4.125  15.986 -1.8715  2.3958 -0.5280
 1329TIP3   OH225477   2.249   2.269  15.413 -0.0156 -0.1437  0.3504
 1329TIP3    H125478   2.181   2.203  15.428 -0.8077  0.0093 -2.1994
 1329TIP3    H225479   2.208   2.334  15.356  2.0864  0.1920 -0.8797
 1330TIP3   OH225480   1.952   1.561  14.224 -0.2971 -0.2618  0.3106
 1330TIP3    H125481   2.017   1.545  14.292  0.7222 -0.7260 -0.7413
 1330TIP3    H225482   1.883   1.496  14.242 -0.0706 -0.3370  0.9327
 1331TIP3   OH225483   4.416   0.501   0.447  0.0471  0.6638  0.2928
 1331TIP3    H125484   4.340   0.444   0.460 -1.0220  1.7762 -0.9043
 1331TIP3    H225485   4.472   0.483   0.523 -0.0731 -2.2062 -0.1754
 1332TIP3   OH225486   5.008   2.044   1.410  0.0369 -0.2760 -0.1539
 1332TIP3    H125487   4.981   2.049   1.502 -0.3954 -1.1139 -0.2255
 1332TIP3    H225488   4.940   2.090   1.362 -0.5866 -1.2283 -0.2030
 1333TIP3   OH225489   4.188   4.082  16.977  0.0090 -0.2382  0.1768
 1333TIP3    H125490   4.231   4.061  17.060  0.6563  0.9802  0.1769
 1333TIP3    H225491   4.174   4.177  16.981  1.6839  0.1728 -1.8516
 1334TIP3   OH225492   3.799   4.685   4.797  0.3933 -0.2431 -0.3024
 1334TIP3    H125493   3.763   4.640   4.720 -1.1168  0.4973 -0.0558
 1334TIP3    H225494   3.726   4.690   4.858  1.5360 -0.7072  1.1697
 1335TIP3   OH225495   0.155   1.583   1.612  0.2577 -0.0826 -0.0986
 1335TIP3    H125496   0.160   1.564   1.706  1.0498 -0.3349 -0.1823
 1335TIP3    H225497   0.150   1.497   1.570 -0.8033  0.0420 -0.2688
 1336TIP3   OH225498   1.473   6.556   2.063 -0.1529  0.0096 -0.6026
 1336TIP3    H125499   1.447   6.513   2.144  0.2301  1.0242  0.0762
 1336TIP3    H225500   1.550   6.607   2.086  0.0614  0.1945 -1.6476
 1337TIP3   OH225501   6.059   6.825  13.626  0.6963  0.0428  0.1680
 1337TIP3    H125502   6.001   6.855  13.556  1.7165  1.1510 -0.2289
 1337TIP3    H225503   6.137   6.880  13.618  0.9144  0.0676  2.0574
 1338TIP3   OH225504   1.445   2.449   2.708  0.2921 -0.3427 -0.1398
 1338TIP3    H125505   1.458   2.502   2.629  0.3105 -1.3650 -0.8350
 1338TIP3    H225506   1.506   2.486   2.771 -2.4675  3.1309  0.8025
 1339TIP3   OH225507   2.217   3.344  16.561  0.2198  0.1058 -0.4746
 1339TIP3    H125508   2.147   3.407  16.576 -0.2207 -0.0876 -1.6155
 1339TIP3    H225509   2.181   3.261  16.592  0.6340  0.3137  0.6124
 1340TIP3   OH225510   3.188   2.311  13.472 -0.0014  0.2668 -0.1938
 1340TIP3    H125511   3.136   2.382  13.508  2.2632  1.3810  1.1305
 1340TIP3    H225512   3.215   2.342  13.386 -0.7851  0.0454 -0.5288
 1341TIP3   OH225513   4.510   5.331  13.395 -0.5976  0.2121 -0.1061
 1341TIP3    H125514   4.580   5.323  13.460 -0.9971 -0.0241  0.3012
 1341TIP3    H225515   4.497   5.426  13.386 -0.6805  0.2464  0.3234
 1342TIP3   OH225516   6.321   0.999  16.280 -0.0823 -0.2992  0.6282
 1342TIP3    H125517   6.363   0.913  16.274 -1.2613 -0.8836  0.3966
 1342TIP3    H225518   6.285   1.002  16.368 -0.8966 -0.4606  0.3052
 1343TIP3   OH225519   6.174   1.581   0.307 -0.2363  0.2235 -0.5417
 1343TIP3    H125520   6.175   1.659   0.362  0.4681  0.2097 -0.5176
 1343TIP3    H225521   6.190   1.613   0.218  0.6690  0.0601 -0.4478
 1344TIP3   OH225522   2.199   2.895   1.857 -0.2832 -0.3261  0.2002
 1344TIP3    H125523   2.251   2.816   1.875 -0.4930 -0.7782 -1.0788
 1344TIP3    H225524   2.245   2.938   1.786 -0.2713  0.6301  0.7762
 1345TIP3   OH225525   5.133   3.532  11.638 -0.1278  0.3693  0.0493
 1345TIP3    H125526   5.097   3.592  11.703  0.5528  0.3614  0.4374
 1345TIP3    H225527   5.228   3.538  11.648 -0.0214  0.1086 -0.7088
 1346TIP3   OH225528   0.691   5.859   3.465 -0.0371  0.1454 -0.6115
 1346TIP3    H125529   0.737   5.812   3.396 -0.1115 -0.2809 -0.3737
 1346TIP3    H225530   0.706   5.952   3.445  0.4739  0.0170 -0.8343
 1347TIP3   OH225531   2.154   3.851   3.310  0.0931  0.3366 -0.0890
 1347TIP3    H125532   2.127   3.940   3.332  0.3243  0.6341 -0.9452
 1347TIP3    H225533   2.239   3.861   3.267  0.1361 -0.2986 -0.1717
 1348TIP3   OH225534   0.399   2.285  15.071 -0.1885  0.8455 -0.0894
 1348TIP3    H125535   0.464   2.341  15.113 -0.1503 -0.2981  1.4299
 1348TIP3    H225536   0.369   2.337  14.996  2.2669  1.5171 -0.7177
 1349TIP3   OH225537   1.058   1.740   6.144  0.2265  0.4734 -0.0925
 1349TIP3    H125538   0.983   1.717   6.089  0.5732 -0.1890 -0.2986
 1349TIP3    H225539   1.044   1.690   6.225  0.7896 -0.2057 -0.3991
 1350TIP3   OH225540   1.916   5.302   6.276  0.7033  0.4996 -0.5148
 1350TIP3    H125541   1.940   5.264   6.361 -1.8854  1.5360  0.7728
 1350TIP3    H225542   1.980   5.372   6.262  1.8363 -0.3977  0.0100
 1351TIP3   OH225543   6.046   2.811  11.301  0.2637  0.5342 -0.5854
 1351TIP3    H125544   6.063   2.896  11.259  0.5415  1.0760  0.5766
 1351TIP3    H225545   6.018   2.834  11.390  1.5492 -0.6277  0.1485
 1352TIP3   OH225546   3.821   3.889   1.604 -0.1946  0.2537  0.2905
 1352TIP3    H125547   3.796   3.954   1.670 -0.6535 -0.5749  0.9414
 1352TIP3    H225548   3.824   3.939   1.522 -1.2286  0.9582  0.6606
 1353TIP3   OH225549   3.454   5.542   4.322 -0.0082  0.2468 -0.5603
 1353TIP3    H125550   3.543   5.568   4.344  0.0210 -0.4550  0.1902
 1353TIP3    H225551   3.413   5.522   4.406 -0.1117 -1.7992 -1.0552
 1354TIP3   OH225552   2.431   2.468  15.467 -0.3784 -0.3672 -0.0598
 1354TIP3    H125553   2.496   2.427  15.410 -0.8230  0.6266 -1.3285
 1354TIP3    H225554   2.350   2.419  15.450 -0.8390  0.7813 -1.3570
 1355TIP3   OH225555   4.699   6.042   0.319  0.1051 -0.0925 -0.1404
 1355TIP3    H125556   4.758   6.091   0.376 -1.5307  1.9240 -0.0364
 1355TIP3    H225557   4.745   6.036   0.236  0.1706  2.1460 -0.3107
 1356TIP3   OH225558   3.609   4.815   2.313 -0.1923  0.6856  0.2749
 1356TIP3    H125559   3.540   4.808   2.380 -1.2793  1.3146 -0.7376
 1356TIP3    H225560   3.635   4.725   2.295 -0.9345  0.4229  0.4934
 1357TIP3   OH225561   4.366   5.489   5.251  0.0422  0.9728  0.2861
 1357TIP3    H125562   4.442   5.519   5.201  1.6526 -1.4869  1.0570
 1357TIP3    H225563   4.353   5.555   5.318  0.3226  2.3474 -0.9693
 1358TIP3   OH225564   6.720   5.696  12.986 -0.5058  0.8572 -0.7925
 1358TIP3    H125565   6.668   5.751  12.928  1.4109  1.9640 -1.5461
 1358TIP3    H225566   6.736   5.750  13.063 -1.5638  0.0227  0.0581
 1359TIP3   OH225567   5.672   0.169   3.562  0.0984  0.3661  0.1963
 1359TIP3    H125568   5.687   0.177   3.657  1.7629 -1.4897  0.1551
 1359TIP3    H225569   5.685   0.076   3.544 -1.9206  0.3866 -1.6159
 1360TIP3   OH225570   6.481   1.482  15.235  0.2631 -0.2055  0.1928
 1360TIP3    H125571   6.566   1.457  15.197 -0.3382 -0.5366 -1.0092
 1360TIP3    H225572   6.499   1.560  15.287  1.6740 -1.4496  1.6593
 1361TIP3   OH225573   2.691   1.691   6.474 -0.2486 -0.1042  0.3757
 1361TIP3    H125574   2.622   1.746   6.438 -0.7368 -0.6974  0.3880
 1361TIP3    H225575   2.738   1.658   6.398 -2.0853 -2.4161  0.1080
 1362TIP3   OH225576   6.744   2.564   0.785 -0.0970 -0.3102 -0.0306
 1362TIP3    H125577   6.756   2.514   0.866 -0.5517  0.9883  0.8785
 1362TIP3    H225578   6.694   2.641   0.812 -1.6106 -0.5830 -1.8238
 1363TIP3   OH225579   6.679   5.342  11.013  0.4548  0.2117 -0.3955
 1363TIP3    H125580   6.692   5.434  10.992 -2.0728  1.2416  1.9567
 1363TIP3    H225581   6.585   5.328  11.003  0.5514 -1.6919  0.8638
 1364TIP3   OH225582   0.301   0.201  10.994  0.0908 -0.7551 -0.5146
 1364TIP3    H125583   0.222   0.255  10.987 -0.1546 -1.2158 -1.6029
 1364TIP3    H225584   0.364   0.242  10.934  0.5986 -0.5393  0.1548
 1365TIP3   OH225585   1.155   1.586  14.527 -0.3151 -0.0092  0.2994
 1365TIP3    H125586   1.195   1.651  14.585  0.3978  1.4576 -1.7330
 1365TIP3    H225587   1.192   1.502  14.557  1.7183  0.9411  0.6028
 1366TIP3   OH225588   4.450   6.460   6.260  0.0689  0.3925  0.3410
 1366TIP3    H125589   4.514   6.403   6.218 -1.5561 -0.3915 -1.2113
 1366TIP3    H225590   4.366   6.419   6.241 -1.0940  2.7570  0.0249
 1367TIP3   OH225591   3.777   4.277  16.195 -0.2894 -0.7560 -0.0789
 1367TIP3    H125592   3.740   4.364  16.186  1.3441 -0.1935 -2.4073
 1367TIP3    H225593   3.870   4.288  16.174  0.1246 -2.9157  0.3580
 1368TIP3   OH225594   6.189   6.193   4.661  0.1401 -0.4166  0.8762
 1368TIP3    H125595   6.103   6.221   4.632  1.1835  2.2260  0.0959
 1368TIP3    H225596   6.207   6.245   4.739  2.2239  1.4075 -0.7177
 1369TIP3   OH225597   2.265   3.480   0.407 -0.1654  0.4677 -0.1947
 1369TIP3    H125598   2.298   3.489   0.496  1.2033 -0.2149 -0.6061
 1369TIP3    H225599   2.341   3.497   0.351 -1.0730  1.2050 -1.2536
 1370TIP3   OH225600   2.946   3.240  15.544 -0.1454 -0.0732 -0.7016
 1370TIP3    H125601   2.931   3.195  15.461  2.8270 -1.0073 -0.8355
 1370TIP3    H225602   3.002   3.314  15.521 -0.6788  0.6560  0.2688
 1371TIP3   OH225603   1.128   6.064  14.028 -0.0972 -0.2119 -0.1484
 1371TIP3    H125604   1.204   6.079  13.973  0.6233  0.2318  0.9275
 1371TIP3    H225605   1.097   6.152  14.051  0.2362 -0.3650  0.9597
 1372TIP3   OH225606   5.158   4.557  15.581 -0.5535 -0.3124 -0.6105
 1372TIP3    H125607   5.148   4.485  15.642 -0.5755  0.5699  0.4681
 1372TIP3    H225608   5.155   4.636  15.636  1.5597  0.4358 -1.4705
 1373TIP3   OH225609   0.066   3.935   3.990 -0.2554  0.4252  0.0871
 1373TIP3    H125610   0.113   3.875   3.932 -0.2500 -0.0983  0.6252
 1373TIP3    H225611   0.125   3.950   4.063 -1.0119 -0.4573  0.9043
 1374TIP3   OH225612   6.366   0.777  13.955  0.2003  0.2595 -0.0483
 1374TIP3    H125613   6.425   0.803  13.883 -0.4510  0.4381 -0.5295
 1374TIP3    H225614   6.330   0.693  13.927  0.3159  0.0924  0.3013
 1375TIP3   OH225615   2.449   3.471   4.720 -0.3050  0.1468  0.2441
 1375TIP3    H125616   2.385   3.522   4.670 -0.4292 -0.0674  0.1834
 1375TIP3    H225617   2.396   3.409   4.770 -0.1269 -0.2175 -0.0182
 1376TIP3   OH225618   0.186   4.637   5.696  0.3460 -0.0509  0.4038
 1376TIP3    H125619   0.146   4.551   5.709 -1.5306  0.7001  0.0762
 1376TIP3    H225620   0.225   4.658   5.781 -2.8507  0.4866  1.9115
 1377TIP3   OH225621   2.272   5.484   2.871  0.5234 -0.0746 -0.1830
 1377TIP3    H125622   2.178   5.469   2.867  0.1825  1.6542  0.6246
 1377TIP3    H225623   2.293   5.523   2.786  0.6719 -1.1763 -0.6668
 1378TIP3   OH225624   6.544   5.545   0.344  0.1448 -0.5909 -0.1340
 1378TIP3    H125625   6.565   5.454   0.361 -1.9717 -1.0534  0.2502
 1378TIP3    H225626   6.513   5.579   0.428  1.0745  0.5584 -0.2252
 1379TIP3   OH225627   5.769   1.451  13.473 -0.1486 -0.0413  0.0874
 1379TIP3    H125628   5.688   1.400  13.465 -0.1326 -0.1616  0.7089
 1379TIP3    H225629   5.832   1.391  13.511 -0.4460  0.7411  1.9363
 1380TIP3   OH225630   3.997   6.629  13.381  0.1535  0.2728 -0.1826
 1380TIP3    H125631   3.968   6.663  13.466 -1.8402 -1.8880  0.0737
 1380TIP3    H225632   4.085   6.595  13.398 -1.3316 -2.9940  1.9727
 1381TIP3   OH225633   0.091   1.219  16.843 -0.1365  0.0761  0.2332
 1381TIP3    H125634   0.083   1.309  16.873 -2.1457 -0.3150  1.0519
 1381TIP3    H225635   0.143   1.176  16.911  0.7387  0.5718 -0.1059
 1382TIP3   OH225636   3.971   3.657  16.536  0.1056 -0.4735 -0.0036
 1382TIP3    H125637   3.975   3.665  16.441 -1.0872 -1.6419 -0.1821
 1382TIP3    H225638   4.019   3.733  16.568 -2.1652  1.7336 -1.5088
 1383TIP3   OH225639   4.171   5.655   0.941 -1.0852 -0.6166 -0.6731
 1383TIP3    H125640   4.108   5.717   0.904  0.3846  1.2547 -0.2294
 1383TIP3    H225641   4.128   5.621   1.020 -1.2846  1.2590  0.0912
 1384TIP3   OH225642   3.016   0.097   5.677 -0.2126 -0.3492 -0.0834
 1384TIP3    H125643   3.030   0.054   5.593 -0.5271 -0.1700 -0.2259
 1384TIP3    H225644   2.980   0.028   5.733 -0.6289 -0.2976 -0.2859
 1385TIP3   OH225645   3.549   5.077  12.275 -0.2112 -0.5752  0.0448
 1385TIP3    H125646   3.529   5.017  12.347 -0.7667  0.7079  1.0121
 1385TIP3    H225647   3.466   5.121  12.257 -0.0680 -0.8578 -1.3834
 1386TIP3   OH225648   4.158   1.228   1.567 -0.4910  0.0083 -0.4664
 1386TIP3    H125649   4.172   1.300   1.505 -1.4034  0.7166  0.1245
 1386TIP3    H225650   4.134   1.271   1.649 -4.1055 -0.9442 -0.8508
 1387TIP3   OH225651   2.564   3.910   0.240 -0.3079  0.0263  0.0898
 1387TIP3    H125652   2.619   3.928   0.164 -0.4221  1.4980  0.3404
 1387TIP3    H225653   2.608   3.837   0.285 -0.7723 -1.5550 -1.8887
 1388TIP3   OH225654   5.803   1.690  16.496  0.2287  0.1740 -0.3879
 1388TIP3    H125655   5.846   1.682  16.582  0.7156 -1.1039 -0.7228
 1388TIP3    H225656   5.873   1.712  16.436  0.3426 -1.3388 -0.8424
 1389TIP3   OH225657   3.057   0.559  13.496  0.4237  0.1794 -0.1295
 1389TIP3    H125658   3.091   0.557  13.406  0.8730  0.8232  0.0200
 1389TIP3    H225659   3.055   0.467  13.522  0.1854 -0.0256 -0.8341
 1390TIP3   OH225660   3.104   4.130  16.569  0.4951  0.0460  0.7553
 1390TIP3    H125661   3.072   4.214  16.599 -0.7855 -0.1690  0.0505
 1390TIP3    H225662   3.031   4.070  16.581  0.5897 -0.4614 -0.8980
 1391TIP3   OH225663   0.594   1.710   3.627 -0.2785  0.0653  0.1849
 1391TIP3    H125664   0.511   1.708   3.580  0.4723  0.3779 -1.2087
 1391TIP3    H225665   0.648   1.772   3.579  1.0404 -0.7347  0.5747
 1392TIP3   OH225666   6.569   4.672  15.646 -0.0177 -0.7063 -0.4376
 1392TIP3    H125667   6.652   4.712  15.672 -0.7181  0.6357 -0.1479
 1392TIP3    H225668   6.583   4.645  15.556  0.9776 -1.2170 -0.1472
 1393TIP3   OH225669   1.185   2.839   4.339 -0.5226  0.2969 -0.4405
 1393TIP3    H125670   1.102   2.883   4.320 -0.2177  0.1645 -2.3312
 1393TIP3    H225671   1.221   2.887   4.414 -1.5917  1.3410 -0.5586
 1394TIP3   OH225672   0.194   1.275   4.247  0.4118  0.6742  0.2188
 1394TIP3    H125673   0.238   1.297   4.165  1.4367  0.9217  0.8202
 1394TIP3    H225674   0.264   1.274   4.313 -0.4718  1.0345  1.1977
 1395TIP3   OH225675   4.126   5.053  15.052  0.3852 -0.5348 -0.0018
 1395TIP3    H125676   4.081   5.132  15.021 -4.0151 -2.2282  1.2412
 1395TIP3    H225677   4.182   5.084  15.124 -0.8566  1.5465  0.1531
 1396TIP3   OH225678   3.471   3.617   4.526 -0.2177 -0.3607 -0.2123
 1396TIP3    H125679   3.539   3.656   4.580 -0.4149  0.7560 -0.7474
 1396TIP3    H225680   3.391   3.622   4.579  0.3169 -2.9794  1.0105
 1397TIP3   OH225681   6.650   4.967  11.359  0.2324 -0.4283  0.3004
 1397TIP3    H125682   6.684   5.056  11.352 -1.1079  0.0739 -0.2428
 1397TIP3    H225683   6.582   4.973  11.426  0.4203 -1.1463  0.5628
 1398TIP3   OH225684   5.782   5.190   0.228 -0.1577  0.3955  0.5944
 1398TIP3    H125685   5.807   5.198   0.136  0.1980 -0.3973  0.6059
 1398TIP3    H225686   5.692   5.221   0.232 -0.7235 -1.0444 -0.3344
 1399TIP3   OH225687   4.431   2.595   5.957 -0.6409 -0.3498 -0.7887
 1399TIP3    H125688   4.484   2.675   5.954 -0.2504 -0.6494 -2.8622
 1399TIP3    H225689   4.360   2.617   6.017 -0.5490  1.5699 -1.3030
 1400TIP3   OH225690   3.832   0.907   2.567 -0.6980  0.4918 -0.2711
 1400TIP3    H125691   3.888   0.858   2.507 -0.6744  1.6394 -1.2322
 1400TIP3    H225692   3.879   0.907   2.650  0.3160  0.6848 -0.8274
 1401TIP3   OH225693   3.141   3.357  11.353  0.1732  0.6065 -0.3601
 1401TIP3    H125694   3.140   3.283  11.293  2.1287  0.1282  0.1405
 1401TIP3    H225695   3.123   3.433  11.297 -0.6567 -0.0828 -1.0695
 1402TIP3   OH225696   2.626   6.130  12.834  0.4373 -0.1938  0.2605
 1402TIP3    H125697   2.680   6.209  12.832 -1.0880  0.8846 -0.6030
 1402TIP3    H225698   2.609   6.115  12.927  0.8594  0.4071  0.4456
 1403TIP3   OH225699   3.415   4.436  13.589 -0.5412  0.2771  0.7952
 1403TIP3    H125700   3.480   4.500  13.620 -1.1182  0.6942  1.1483
 1403TIP3    H225701   3.464   4.354  13.585  0.0814  0.6347  0.8198
 1404TIP3   OH225702   4.386   6.237  15.358  0.4623  0.9503 -0.3517
 1404TIP3    H125703   4.338   6.177  15.301 -0.3235 -0.4093  1.6050
 1404TIP3    H225704   4.323   6.306  15.380 -0.4635 -0.4018  1.5669
 1405TIP3   OH225705   5.576   0.744  15.690 -0.2489  0.7088  0.1954
 1405TIP3    H125706   5.625   0.770  15.612 -1.0646 -0.2765 -0.6930
 1405TIP3    H225707   5.643   0.723  15.755  0.5108 -0.0260 -0.7879
 1406TIP3   OH225708   3.530   0.250  13.613  0.1055  0.6970 -0.2477
 1406TIP3    H125709   3.483   0.311  13.556 -0.6458  1.7227  1.4035
 1406TIP3    H225710   3.465   0.221  13.677  0.6346 -1.3366 -0.5625
 1407TIP3   OH225711   4.893   6.239   0.734  0.0149  0.1105  0.5012
 1407TIP3    H125712   4.949   6.221   0.809  2.4619  2.4918 -0.5753
 1407TIP3    H225713   4.941   6.205   0.659 -2.0893 -1.6618 -0.1585
 1408TIP3   OH225714   1.136   5.096   3.098  0.3141  0.2801  0.1068
 1408TIP3    H125715   1.042   5.079   3.104  0.0414  1.2135 -1.1735
 1408TIP3    H225716   1.158   5.137   3.182 -0.4636  0.3224  0.2997
 1409TIP3   OH225717   0.592   1.865  11.010  0.3053 -0.6042 -0.2214
 1409TIP3    H125718   0.507   1.890  10.973  0.0619 -0.1928  0.5878
 1409TIP3    H225719   0.571   1.818  11.090  0.8157 -2.0879 -0.9292
 1410TIP3   OH225720   1.936   6.311  11.283 -0.2226  0.6428  0.3902
 1410TIP3    H125721   2.029   6.332  11.276  0.3550 -2.0220 -4.3476
 1410TIP3    H225722   1.893   6.375  11.226 -0.3880 -1.3062 -1.8509
 1411TIP3   OH225723   6.247   0.763   4.011 -0.8046 -0.4501 -0.0480
 1411TIP3    H125724   6.322   0.757   4.070 -1.2548  0.2658  0.6164
 1411TIP3    H225725   6.239   0.675   3.973  0.7931 -0.3506 -0.6810
 1412TIP3   OH225726   4.619   1.839  14.180  0.4714 -0.0625  0.0861
 1412TIP3    H125727   4.605   1.931  14.204  0.7307  0.0486 -0.1870
 1412TIP3    H225728   4.601   1.836  14.086  1.7034 -0.0343 -0.1553
 1413TIP3   OH225729   4.023   2.117  11.262  0.6069  0.3324  0.1500
 1413TIP3    H125730   3.953   2.159  11.312  1.4816  0.6001  1.2042
 1413TIP3    H225731   4.024   2.163  11.178 -1.1865 -0.4202 -0.3224
 1414TIP3   OH225732   4.542   0.419   3.218 -0.1596 -0.2204 -0.1822
 1414TIP3    H125733   4.597   0.490   3.183 -1.5915  0.1234 -1.8454
 1414TIP3    H225734   4.605   0.352   3.246  1.1687  1.0444 -0.0460
 1415TIP3   OH225735   1.714   4.547   4.734  0.0295 -0.3330  0.0378
 1415TIP3    H125736   1.634   4.522   4.687  0.8350 -2.2142 -0.4027
 1415TIP3    H225737   1.728   4.476   4.797  0.6428  0.6419  1.0413
 1416TIP3   OH225738   6.183   3.902   6.441  0.3928  0.4697 -0.3076
 1416TIP3    H125739   6.264   3.870   6.480 -1.6594 -2.3019  2.1066
 1416TIP3    H225740   6.162   3.838   6.373  0.2075  1.1949 -0.9548
 1417TIP3   OH225741   2.835   5.539  16.213 -0.4942 -0.0004 -0.3571
 1417TIP3    H125742   2.781   5.478  16.263 -0.6728  0.8429  0.5070
 1417TIP3    H225743   2.889   5.583  16.278 -0.4504  0.8416 -0.9453
 1418TIP3   OH225744   5.192   0.110  16.400  0.0150 -0.1971  0.1174
 1418TIP3    H125745   5.134   0.172  16.445 -1.0091 -0.8525 -0.2688
 1418TIP3    H225746   5.201   0.145  16.312  0.6543  0.1896  0.3305
 1419TIP3   OH225747   3.876   4.171   3.798  0.0361 -0.0535  0.0526
 1419TIP3    H125748   3.963   4.181   3.760  0.6122 -0.9737  1.0562
 1419TIP3    H225749   3.893   4.144   3.889 -1.1534  4.4694  1.9224
 1420TIP3   OH225750   0.853   4.714   3.380  0.4864 -0.0269  0.3247
 1420TIP3    H125751   0.907   4.701   3.301 -1.6646 -2.1885 -0.9240
 1420TIP3    H225752   0.862   4.632   3.428 -2.3395 -0.8658 -0.4252
 1421TIP3   OH225753   2.058   2.604   2.092  0.1602  0.1987  0.0880
 1421TIP3    H125754   2.098   2.575   2.011  0.4708 -1.1692  0.7030
 1421TIP3    H225755   1.964   2.604   2.074  0.2185 -0.2557 -0.2217
 1422TIP3   OH225756   2.753   6.122   5.193  0.0404 -0.0346  0.3286
 1422TIP3    H125757   2.829   6.124   5.135  0.8260 -0.7336  1.2882
 1422TIP3    H225758   2.702   6.046   5.164  1.3857 -1.5105  1.6631
 1423TIP3   OH225759   3.787   5.525  17.162 -0.8930 -0.2718  0.4301
 1423TIP3    H125760   3.711   5.523  17.219 -0.4268  2.2634  1.3060
 1423TIP3    H225761   3.779   5.447  17.107 -3.5529 -0.6110  1.1698
 1424TIP3   OH225762   3.727   6.666   0.314  0.2434  0.4750  0.4635
 1424TIP3    H125763   3.709   6.752   0.275 -1.6559 -0.2340 -0.3773
 1424TIP3    H225764   3.752   6.611   0.240  0.6298  0.0932  0.8744
 1425TIP3   OH225765   0.293   0.668   4.593 -0.5599  0.1663 -0.8781
 1425TIP3    H125766   0.257   0.744   4.547  0.0339  1.3498  0.5429
 1425TIP3    H225767   0.356   0.704   4.654  0.8958 -1.6243 -1.2335
 1426TIP3   OH225768   4.907   0.438   6.405  0.1515 -0.1718  0.3266
 1426TIP3    H125769   4.922   0.350   6.371 -0.2771 -0.8100  1.7272
 1426TIP3    H225770   4.813   0.453   6.391  0.5750  0.8870 -1.7166
 1427TIP3   OH225771   0.754   5.352   5.092 -0.3395 -0.2265  0.2696
 1427TIP3    H125772   0.706   5.287   5.144  0.2169 -0.3726  0.6060
 1427TIP3    H225773   0.799   5.406   5.157  0.1144 -0.2193 -0.0478
 1428TIP3   OH225774   0.526   2.127   0.660 -0.4985 -0.9661 -0.1597
 1428TIP3    H125775   0.477   2.189   0.714 -0.9908 -0.2552 -1.3694
 1428TIP3    H225776   0.583   2.182   0.606 -0.6466 -1.5794 -0.9630
 1429TIP3   OH225777   1.392   4.917  11.428  0.0021 -0.0881  0.6611
 1429TIP3    H125778   1.423   4.945  11.342 -0.2481  0.9302  0.8872
 1429TIP3    H225779   1.367   4.998  11.472 -2.2392 -0.7721  0.7713
 1430TIP3   OH225780   5.314   2.254  14.987 -0.2068 -0.4785  0.6589
 1430TIP3    H125781   5.317   2.175  15.041  1.3723 -0.9646 -0.0895
 1430TIP3    H225782   5.402   2.290  14.991 -0.4794  0.3513 -0.3097
 1431TIP3   OH225783   0.215   3.955  13.386 -0.0691  0.0285  0.1445
 1431TIP3    H125784   0.170   3.974  13.468 -1.6809  1.2400 -0.9483
 1431TIP3    H225785   0.266   4.035  13.368  1.3822 -0.7529  0.6063
 1432TIP3   OH225786   1.769   2.562  12.361  0.1997 -0.3207  0.2746
 1432TIP3    H125787   1.762   2.656  12.348 -0.7037 -0.1933  1.5869
 1432TIP3    H225788   1.751   2.548  12.454  2.4749 -1.5887  0.5955
 1433TIP3   OH225789   6.017   0.325   1.087  0.3307  0.7316 -0.4173
 1433TIP3    H125790   6.057   0.388   1.027 -0.0304  0.1689 -1.2579
 1433TIP3    H225791   6.037   0.239   1.050 -0.4751  0.3978 -0.1084
 1434TIP3   OH225792   6.350   6.328  16.154 -0.0948  0.5252 -0.5940
 1434TIP3    H125793   6.357   6.340  16.249  0.4518  2.8282 -0.8494
 1434TIP3    H225794   6.441   6.315  16.125 -0.4706 -2.7078 -0.6029
 1435TIP3   OH225795   6.803   0.190  16.003  0.2979 -0.3815 -0.2733
 1435TIP3    H125796   6.716   0.228  15.987  1.0381  0.5342 -2.4820
 1435TIP3    H225797   6.860   0.265  16.020  0.5296 -1.0391  2.1832
 1436TIP3   OH225798   4.576   1.327   2.140 -0.2627 -0.1659 -0.5080
 1436TIP3    H125799   4.595   1.252   2.196 -2.8534 -0.4899  0.0530
 1436TIP3    H225800   4.565   1.289   2.053 -2.2528 -0.6056 -0.1070
 1437TIP3   OH225801   4.804   3.246  11.793 -0.8643 -0.2237  0.1541
 1437TIP3    H125802   4.722   3.233  11.840 -1.7803  3.8556  0.0522
 1437TIP3    H225803   4.778   3.252  11.701 -0.7687  2.3555  0.2299
 1438TIP3   OH225804   0.388   4.213  11.960 -0.4229 -0.1891 -0.2446
 1438TIP3    H125805   0.426   4.268  11.892 -1.0572  1.2332  0.5263
 1438TIP3    H225806   0.368   4.273  12.032 -1.6437 -1.3263  0.4085
 1439TIP3   OH225807   1.227   5.254   1.642 -0.6357 -0.7385  0.1783
 1439TIP3    H125808   1.204   5.161   1.647 -0.4970 -0.8392 -0.7451
 1439TIP3    H225809   1.309   5.261   1.692 -1.3022 -0.8597  1.3153
 1440TIP3   OH225810   0.454   5.792   5.632 -0.2259  0.9261  0.3674
 1440TIP3    H125811   0.481   5.811   5.722 -1.0387 -0.7111  1.0037
 1440TIP3    H225812   0.361   5.769   5.640 -0.3536  0.9448 -0.9217
 1441TIP3   OH225813   4.403   4.026   5.303  0.0022  0.0040  0.4987
 1441TIP3    H125814   4.317   4.047   5.338  0.1943  0.6319  0.5990
 1441TIP3    H225815   4.460   4.024   5.380  0.1316 -0.1547  0.4013
 1442TIP3   OH225816   0.795   3.519   5.360 -0.3293 -0.4372  0.4313
 1442TIP3    H125817   0.862   3.555   5.302 -0.5513 -0.1812  0.3269
 1442TIP3    H225818   0.754   3.449   5.310  1.2664 -2.0639  1.2631
 1443TIP3   OH225819   0.108   0.372  15.093 -0.6707 -0.9143 -0.1566
 1443TIP3    H125820   0.203   0.382  15.100 -0.5070 -1.5835 -1.2158
 1443TIP3    H225821   0.082   0.329  15.174 -0.0640 -0.7564  0.1278
 1444TIP3   OH225822   0.654   2.631  11.953  0.5796  0.6879 -0.5801
 1444TIP3    H125823   0.583   2.685  11.986  1.0719  1.0823 -0.1402
 1444TIP3    H225824   0.680   2.577  12.028  0.2406 -0.0097 -0.9519
 1445TIP3   OH225825   6.500   4.488  11.155 -0.2750 -0.1186  0.3635
 1445TIP3    H125826   6.414   4.516  11.124 -1.1043  0.4036  2.9136
 1445TIP3    H225827   6.535   4.564  11.202  1.8075 -0.1828 -0.9433
 1446TIP3   OH225828   6.432   2.946   3.439 -0.3234  0.0876  0.0065
 1446TIP3    H125829   6.504   2.928   3.499 -0.2819  0.5177  0.0933
 1446TIP3    H225830   6.399   3.032   3.467  0.9915  1.2725 -1.8491
 1447TIP3   OH225831   6.657   2.527  13.510 -0.0170  0.3461 -0.3294
 1447TIP3    H125832   6.615   2.595  13.562  0.8992 -0.3948  1.4674
 1447TIP3    H225833   6.589   2.497  13.450 -1.5182  0.4341  1.2383
 1448TIP3   OH225834   0.992   1.670  13.518  0.2084 -0.4899  0.0171
 1448TIP3    H125835   0.929   1.608  13.480  0.2540  0.0896 -1.0562
 1448TIP3    H225836   0.938   1.736  13.562 -0.1393  1.1088 -2.5620
 1449TIP3   OH225837   6.098   3.060  14.306  0.1483 -0.4192 -0.0544
 1449TIP3    H125838   6.119   2.996  14.238  0.1674 -0.2508 -0.2062
 1449TIP3    H225839   6.015   3.029  14.343  0.3972 -0.8037  0.2044
 1450TIP3   OH225840   0.636   1.240  14.929 -0.2892 -0.4016  0.1071
 1450TIP3    H125841   0.687   1.222  14.850  0.8175 -0.8542  0.8963
 1450TIP3    H225842   0.650   1.163  14.985 -0.5488  0.1801  0.9955
 1451TIP3   OH225843   1.708   1.672  15.234  0.3278  0.5053 -0.1781
 1451TIP3    H125844   1.643   1.611  15.269  0.2334  0.6624 -0.0766
 1451TIP3    H225845   1.693   1.753  15.283  1.5211  0.1429  0.8408
 1452TIP3   OH225846   4.214   1.249   0.488 -0.4414 -0.3462 -0.5905
 1452TIP3    H125847   4.157   1.297   0.549 -0.9180  1.5914 -2.4286
 1452TIP3    H225848   4.174   1.162   0.481 -1.9833  0.2972 -0.2296
 1453TIP3   OH225849   3.307   2.058  14.956 -0.5634 -0.4872  0.3822
 1453TIP3    H125850   3.259   1.987  14.913 -1.0009 -0.3805  0.6880
 1453TIP3    H225851   3.390   2.019  14.982 -1.1422 -1.1338  1.3110
 1454TIP3   OH225852   4.917   6.232   1.533  0.0992  0.1795 -0.0669
 1454TIP3    H125853   4.827   6.203   1.517  0.1271  0.1957 -0.2470
 1454TIP3    H225854   4.943   6.277   1.453  0.1190  0.5480  0.1403
 1455TIP3   OH225855   6.058   2.811  13.607  0.3344  0.1418  0.0497
 1455TIP3    H125856   6.151   2.814  13.584  0.4448 -1.6078  0.1421
 1455TIP3    H225857   6.036   2.718  13.607 -1.4452  0.5192 -0.0300
 1456TIP3   OH225858   1.912   3.845  15.226  1.1113  0.5618 -0.2524
 1456TIP3    H125859   1.935   3.768  15.175 -0.2724 -1.7337  2.2826
 1456TIP3    H225860   1.841   3.887  15.177  1.1659 -0.3922 -1.1805
 1457TIP3   OH225861   5.581   0.027  16.454 -0.3098 -0.4937  0.5864
 1457TIP3    H125862   5.600  -0.020  16.373  0.6427  1.4425 -0.3778
 1457TIP3    H225863   5.527  -0.034  16.504  0.2024 -2.2848 -0.9008
 1458TIP3   OH225864   5.755   3.979   4.778 -0.1666 -0.4958  0.7656
 1458TIP3    H125865   5.676   3.933   4.750  0.1044 -0.0738 -0.8011
 1458TIP3    H225866   5.744   3.991   4.872 -0.2797 -3.6708  1.2661
 1459TIP3   OH225867   3.345   5.250   5.920 -0.3599  0.0369 -0.3092
 1459TIP3    H125868   3.281   5.186   5.890 -2.0512  0.8995  1.2483
 1459TIP3    H225869   3.360   5.229   6.012 -0.5938  1.5539  0.1102
 1460TIP3   OH225870   5.833   5.322   5.767  0.0940  0.2619 -0.6244
 1460TIP3    H125871   5.895   5.282   5.829 -0.2083 -0.0817 -0.5385
 1460TIP3    H225872   5.870   5.408   5.749  0.2175  0.3483 -0.0063
 1461TIP3   OH225873   6.215   3.879   0.364  0.8221 -0.3878  0.3722
 1461TIP3    H125874   6.170   3.856   0.445  0.7637 -1.3266  0.0848
 1461TIP3    H225875   6.193   3.972   0.350  0.3324 -0.3843  1.1011
 1462TIP3   OH225876   1.939   4.903  15.407 -0.2349 -0.4505  0.2865
 1462TIP3    H125877   1.882   4.844  15.358  0.8674  0.5939 -2.4400
 1462TIP3    H225878   1.909   4.991  15.383  1.8391  0.1099 -0.4762
 1463TIP3   OH225879   5.984   3.104   1.977  0.1146  0.2015  0.3836
 1463TIP3    H125880   5.945   3.179   2.023  1.4607  0.3394  1.3663
 1463TIP3    H225881   5.948   3.027   2.022 -0.1856  0.2837  0.2876
 1464TIP3   OH225882   0.763   1.685  10.859  0.2955  0.3120  0.2943
 1464TIP3    H125883   0.697   1.733  10.908 -0.1019  1.1725 -1.0218
 1464TIP3    H225884   0.716   1.654  10.781  0.9424 -0.8578  0.3563
 1465TIP3   OH225885   2.493   0.428   2.153 -0.1530 -0.0738  0.0926
 1465TIP3    H125886   2.456   0.390   2.074 -0.3859 -0.0687  0.1975
 1465TIP3    H225887   2.462   0.371   2.224 -0.1181  0.0411  0.2017
 1466TIP3   OH225888   3.674   1.966   4.887  0.4000 -0.2597  0.2212
 1466TIP3    H125889   3.659   1.978   4.793  1.4916 -4.1873 -0.6300
 1466TIP3    H225890   3.750   2.021   4.907 -0.4640  1.4068 -0.9070
 1467TIP3   OH225891   4.665   0.819   6.156 -0.4186 -0.1218 -0.5807
 1467TIP3    H125892   4.682   0.912   6.171  0.2185 -0.1866 -0.8745
 1467TIP3    H225893   4.737   0.774   6.199  0.1387 -0.4044 -1.7585
 1468TIP3   OH225894   6.179   1.065   2.855  0.0629  0.0506  0.4639
 1468TIP3    H125895   6.195   0.988   2.909 -2.5821 -0.7286  0.3131
 1468TIP3    H225896   6.099   1.103   2.891 -1.0919  0.2235 -2.0702
 1469TIP3   OH225897   4.833   2.964   2.179 -0.5620 -0.3824  0.1397
 1469TIP3    H125898   4.862   2.935   2.092 -0.5174 -1.9231  0.6345
 1469TIP3    H225899   4.914   2.992   2.223 -0.8187  2.5651 -0.9988
 1470TIP3   OH225900   1.859   6.484  14.013  0.2102  0.6411 -0.0490
 1470TIP3    H125901   1.832   6.558  14.067  0.2942  1.2873 -0.8959
 1470TIP3    H225902   1.955   6.490  14.010  0.1127  2.1899 -2.4482
 1471TIP3   OH225903   2.207   3.564  15.328 -0.0496 -0.4302  0.0307
 1471TIP3    H125904   2.123   3.521  15.312 -1.3808  1.7030  0.8409
 1471TIP3    H225905   2.252   3.506  15.389 -2.0763 -0.3685  1.7005
 1472TIP3   OH225906   5.225   0.042  13.964  0.6552 -0.2262  0.2848
 1472TIP3    H125907   5.310   0.082  13.944 -0.1189  2.0947  1.2313
 1472TIP3    H225908   5.173   0.114  14.002 -0.8794 -2.1796  2.1425
 1473TIP3   OH225909   1.237   2.219   1.427 -0.0108  0.2032  0.2589
 1473TIP3    H125910   1.186   2.288   1.468 -0.5061  1.4582 -2.2736
 1473TIP3    H225911   1.177   2.145   1.420 -0.1455  0.2280  1.0189
 1474TIP3   OH225912   4.906   2.019  11.470 -0.4198 -0.3372 -0.9382
 1474TIP3    H125913   4.829   2.072  11.454  0.0471 -0.0376 -2.3144
 1474TIP3    H225914   4.899   1.992  11.562 -0.2639  2.7513  0.0728
 1475TIP3   OH225915   3.430   0.900  13.254 -0.1394  0.7066  0.2826
 1475TIP3    H125916   3.345   0.863  13.278 -0.5618  0.0713 -1.9679
 1475TIP3    H225917   3.485   0.886  13.332 -1.7764  0.1656  1.3938
 1476TIP3   OH225918   1.730   0.904   2.749 -0.0197 -0.8386  0.4126
 1476TIP3    H125919   1.776   0.983   2.721 -0.3190 -0.0706  1.9886
 1476TIP3    H225920   1.687   0.872   2.669 -0.4009  0.9222 -0.1342
 1477TIP3   OH225921   5.518   2.943   1.250  0.2653  0.1883  0.0758
 1477TIP3    H125922   5.466   2.980   1.178  1.4394 -0.7115 -1.2874
 1477TIP3    H225923   5.463   2.874   1.286  0.4005 -0.6199 -1.2158
 1478TIP3   OH225924   1.718   3.782  12.848  0.0628  0.3316 -0.1130
 1478TIP3    H125925   1.662   3.858  12.835 -0.7906 -0.5331 -1.7041
 1478TIP3    H225926   1.691   3.747  12.933  1.1262  2.2791  1.1186
 1479TIP3   OH225927   6.178   1.769  11.325 -0.5698  0.1546 -0.4266
 1479TIP3    H125928   6.158   1.740  11.235  0.8978 -1.5045 -0.2587
 1479TIP3    H225929   6.193   1.688  11.373 -0.8377  1.0549  1.2300
 1480TIP3   OH225930   5.950   3.702  11.210  0.4483 -0.4259 -0.0753
 1480TIP3    H125931   5.856   3.711  11.194  0.7109  1.4382 -0.8333
 1480TIP3    H225932   5.984   3.665  11.129  0.3553 -1.2201  0.2461
 1481TIP3   OH225933   0.019   3.015   0.114  0.3068 -0.0392 -0.0752
 1481TIP3    H125934  -0.039   2.990   0.042 -1.4267  1.4932  0.7336
 1481TIP3    H225935   0.031   2.934   0.163  1.3264 -1.0659 -1.8885
 1482TIP3   OH225936   6.685   4.916  12.828  0.1333  0.3662  0.0908
 1482TIP3    H125937   6.645   4.948  12.909  0.2284  1.6055 -0.3274
 1482TIP3    H225938   6.729   4.993  12.792 -0.8151  0.1365 -1.6797
 1483TIP3   OH225939   1.673   5.708   1.299  0.0584  0.2813  0.0725
 1483TIP3    H125940   1.603   5.769   1.320 -0.3551  0.1142 -0.7688
 1483TIP3    H225941   1.630   5.637   1.251  0.5870 -0.5043  0.7280
 1484TIP3   OH225942   2.880   6.016  12.110 -0.5447  0.3672 -0.1880
 1484TIP3    H125943   2.844   6.092  12.155 -1.5965 -0.3791  0.2821
 1484TIP3    H225944   2.939   5.976  12.174 -1.9236 -0.6079  0.5295
 1485TIP3   OH225945   1.139   3.204  15.114  0.0759  0.0260  0.6355
 1485TIP3    H125946   1.209   3.253  15.070  0.3293  0.1138  1.1277
 1485TIP3    H225947   1.185   3.137  15.164 -0.1718  0.2886  1.2185
 1486TIP3   OH225948   4.554   1.877   4.537  0.0702  0.2418 -0.0387
 1486TIP3    H125949   4.583   1.966   4.516 -0.8788  0.9984  1.6679
 1486TIP3    H225950   4.603   1.854   4.615  0.4162 -0.8199 -0.5538
 1487TIP3   OH225951   4.369   6.561  15.023  0.0957  0.1066  0.4418
 1487TIP3    H125952   4.455   6.555  15.064 -0.1602  0.4058  1.0287
 1487TIP3    H225953   4.312   6.597  15.091 -0.3840  0.3883 -0.0998
 1488TIP3   OH225954   4.931   1.109   2.136  0.1719 -0.0038 -0.2770
 1488TIP3    H125955   4.989   1.070   2.200 -0.4817 -1.9558 -0.8158
 1488TIP3    H225956   4.884   1.177   2.184  1.2575  0.0619  0.7227
 1489TIP3   OH225957   4.558   3.715  10.975  0.1845  0.4319  0.2607
 1489TIP3    H125958   4.468   3.691  10.954  0.2357  0.1702  0.3422
 1489TIP3    H225959   4.563   3.809  10.955  0.1788  0.2327 -0.7241
 1490TIP3   OH225960   5.837   5.881  15.919  0.4489 -0.1244 -0.5132
 1490TIP3    H125961   5.911   5.931  15.955 -0.5023 -0.3179  1.8653
 1490TIP3    H225962   5.799   5.939  15.853  1.5768  0.7543 -0.4278
 1491TIP3   OH225963   4.360   5.964   1.489 -0.4124  0.5171  0.0338
 1491TIP3    H125964   4.360   5.923   1.576  2.7690  0.3297  0.0781
 1491TIP3    H225965   4.394   6.052   1.505  1.9605 -0.1147 -1.1577
 1492TIP3   OH225966   5.881   2.004  13.456  0.4911  0.1312  0.3444
 1492TIP3    H125967   5.810   2.001  13.521 -0.1222  0.7348 -0.2887
 1492TIP3    H225968   5.923   1.918  13.463 -0.6809 -0.4588  0.3169
 1493TIP3   OH225969   2.492   0.288  16.483  0.2700  0.2107  0.1540
 1493TIP3    H125970   2.499   0.280  16.578 -0.6739 -0.2380  0.1946
 1493TIP3    H225971   2.415   0.235  16.460  2.0592 -1.9688 -1.1881
 1494TIP3   OH225972   4.573   4.205  16.358  0.0605  0.0198  0.4698
 1494TIP3    H125973   4.636   4.167  16.296  1.4193  1.6180  0.7845
 1494TIP3    H225974   4.599   4.170  16.443 -0.0898 -0.0966  0.4662
 1495TIP3   OH225975   4.048   3.915  13.206  0.1505  0.6198 -0.0089
 1495TIP3    H125976   4.068   4.005  13.232  0.2387  0.1629  1.5967
 1495TIP3    H225977   3.954   3.916  13.187  0.2741  1.1811 -0.6434
 1496TIP3   OH225978   3.649   5.816   4.688  0.1399  0.4531  0.4765
 1496TIP3    H125979   3.634   5.727   4.720  0.8711 -0.5810 -1.7998
 1496TIP3    H225980   3.742   5.831   4.702  0.2567  0.3869 -0.2046
 1497TIP3   OH225981   0.467   0.264  13.363  0.1765  0.3506 -0.9562
 1497TIP3    H125982   0.549   0.286  13.406 -0.3827  0.1839  0.2234
 1497TIP3    H225983   0.421   0.348  13.354 -0.1949  0.2404 -0.1718
 1498TIP3   OH225984   4.355   0.231   1.985 -0.1509 -0.4241 -0.5039
 1498TIP3    H125985   4.399   0.299   2.036  1.0197  0.2486 -2.3257
 1498TIP3    H225986   4.421   0.164   1.971 -0.7978 -1.1482 -0.1860
 1499TIP3   OH225987   5.347   0.895  12.612  0.3356 -0.0110 -0.6346
 1499TIP3    H125988   5.319   0.848  12.690  1.4454 -0.8624 -0.7268
 1499TIP3    H225989   5.339   0.830  12.541  2.3825 -0.2821 -0.6794
 1500TIP3   OH225990   4.598   2.870   2.613  1.0870 -0.0942  0.1815
 1500TIP3    H125991   4.668   2.935   2.604  1.3762 -0.4528 -0.1448
 1500TIP3    H225992   4.598   2.848   2.706  0.8803  0.4883  0.3282
 1501TIP3   OH225993   4.671   6.046  14.706 -0.4111 -0.4358  0.4583
 1501TIP3    H125994   4.632   6.108  14.769  1.0754  2.2515 -1.0794
 1501TIP3    H225995   4.596   6.012  14.657 -1.3877 -0.8829  2.1684
 1502TIP3   OH225996   6.254   6.384   4.834 -0.2239 -0.2310 -0.0273
 1502TIP3    H125997   6.330   6.401   4.779 -1.1570 -1.7458 -1.9044
 1502TIP3    H225998   6.226   6.470   4.864  0.8263  0.5761 -1.2557
 1503TIP3   OH225999   1.362   5.409  14.462  0.7092 -0.1514 -0.0104
 1503TIP3    H126000   1.373   5.484  14.403  0.3439 -0.8219 -0.9775
 1503TIP3    H226001   1.444   5.361  14.456  2.2900  1.8680  3.2176
 1504TIP3   OH226002   0.903   6.821  13.037  0.1251 -0.1890  0.0265
 1504TIP3    H126003   0.967   6.786  12.974 -0.3406  0.2642 -0.7173
 1504TIP3    H226004   0.858   6.743  13.070  0.1398 -0.4087 -0.4585
 1505TIP3   OH226005   1.250   6.127   2.960 -0.0746 -0.3191  0.6238
 1505TIP3    H126006   1.204   6.176   3.028 -1.2626 -0.1684 -0.2582
 1505TIP3    H226007   1.339   6.118   2.994  0.0588  1.9610  1.0692
 1506TIP3   OH226008   0.584   2.988  13.128  0.2015 -0.2567 -0.1842
 1506TIP3    H126009   0.512   2.942  13.084  1.0733 -1.9950  0.1110
 1506TIP3    H226010   0.654   2.923  13.134  1.0178  0.7013  1.4945
 1507TIP3   OH226011   4.625   2.285  15.451  0.3001 -0.2565  0.0351
 1507TIP3    H126012   4.643   2.277  15.544 -0.4929 -1.4471  0.1114
 1507TIP3    H226013   4.608   2.195  15.422  0.5349  0.0905 -1.2539
 1508TIP3   OH226014   1.388   0.148  14.650 -0.4270  0.2822 -0.5676
 1508TIP3    H126015   1.298   0.176  14.665 -0.9395 -0.5105 -2.0194
 1508TIP3    H226016   1.405   0.086  14.721 -0.9473  0.5652 -0.1825
 1509TIP3   OH226017   1.896   6.807  11.188 -0.2161  0.3092  0.0591
 1509TIP3    H126018   1.872   6.841  11.102  0.1744 -0.4809 -0.3728
 1509TIP3    H226019   1.957   6.736  11.169 -0.5521 -0.2349  0.9673
 1510TIP3   OH226020   1.515   3.691  16.052  0.3458 -0.9469  0.2401
 1510TIP3    H126021   1.549   3.673  16.140  0.9373  1.3932  0.5846
 1510TIP3    H226022   1.571   3.762  16.019 -3.3844  2.4880  0.4350
 1511TIP3   OH226023   6.607   0.803  12.626 -0.1630 -0.1093  0.4303
 1511TIP3    H126024   6.619   0.845  12.711  1.5513  0.2205  0.0549
 1511TIP3    H226025   6.654   0.859  12.565  1.6349 -2.1416 -0.1939
 1512TIP3   OH226026   3.735   4.329   1.645 -0.2732 -0.0773 -0.4861
 1512TIP3    H126027   3.726   4.243   1.687  2.9872  0.3015  1.3243
 1512TIP3    H226028   3.664   4.381   1.681 -1.5240 -1.5869 -0.6211
 1513TIP3   OH226029   2.765   1.901   3.308  0.4556 -0.4332 -0.2759
 1513TIP3    H126030   2.694   1.963   3.324  1.6638  0.4453  2.2213
 1513TIP3    H226031   2.765   1.843   3.384  1.1188 -1.7486 -1.2321
 1514TIP3   OH226032   6.419   5.524  17.090  0.2103 -0.0813 -0.0337
 1514TIP3    H126033   6.348   5.480  17.137 -0.1272  0.6750  0.1642
 1514TIP3    H226034   6.380   5.605  17.059  0.6859 -0.1585 -0.8555
 1515TIP3   OH226035   2.957   0.135   2.983  0.1063 -0.7184  0.1192
 1515TIP3    H126036   2.939   0.041   2.992 -0.0805 -0.6618  0.3275
 1515TIP3    H226037   2.994   0.143   2.895 -0.3554 -0.9144 -0.0986
 1516TIP3   OH226038   5.871   1.840   2.908  0.4747  0.2514 -0.2791
 1516TIP3    H126039   5.918   1.915   2.870  0.1159  0.7545  0.2610
 1516TIP3    H226040   5.891   1.844   3.001 -0.4407  0.3248 -0.0835
 1517TIP3   OH226041   2.254   6.312  11.622  0.2614 -0.2062 -0.7440
 1517TIP3    H126042   2.232   6.293  11.530  0.7448 -2.0097 -0.5252
 1517TIP3    H226043   2.341   6.274  11.634  1.4399  2.4511 -0.2481
 1518TIP3   OH226044   2.557   3.449  10.973  0.2698 -0.6514  0.2018
 1518TIP3    H126045   2.612   3.514  11.017  1.6560 -1.1228 -0.7797
 1518TIP3    H226046   2.494   3.502  10.923 -0.2442 -0.1110  1.3759
 1519TIP3   OH226047   1.685   0.283   0.338 -0.1006 -0.1990 -0.2779
 1519TIP3    H126048   1.688   0.187   0.335  3.0681 -0.2184  0.0534
 1519TIP3    H226049   1.776   0.310   0.344 -0.8360  2.9053 -0.9462
 1520TIP3   OH226050   6.598   5.277   0.255 -0.2957  0.1447  0.0177
 1520TIP3    H126051   6.503   5.270   0.241 -0.1998 -2.4156  0.1145
 1520TIP3    H226052   6.631   5.315   0.174 -1.3577  0.6535 -0.1978
 1521TIP3   OH226053   3.293   4.435   4.099 -0.1390 -0.2450  0.4692
 1521TIP3    H126054   3.354   4.505   4.076  1.1344 -1.4429  0.0236
 1521TIP3    H226055   3.235   4.473   4.165  1.5607  0.7289  1.4477
 1522TIP3   OH226056   3.109   0.131   6.458  0.8625  0.8307 -0.0648
 1522TIP3    H126057   3.203   0.144   6.444  0.6962  2.6719  0.2358
 1522TIP3    H226058   3.096   0.145   6.552  0.3620 -0.0588  0.0125
 1523TIP3   OH226059   0.971   6.349   0.927 -0.5999  0.2471  0.0656
 1523TIP3    H126060   1.002   6.337   1.017 -0.7100  0.3401  0.1164
 1523TIP3    H226061   0.900   6.413   0.935  0.2704  1.2826 -0.2510
 1524TIP3   OH226062   2.820   5.868  15.854  0.2974 -0.6349  0.0325
 1524TIP3    H126063   2.752   5.803  15.833 -0.0181 -0.5426  0.7472
 1524TIP3    H226064   2.815   5.878  15.949  1.5299 -0.8552  0.1306
 1525TIP3   OH226065   5.593   4.947  15.681 -0.1542  0.4425  0.1320
 1525TIP3    H126066   5.510   4.984  15.651  0.1409  0.7117 -0.3632
 1525TIP3    H226067   5.568   4.886  15.751 -0.7232  0.8907  0.3287
 1526TIP3   OH226068   0.661   4.729   4.003  0.6486 -0.1535  0.0026
 1526TIP3    H126069   0.677   4.703   4.094  0.9796 -2.9980 -0.7672
 1526TIP3    H226070   0.735   4.690   3.955 -0.7692 -0.7832 -1.7592
 1527TIP3   OH226071   1.332   1.579  13.682 -0.6755 -0.0835  0.5541
 1527TIP3    H126072   1.395   1.546  13.747 -0.7840 -0.2055  0.5970
 1527TIP3    H226073   1.246   1.559  13.719 -0.7386 -0.5026  0.1936
 1528TIP3   OH226074   5.438   3.985  12.968  0.0940  0.4438  0.5587
 1528TIP3    H126075   5.488   3.921  12.918 -1.8761 -0.7226 -0.0581
 1528TIP3    H226076   5.488   3.997  13.048  1.2982 -0.7134  0.0281
 1529TIP3   OH226077   6.558   2.034  11.479 -0.4519  0.0925 -0.1584
 1529TIP3    H126078   6.469   2.059  11.503 -1.4608 -1.9093 -1.5334
 1529TIP3    H226079   6.584   2.096  11.411 -0.6608  0.8691  0.4600
 1530TIP3   OH226080   5.570   5.689  12.670  0.0181  0.1521 -0.2717
 1530TIP3    H126081   5.648   5.737  12.697 -1.4839  0.6522  3.9431
 1530TIP3    H226082   5.497   5.745  12.698 -1.7935 -2.7690  1.2856
 1531TIP3   OH226083   2.197   5.930   1.802  0.4072 -0.4184 -0.2261
 1531TIP3    H126084   2.268   5.982   1.766  0.3802  0.5728  1.0791
 1531TIP3    H226085   2.121   5.989   1.801  0.0366 -0.8862 -0.0127
 1532TIP3   OH226086   5.036   2.852   0.899  0.3187 -0.4770  0.0355
 1532TIP3    H126087   4.968   2.899   0.946 -0.1003  0.6456 -1.6196
 1532TIP3    H226088   5.039   2.893   0.812  0.0772 -3.3244 -1.4457
 1533TIP3   OH226089   1.921   6.511   2.883 -0.8161  0.2803 -0.1682
 1533TIP3    H126090   1.904   6.603   2.903 -0.1924  0.1817  0.8934
 1533TIP3    H226091   1.866   6.463   2.945 -0.1938 -0.0477  0.1386
 1534TIP3   OH226092   4.723   1.703  14.387  0.1666  0.3550  0.0682
 1534TIP3    H126093   4.815   1.686  14.369 -0.3683 -1.0383 -1.6685
 1534TIP3    H226094   4.687   1.730  14.302 -1.2190 -0.1295  0.4680
 1535TIP3   OH226095   6.186   3.091  15.655  0.2729  0.5826 -0.3538
 1535TIP3    H126096   6.246   3.125  15.721 -1.2080  1.0831  0.7778
 1535TIP3    H226097   6.105   3.073  15.703 -0.4263 -0.2768 -1.7957
 1536TIP3   OH226098   0.738   5.305  16.950 -0.6413  0.5415  0.3011
 1536TIP3    H126099   0.743   5.354  17.033 -0.7458 -0.8858  1.1839
 1536TIP3    H226100   0.829   5.298  16.921 -0.2971 -1.0862  1.6255
 1537TIP3   OH226101   1.179   6.764   2.646  0.2635  1.2767 -0.5977
 1537TIP3    H126102   1.187   6.706   2.571  0.8650  1.4420 -0.6694
 1537TIP3    H226103   1.090   6.750   2.679 -0.5893  2.3568 -2.2958
 1538TIP3   OH226104   1.226   0.359  15.094 -0.1853 -0.5319  0.5988
 1538TIP3    H126105   1.202   0.279  15.047  1.2630 -0.0258 -1.0760
 1538TIP3    H226106   1.254   0.420  15.026  0.6643  0.7135  2.0123
 1539TIP3   OH226107   2.166   2.004  17.152  0.2863  0.3410  0.2922
 1539TIP3    H126108   2.191   1.936  17.215 -1.1859 -0.3400  0.2078
 1539TIP3    H226109   2.082   1.973  17.118  0.7742  0.9877 -1.5818
 1540TIP3   OH226110   3.355   4.755   6.224  0.3209 -0.0031 -0.0334
 1540TIP3    H126111   3.280   4.704   6.254  1.2437 -0.1938  2.1442
 1540TIP3    H226112   3.430   4.697   6.234  0.9421  0.6462 -0.7949
 1541TIP3   OH226113   2.084   5.461  13.058 -0.1833 -0.0386  0.5151
 1541TIP3    H126114   2.170   5.498  13.037  0.0015  0.7791  2.5078
 1541TIP3    H226115   2.029   5.484  12.983  0.6203  1.9543  0.4890
 1542TIP3   OH226116   4.424   1.367  11.688  0.0904 -0.3841  0.0503
 1542TIP3    H126117   4.343   1.374  11.738 -0.4966 -1.1716 -0.7581
 1542TIP3    H226118   4.474   1.298  11.732  0.4953  0.3404  0.7569
 1543TIP3   OH226119   1.803   5.959  14.498  0.7888  0.1489 -0.0093
 1543TIP3    H126120   1.839   6.047  14.509  1.9561 -0.3156  0.0136
 1543TIP3    H226121   1.879   5.903  14.488  0.0538 -0.8551 -0.1506
 1544TIP3   OH226122   3.842   3.617  12.810 -0.4152  0.1345 -0.8899
 1544TIP3    H126123   3.882   3.532  12.794 -2.8751 -0.8109 -2.5927
 1544TIP3    H226124   3.797   3.607  12.894 -0.0986 -0.0018 -0.7364
 1545TIP3   OH226125   6.467   0.971   3.050 -0.6663  0.5694  0.0574
 1545TIP3    H126126   6.402   0.990   3.118  0.1130  1.7230  0.5286
 1545TIP3    H226127   6.496   1.058   3.021  1.2497  0.1087  0.4614
 1546TIP3   OH226128   1.126   2.990   0.584  0.9261  0.4038 -0.4958
 1546TIP3    H126129   1.055   3.034   0.537 -0.2902 -0.6882  0.2527
 1546TIP3    H226130   1.126   2.901   0.549 -0.4020 -0.6238  1.8784
 1547TIP3   OH226131   2.089   5.592   1.810  0.2761 -0.1087 -0.0596
 1547TIP3    H126132   2.132   5.507   1.807 -1.0680 -1.0157  2.6092
 1547TIP3    H226133   2.138   5.642   1.875  1.2401  1.3676 -1.8131
 1548TIP3   OH226134   4.382   3.129   0.271 -0.1605 -0.0784  0.7649
 1548TIP3    H126135   4.391   3.204   0.212  0.6506 -0.3474  0.5210
 1548TIP3    H226136   4.461   3.077   0.255 -0.4391 -0.6960  1.3359
 1549TIP3   OH226137   6.203   6.031  11.596 -0.3005  0.0343 -0.0546
 1549TIP3    H126138   6.279   5.997  11.548  1.1916  0.3758  1.9598
 1549TIP3    H226139   6.151   5.954  11.617 -0.4504 -0.2256 -1.2900
 1550TIP3   OH226140   6.550   5.194   1.803  0.3181  0.6429  0.0623
 1550TIP3    H126141   6.459   5.224   1.801  0.2074  0.3058 -1.3370
 1550TIP3    H226142   6.545   5.104   1.832  0.0950  0.3626 -0.7952
 1551TIP3   OH226143   3.825   2.448  11.872  0.2934  0.1773  1.1353
 1551TIP3    H126144   3.739   2.442  11.830  0.2368  0.2898  1.2339
 1551TIP3    H226145   3.870   2.368  11.846  0.0434 -0.0302  1.3342
 1552TIP3   OH226146   6.320   3.973   5.514  0.3569 -0.7230 -0.0919
 1552TIP3    H126147   6.403   3.960   5.560 -0.5370  2.1888  2.6762
 1552TIP3    H226148   6.253   3.938   5.573 -0.5701 -0.8658 -1.1895
 1553TIP3   OH226149   5.932   1.516   2.608 -1.1916 -0.0387  0.3323
 1553TIP3    H126150   5.950   1.515   2.514 -1.0425  0.3507  0.3553
 1553TIP3    H226151   5.909   1.425   2.629  2.1127 -0.9554  0.5487
 1554TIP3   OH226152   4.747   3.430  10.901  0.0042  0.1247  0.3711
 1554TIP3    H126153   4.652   3.441  10.905 -0.0218  0.6691 -1.1244
 1554TIP3    H226154   4.773   3.475  10.821  1.3575 -1.1840  0.0349
 1555TIP3   OH226155   4.607   4.318   6.007  0.1372 -0.2814 -0.0140
 1555TIP3    H126156   4.668   4.279   6.070  1.3223 -0.3184 -1.1250
 1555TIP3    H226157   4.525   4.272   6.021 -1.0110  2.5013  4.3666
 1556TIP3   OH226158   2.439   2.372  16.016 -0.1568  0.0413  0.0470
 1556TIP3    H126159   2.443   2.301  16.081 -1.4046 -1.2810 -1.2282
 1556TIP3    H226160   2.506   2.350  15.952  0.1672  0.6011  0.1943
 1557TIP3   OH226161   2.451   1.821   0.585 -0.2072 -0.2869  0.1974
 1557TIP3    H126162   2.436   1.749   0.646 -0.6318 -1.2479 -0.9907
 1557TIP3    H226163   2.369   1.828   0.536 -0.9938  2.4410  1.6608
 1558TIP3   OH226164   4.176   1.369  14.795  0.3412 -0.2616  0.0090
 1558TIP3    H126165   4.109   1.360  14.863  0.3166 -0.9103 -0.0956
 1558TIP3    H226166   4.246   1.310  14.823  0.6438  0.0235 -0.1514
 1559TIP3   OH226167   1.475   4.248   4.234 -0.3138 -0.8952 -0.3451
 1559TIP3    H126168   1.483   4.302   4.156  1.3502 -0.7093 -0.0808
 1559TIP3    H226169   1.537   4.177   4.220  0.2282 -0.6970  0.9224
 1560TIP3   OH226170   3.696   1.618  12.580  0.1177 -0.2744 -0.5920
 1560TIP3    H126171   3.606   1.594  12.555  0.3343 -1.6019 -0.1948
 1560TIP3    H226172   3.739   1.639  12.497 -0.1532 -1.1390 -0.9701
 1561TIP3   OH226173   3.946   4.164   4.431  0.4053  0.0335 -0.9621
 1561TIP3    H126174   3.920   4.208   4.350 -1.6575  0.5998 -0.0529
 1561TIP3    H226175   3.864   4.151   4.479  1.6133  0.2973  1.3153
 1562TIP3   OH226176   2.767   4.512  13.593 -0.0841  0.3144 -0.0940
 1562TIP3    H126177   2.816   4.556  13.663  0.1998 -1.0527  0.5852
 1562TIP3    H226178   2.676   4.520  13.620 -0.0870  0.9413 -0.2553
 1563TIP3   OH226179   0.928   3.876   3.482  0.1230 -0.4757  0.4946
 1563TIP3    H126180   0.930   3.821   3.560  0.3013 -0.4530  0.5059
 1563TIP3    H226181   0.899   3.817   3.412 -0.2920 -0.4341  0.6260
 1564TIP3   OH226182   6.150   2.255  12.310 -0.3354 -0.2527  0.0965
 1564TIP3    H126183   6.202   2.307  12.370  0.6166 -1.3212  0.2288
 1564TIP3    H226184   6.111   2.319  12.250 -1.5225  0.8612  1.9545
 1565TIP3   OH226185   3.909   4.067   5.219  0.6719 -0.4871  0.1824
 1565TIP3    H126186   3.892   4.141   5.160  0.5392 -0.2247  0.5436
 1565TIP3    H226187   3.973   4.101   5.282 -0.0714 -0.3875  0.9011
 1566TIP3   OH226188   2.164   5.061  13.049 -0.5552 -1.1059  0.1270
 1566TIP3    H126189   2.176   4.973  13.084  2.1582 -1.2111 -0.8102
 1566TIP3    H226190   2.223   5.065  12.973  0.1786  1.8178  0.7373
 1567TIP3   OH226191   0.283   5.666   1.739  0.1702  0.2773  0.0585
 1567TIP3    H126192   0.269   5.672   1.834  1.9940  0.9262  0.3167
 1567TIP3    H226193   0.216   5.604   1.709 -0.5314  0.1673  1.7375
 1568TIP3   OH226194   3.301   5.622   2.154  0.2629  0.1498 -0.0495
 1568TIP3    H126195   3.329   5.712   2.170  0.7825  0.1929 -1.0818
 1568TIP3    H226196   3.248   5.628   2.074  0.9331 -0.5534 -0.5646
 1569TIP3   OH226197   4.057   6.264  11.790  0.0684  0.1380 -0.2042
 1569TIP3    H126198   4.110   6.303  11.721 -0.0341 -1.0102 -0.9677
 1569TIP3    H226199   4.027   6.181  11.753  0.3540 -0.7102  1.3757
 1570TIP3   OH226200   0.185   3.625  15.587 -0.4575 -0.8016  0.9698
 1570TIP3    H126201   0.122   3.621  15.515  0.8963  1.0346 -0.3820
 1570TIP3    H226202   0.136   3.666  15.659 -0.4321  2.3340 -0.6283
 1571TIP3   OH226203   5.138   3.461  11.091  0.1522 -0.7230 -0.0789
 1571TIP3    H126204   5.214   3.505  11.131 -1.1726  2.8595 -1.1373
 1571TIP3    H226205   5.068   3.470  11.155 -0.7033  0.7506 -1.1576
 1572TIP3   OH226206   3.747   0.642   3.077 -0.1793 -0.2918 -0.4589
 1572TIP3    H126207   3.728   0.703   3.006  1.0259  0.0963 -0.4575
 1572TIP3    H226208   3.832   0.669   3.110  0.1833 -1.7189 -0.1795
 1573TIP3   OH226209   6.285   6.423  12.706 -0.1494  0.1013  0.1288
 1573TIP3    H126210   6.258   6.483  12.775  2.5448  2.4403 -0.6637
 1573TIP3    H226211   6.299   6.340  12.751  2.0284  1.6555  2.6306
 1574TIP3   OH226212   5.527   1.773  11.876  0.0358  0.0774 -0.2565
 1574TIP3    H126213   5.586   1.714  11.830 -0.5243 -1.1919  0.6056
 1574TIP3    H226214   5.439   1.743  11.851 -0.2598  0.4371  0.3297
 1575TIP3   OH226215   0.729   3.306  13.935 -0.0227 -0.3868 -0.0190
 1575TIP3    H126216   0.726   3.285  13.842  1.8906  0.2334 -0.2613
 1575TIP3    H226217   0.645   3.274  13.970 -0.3601 -1.5074 -1.7525
 1576TIP3   OH226218   2.430   5.498   2.507  0.2518 -0.4183  0.7385
 1576TIP3    H126219   2.522   5.498   2.536 -0.2303 -0.3953  2.3772
 1576TIP3    H226220   2.406   5.406   2.503  0.0638 -0.3986  1.3114
 1577TIP3   OH226221   1.282   1.939   3.050 -0.2705 -0.5126 -0.2061
 1577TIP3    H126222   1.259   2.023   3.009 -0.5397 -1.1872 -1.5018
 1577TIP3    H226223   1.354   1.960   3.109  0.2194  0.4980 -1.1235
 1578TIP3   OH226224   1.123   2.725   2.045 -0.0070  0.3770 -0.8437
 1578TIP3    H126225   1.157   2.749   1.959 -0.9869  0.6614 -1.1668
 1578TIP3    H226226   1.100   2.808   2.086  1.3945  0.3138  0.1112
 1579TIP3   OH226227   3.241   2.747  11.630  0.0218 -0.2321  0.2548
 1579TIP3    H126228   3.305   2.741  11.700 -0.7106 -0.5318  0.9110
 1579TIP3    H226229   3.204   2.835  11.638  0.4526  0.0015 -0.2275
 1580TIP3   OH226230   2.431   2.140  16.186  0.4550  0.2068 -0.3664
 1580TIP3    H126231   2.443   2.060  16.134 -1.6090  0.5830 -1.5301
 1580TIP3    H226232   2.364   2.117  16.250 -0.4018  1.0523 -0.9272
 1581TIP3   OH226233   6.303   0.546  15.186 -0.1877 -0.4627 -0.3599
 1581TIP3    H126234   6.331   0.548  15.277  0.5253 -0.3908 -0.5727
 1581TIP3    H226235   6.385   0.540  15.136 -0.6177 -2.0606 -0.9382
 1582TIP3   OH226236   4.019   1.540   4.223  0.5755  0.1086  0.3910
 1582TIP3    H126237   3.944   1.481   4.217  0.6819 -0.0376  0.4973
 1582TIP3    H226238   3.985   1.618   4.267  0.1080  0.6638 -0.9122
 1583TIP3   OH226239   6.820   2.872  12.147 -0.1780  0.3070 -0.2972
 1583TIP3    H126240   6.835   2.878  12.241 -1.0163  0.0687 -0.1384
 1583TIP3    H226241   6.733   2.908  12.134 -1.4663 -2.5761 -0.5332
 1584TIP3   OH226242   3.263   3.916  13.226  0.3975  0.3800  0.1813
 1584TIP3    H126243   3.255   3.920  13.131  0.2645 -0.4055  0.1476
 1584TIP3    H226244   3.276   4.006  13.254 -0.4947  0.7406 -0.5063
 1585TIP3   OH226245   4.487   3.780   1.539 -0.2362  0.3979  0.0546
 1585TIP3    H126246   4.465   3.845   1.472  0.8539  0.8184  0.0893
 1585TIP3    H226247   4.404   3.762   1.583 -0.7939  0.8061 -0.7965
 1586TIP3   OH226248   6.814   5.194   1.731 -0.4364  0.0381  0.0342
 1586TIP3    H126249   6.851   5.172   1.816 -1.7719  2.3568  1.3213
 1586TIP3    H226250   6.719   5.192   1.746 -0.8018 -1.4542 -1.9858
 1587TIP3   OH226251   0.635   5.928   1.998  0.4938  0.0808 -0.2772
 1587TIP3    H126252   0.630   5.933   1.902  1.2456  1.8924 -0.2513
 1587TIP3    H226253   0.702   5.862   2.015 -0.5149 -1.1716 -0.9543
 1588TIP3   OH226254   5.645   6.777  14.953 -0.1485  0.1027  0.5871
 1588TIP3    H126255   5.712   6.778  15.021 -0.8116  3.4422  1.3685
 1588TIP3    H226256   5.569   6.736  14.995 -0.4313  1.7881  1.8526
 1589TIP3   OH226257   3.627   6.575   0.952  0.5654 -0.0366  0.6345
 1589TIP3    H126258   3.693   6.616   0.896 -0.6226  1.4598  0.2637
 1589TIP3    H226259   3.676   6.546   1.029  2.0639 -1.2609 -0.7152
 1590TIP3   OH226260   1.627   0.036  12.053  0.6625 -0.0981  0.0602
 1590TIP3    H126261   1.591  -0.047  12.085  0.9768 -0.6582 -1.0038
 1590TIP3    H226262   1.721   0.027  12.067  0.5466  0.9405  1.8641
 1591TIP3   OH226263   3.051   4.593  15.590 -0.5742  0.5623  0.5515
 1591TIP3    H126264   3.072   4.653  15.662 -1.0320  3.1378 -1.3421
 1591TIP3    H226265   2.958   4.608  15.572 -0.5484 -0.2788 -0.4092
 1592TIP3   OH226266   6.105   6.651   1.133 -0.5317  0.3444 -0.7284
 1592TIP3    H126267   6.134   6.583   1.071 -2.3187 -0.9696 -0.2200
 1592TIP3    H226268   6.087   6.602   1.213  1.3896  1.9646  0.7779
 1593TIP3   OH226269   0.135   4.065   1.717 -1.0484  0.0085 -0.4299
 1593TIP3    H126270   0.158   4.154   1.743 -2.1893  0.4361 -0.8248
 1593TIP3    H226271   0.217   4.027   1.687 -0.5825  0.9888 -0.4481
 1594TIP3   OH226272   3.408   2.237   5.808 -0.0458  1.0104 -0.5081
 1594TIP3    H126273   3.395   2.143   5.793 -0.2161  1.0969 -0.8985
 1594TIP3    H226274   3.402   2.276   5.721  1.5473  1.2049 -0.5622
 1595TIP3   OH226275   6.769   2.033   3.071 -0.7814 -0.2467  0.1252
 1595TIP3    H126276   6.763   2.124   3.041 -0.5632  0.5226  2.2652
 1595TIP3    H226277   6.731   1.982   2.999 -1.9295  1.6189 -0.6738
 1596TIP3   OH226278   4.521   4.060  13.689  0.0886  0.5903 -0.3114
 1596TIP3    H126279   4.461   4.056  13.764 -0.6873 -0.0892 -0.9450
 1596TIP3    H226280   4.518   3.973  13.651  1.3280  0.6157 -0.4953
 1597TIP3   OH226281   5.856   2.904  15.659  0.2033 -0.6872 -0.1586
 1597TIP3    H126282   5.801   2.961  15.605  1.1214 -0.1620 -0.5523
 1597TIP3    H226283   5.875   2.956  15.737  2.1283  0.0821 -1.0992
 1598TIP3   OH226284   5.187   0.155  14.479 -0.1290 -0.2496 -0.1067
 1598TIP3    H126285   5.146   0.241  14.492  1.4490  0.4655  0.4007
 1598TIP3    H226286   5.272   0.175  14.439  0.2677 -1.5842  0.0179
 1599TIP3   OH226287   4.215   3.422  11.521 -0.7335  0.0056 -0.2364
 1599TIP3    H126288   4.195   3.422  11.615  0.6051 -1.8064  0.1120
 1599TIP3    H226289   4.156   3.355  11.485 -0.9951  0.4485 -0.6358
 1600TIP3   OH226290   4.693   1.380  11.950 -0.2467 -0.0364 -0.0897
 1600TIP3    H126291   4.689   1.445  11.880 -0.5790  0.8747  0.7595
 1600TIP3    H226292   4.626   1.407  12.012  0.4483 -0.4799  0.8777
 1601TIP3   OH226293   5.251   2.778  12.231  0.0711 -0.2275 -0.7208
 1601TIP3    H126294   5.236   2.862  12.274  1.3566 -0.4237  0.1691
 1601TIP3    H226295   5.266   2.717  12.304 -2.1874 -1.5443 -1.2685
 1602TIP3   OH226296   5.802   6.564   3.183  0.6920  0.0356 -0.7346
 1602TIP3    H126297   5.732   6.511   3.144  1.1245 -0.3430 -1.0067
 1602TIP3    H226298   5.790   6.651   3.146  0.8079 -0.2077 -1.3523
 1603TIP3   OH226299   6.773   4.468  15.761 -0.0571  0.0801 -0.4279
 1603TIP3    H126300   6.857   4.421  15.768  0.5697  1.1421 -0.6079
 1603TIP3    H226301   6.797   4.560  15.762 -1.1276  0.4051 -1.5959
 1604TIP3   OH226302   0.501   6.024   1.465 -0.0129 -0.4505  0.2945
 1604TIP3    H126303   0.575   6.049   1.410 -0.3298 -0.7566 -0.2767
 1604TIP3    H226304   0.426   6.023   1.406 -0.4482 -0.2997  0.8350
 1605TIP3   OH226305   0.753   2.357   2.646  0.2518 -0.2649  0.2954
 1605TIP3    H126306   0.688   2.291   2.618  1.2498 -1.2793  0.3035
 1605TIP3    H226307   0.747   2.426   2.580  0.1964 -1.0393 -0.5279
 1606TIP3   OH226308   0.346   6.431   1.920  0.0077  0.1829 -0.3752
 1606TIP3    H126309   0.349   6.360   1.984 -1.9969 -0.4050 -0.8648
 1606TIP3    H226310   0.279   6.491   1.954 -0.5110  0.2708 -1.4910
 1607TIP3   OH226311   2.130   4.571  16.888 -0.2852 -0.3589  0.0802
 1607TIP3    H126312   2.218   4.593  16.918 -0.6445  0.9294  0.2829
 1607TIP3    H226313   2.079   4.651  16.904 -1.3858 -0.9317 -0.4394
 1608TIP3   OH226314   4.729   4.676   0.396  0.2275 -0.0422  0.5627
 1608TIP3    H126315   4.697   4.706   0.311  0.9516 -0.0524  0.2746
 1608TIP3    H226316   4.769   4.591   0.377  1.0747  0.3044  0.7674
 1609TIP3   OH226317   0.463   4.372  16.851  0.6037  0.1315 -0.3424
 1609TIP3    H126318   0.414   4.444  16.892 -0.7942  1.2706 -3.6804
 1609TIP3    H226319   0.505   4.412  16.775  0.1177 -2.4512 -2.1079
 1610TIP3   OH226320   5.949   2.788   3.734 -0.4121  0.3738 -0.0090
 1610TIP3    H126321   5.883   2.854   3.754 -0.6637 -0.9054  4.8055
 1610TIP3    H226322   6.033   2.834   3.744 -0.6084  0.5265  1.1133
 1611TIP3   OH226323   3.495   1.019  15.740 -0.2723  0.7422  0.1208
 1611TIP3    H126324   3.586   1.014  15.770 -0.1594 -2.2143 -0.4141
 1611TIP3    H226325   3.447   0.961  15.800 -1.4392  0.7888 -0.7376
 1612TIP3   OH226326   3.712   5.382   3.711 -0.3290  0.2645  0.0740
 1612TIP3    H126327   3.623   5.353   3.691 -0.4652  0.4634  0.3926
 1612TIP3    H226328   3.759   5.302   3.734 -0.4368  0.1672 -0.0432
 1613TIP3   OH226329   6.547   1.912   0.928 -0.1296 -0.4369  0.1044
 1613TIP3    H126330   6.545   1.926   1.023  1.6342  0.5804  0.0395
 1613TIP3    H226331   6.559   1.818   0.918  1.5688 -0.3566  0.9776
 1614TIP3   OH226332   4.735   3.211  11.218 -0.3616  0.2290  0.7344
 1614TIP3    H126333   4.767   3.155  11.148 -1.4904 -1.7428  1.6835
 1614TIP3    H226334   4.654   3.249  11.184 -2.0762 -2.3784  1.5273
 1615TIP3   OH226335   1.255   6.699  16.981 -0.4047 -0.1767 -0.4884
 1615TIP3    H126336   1.313   6.704  16.905 -0.3074 -0.0184 -0.4044
 1615TIP3    H226337   1.167   6.707  16.945 -0.3550 -0.0216 -0.5794
 1616TIP3   OH226338   0.153   4.336  15.214 -0.1249  0.3026  0.2184
 1616TIP3    H126339   0.137   4.417  15.261 -0.2725 -0.1620  0.9905
 1616TIP3    H226340   0.247   4.321  15.222  0.1673  1.1537 -1.2107
 1617TIP3   OH226341   5.758   6.310  12.535  0.0308  0.0635  0.1883
 1617TIP3    H126342   5.850   6.323  12.555  0.5329 -1.0449 -1.1650
 1617TIP3    H226343   5.757   6.232  12.479 -1.5946  0.7388 -0.8093
 1618TIP3   OH226344   0.406   6.457   4.830 -0.4998 -0.4282  0.4830
 1618TIP3    H126345   0.378   6.549   4.831 -0.5532 -0.4506  1.0370
 1618TIP3    H226346   0.484   6.455   4.885 -0.0317 -0.5738 -0.1685
 1619TIP3   OH226347   3.796   4.516  12.099 -0.3644 -0.4911  0.3944
 1619TIP3    H126348   3.782   4.494  12.191 -2.5468  0.3540  0.3223
 1619TIP3    H226349   3.819   4.609  12.100  1.5438 -0.9235  0.1829
 1620TIP3   OH226350   1.233   5.075   1.934  0.3836 -0.1468  1.1017
 1620TIP3    H126351   1.148   5.080   1.890  1.2883  0.3996 -0.6728
 1620TIP3    H226352   1.230   4.992   1.981 -1.1415 -0.1221  1.1093
 1621TIP3   OH226353   5.704   0.372  11.706  0.4153  0.1114 -0.3661
 1621TIP3    H126354   5.691   0.397  11.798  3.0311  2.7203 -0.5566
 1621TIP3    H226355   5.777   0.311  11.708  0.6535  0.3800 -0.7163
 1622TIP3   OH226356   2.718   4.643   4.479  0.0214  0.2151  0.0289
 1622TIP3    H126357   2.726   4.691   4.562  2.8771  0.9502 -0.5444
 1622TIP3    H226358   2.736   4.709   4.412  1.0027 -0.9999 -0.9538
 1623TIP3   OH226359   1.142   5.048  13.911 -0.2667 -0.2368  0.4997
 1623TIP3    H126360   1.147   5.050  14.007  0.1443 -0.0911  0.4765
 1623TIP3    H226361   1.158   4.956  13.888  0.3174 -0.1465  0.5369
 1624TIP3   OH226362   5.181   3.539  16.668 -0.2716  0.0160 -0.6388
 1624TIP3    H126363   5.217   3.485  16.597  1.6196  0.4498 -0.0502
 1624TIP3    H226364   5.204   3.492  16.748  1.1035  1.4738 -0.1298
 1625TIP3   OH226365   3.577   1.179  15.084 -0.2808 -0.1057 -1.1037
 1625TIP3    H126366   3.528   1.097  15.070  0.4584 -0.5863 -0.8894
 1625TIP3    H226367   3.592   1.212  14.995 -1.5083  0.3709 -1.1644
 1626TIP3   OH226368   2.315   5.599  13.008  0.0740  0.8403  0.0210
 1626TIP3    H126369   2.308   5.674  13.066  1.0244  0.1407  1.0915
 1626TIP3    H226370   2.331   5.636  12.921  1.7379  1.8682  0.7293
 1627TIP3   OH226371   6.076   4.205   0.876  0.0671 -0.1039  0.0524
 1627TIP3    H126372   6.040   4.121   0.905  1.0633 -0.2102  1.0611
 1627TIP3    H226373   6.021   4.231   0.802 -1.0527 -1.0183  0.5385
 1628TIP3   OH226374   5.565   3.894   0.086  0.3979  0.3556  0.4132
 1628TIP3    H126375   5.519   3.819   0.049  1.1210  0.5717 -0.9774
 1628TIP3    H226376   5.529   3.970   0.040  2.3115  0.5050 -0.9712
 1629TIP3   OH226377   2.017   3.674  16.096 -0.0616 -0.6045  0.2405
 1629TIP3    H126378   1.991   3.708  16.181  0.5012  0.5338 -0.0172
 1629TIP3    H226379   2.054   3.750  16.050 -1.5922 -0.8626 -1.5355
 1630TIP3   OH226380   1.542   1.227  11.959 -0.6123 -0.1225  0.1032
 1630TIP3    H126381   1.494   1.188  12.032  2.3245 -2.0970  1.1895
 1630TIP3    H226382   1.507   1.183  11.882 -1.5424 -0.4271  0.6782
 1631TIP3   OH226383   0.975   5.726   3.423  0.2086  0.3569  0.2588
 1631TIP3    H126384   0.933   5.709   3.507  0.0504  0.0337  0.1147
 1631TIP3    H226385   1.069   5.712   3.440  0.1200 -0.3143  0.2330
 1632TIP3   OH226386   3.744   5.018   1.807  0.3004 -0.0446  0.0824
 1632TIP3    H126387   3.791   4.959   1.747  0.7141 -0.8274  1.1432
 1632TIP3    H226388   3.805   5.034   1.878 -0.3478  0.4930  0.5347
 1633TIP3   OH226389   2.953   1.025  13.372  0.2424  0.8978  0.3432
 1633TIP3    H126390   2.918   1.096  13.319  0.2851  0.1262 -0.7499
 1633TIP3    H226391   3.041   1.010  13.339  1.4927  2.4260  2.6878
 1634TIP3   OH226392   5.290   5.092  11.466 -0.5137 -0.2234 -0.1627
 1634TIP3    H126393   5.235   5.168  11.448  1.1757  1.3090  0.8842
 1634TIP3    H226394   5.289   5.042  11.384 -0.2818  1.8163 -1.4883
 1635TIP3   OH226395   5.230   6.784  12.487 -0.1394  0.7005 -0.4487
 1635TIP3    H126396   5.144   6.807  12.452  1.0613  1.5273 -3.1677
 1635TIP3    H226397   5.218   6.781  12.582 -3.0083  1.3063 -0.7111
 1636TIP3   OH226398   5.209   6.014   3.019 -0.0024 -0.1193  0.3628
 1636TIP3    H126399   5.129   6.043   2.976 -0.5395 -0.1054  1.3502
 1636TIP3    H226400   5.261   6.093   3.028  0.1138 -0.1197 -0.2374
 1637TIP3   OH226401   4.605   1.945   3.849 -0.2406 -0.4402  0.0597
 1637TIP3    H126402   4.578   1.929   3.939  1.0312 -0.2598  0.5061
 1637TIP3    H226403   4.576   1.868   3.800 -2.5161  0.2475  0.2310
 1638TIP3   OH226404   3.774   0.789  15.248 -0.2407  0.3341  0.0152
 1638TIP3    H126405   3.756   0.703  15.286  1.0989 -0.3709 -0.8993
 1638TIP3    H226406   3.809   0.840  15.321 -0.2571 -0.1429  0.3642
 1639TIP3   OH226407   0.735   4.683   2.516 -0.4304  0.2645  0.7053
 1639TIP3    H126408   0.761   4.591   2.530  0.5103  0.5552  0.9251
 1639TIP3    H226409   0.673   4.679   2.443 -0.2015 -0.5188  0.5435
 1640TIP3   OH226410   4.689   4.181  13.162  0.0173 -0.6478 -0.0570
 1640TIP3    H126411   4.727   4.160  13.077  1.5759 -1.2699  0.7527
 1640TIP3    H226412   4.691   4.276  13.167  2.7007 -0.6473  0.4274
 1641TIP3   OH226413   0.350   3.467   1.013  0.9699  0.4262 -0.3058
 1641TIP3    H126414   0.404   3.473   0.935 -1.1339  0.0136 -1.8663
 1641TIP3    H226415   0.324   3.558   1.031 -0.8981  0.2776 -1.9018
 1642TIP3   OH226416   1.685   3.006   2.122 -0.2937  0.2256 -0.4915
 1642TIP3    H126417   1.769   3.031   2.162 -0.9510  1.4149  0.2098
 1642TIP3    H226418   1.677   3.062   2.045 -0.5188  0.2378 -0.4609
 1643TIP3   OH226419   0.126   4.614  15.970  0.1815  0.2074  0.0131
 1643TIP3    H126420   0.210   4.658  15.958  0.3209 -0.0096  0.1742
 1643TIP3    H226421   0.061   4.675  15.935  0.4892 -0.0319 -1.0005
 1644TIP3   OH226422   5.279   5.946   4.430  0.4813  0.2202 -0.3735
 1644TIP3    H126423   5.310   5.870   4.480  0.5297 -0.2497 -1.0939
 1644TIP3    H226424   5.192   5.920   4.399  0.1953  0.7511 -0.0059
 1645TIP3   OH226425   4.229   3.382   3.204 -0.1575 -0.0451 -0.4037
 1645TIP3    H126426   4.313   3.393   3.248 -0.4955 -0.6090  0.4042
 1645TIP3    H226427   4.170   3.444   3.248  0.0234  0.9448 -1.5161
 1646TIP3   OH226428   3.775   2.438  15.343  0.3480 -0.0387  0.1089
 1646TIP3    H126429   3.731   2.501  15.401  0.9052 -0.3632  0.8815
 1646TIP3    H226430   3.833   2.493  15.289  0.0381  0.2295  0.0413
 1647TIP3   OH226431   5.716   1.022   4.209  0.8983  0.1127 -0.0567
 1647TIP3    H126432   5.794   0.985   4.168  0.0496 -1.2995 -0.4577
 1647TIP3    H226433   5.689   1.093   4.151  1.9464  0.7074  0.1656
 1648TIP3   OH226434   1.565   6.374   3.268  0.2020  0.1089 -0.3006
 1648TIP3    H126435   1.501   6.409   3.206  1.1430  0.0021 -1.3628
 1648TIP3    H226436   1.528   6.290   3.296 -0.9151  0.8044  0.4202
 1649TIP3   OH226437   3.323   4.787   0.981  0.3526 -0.2446 -0.2245
 1649TIP3    H126438   3.234   4.821   0.978  0.5943  0.3426 -2.0067
 1649TIP3    H226439   3.368   4.844   1.043 -0.2229  0.1998 -0.2040
 1650TIP3   OH226440   1.417   0.212  12.985 -0.3574  0.0357  0.3879
 1650TIP3    H126441   1.382   0.268  12.915 -0.3208 -0.3662  0.0469
 1650TIP3    H226442   1.436   0.129  12.942 -0.1625 -0.1552  0.8402
 1651TIP3   OH226443   5.485   1.293   3.726  0.4192 -0.0084 -0.0773
 1651TIP3    H126444   5.575   1.309   3.698  0.1780 -0.3492 -1.0903
 1651TIP3    H226445   5.435   1.285   3.645 -0.4481 -0.2862  0.4634
 1652TIP3   OH226446   0.437   4.853   6.081  0.2154  0.2001  0.1138
 1652TIP3    H126447   0.444   4.784   6.015  1.9247  0.8151 -0.4081
 1652TIP3    H226448   0.368   4.911   6.048  1.1778  0.6075 -1.2830
 1653TIP3   OH226449   1.970   4.850  15.701 -0.5640 -0.2929  0.3031
 1653TIP3    H126450   2.002   4.772  15.656  0.4577  0.3409 -0.1060
 1653TIP3    H226451   1.943   4.909  15.630 -3.0913 -0.9427  0.6259
 1654TIP3   OH226452   6.166   1.227   0.785 -0.7273  0.2502  0.0823
 1654TIP3    H126453   6.095   1.175   0.747 -0.2283 -0.9990  0.7926
 1654TIP3    H226454   6.238   1.217   0.723  0.4877 -2.7697  1.7233
 1655TIP3   OH226455   3.205   0.008  12.543 -0.9818 -0.6053  0.1092
 1655TIP3    H126456   3.138   0.070  12.516 -0.3295  0.5362  1.0355
 1655TIP3    H226457   3.230   0.036  12.630  1.4034 -0.3901 -0.5805
 1656TIP3   OH226458   0.964   0.704   1.156 -0.2023 -0.1188  0.4121
 1656TIP3    H126459   0.985   0.613   1.133  1.3883  0.1013  0.8721
 1656TIP3    H226460   0.917   0.697   1.239  1.3894 -0.4730  1.3318
 1657TIP3   OH226461   0.704   5.951  11.894 -0.5395  0.0271  0.2506
 1657TIP3    H126462   0.749   5.885  11.842 -0.0628  0.5375 -0.0004
 1657TIP3    H226463   0.659   5.902  11.962 -0.5357 -0.5873 -0.1839
 1658TIP3   OH226464   6.799   6.193   3.037 -0.4985 -0.4149  0.1223
 1658TIP3    H126465   6.829   6.266   2.984 -2.4339  0.6764  0.4185
 1658TIP3    H226466   6.874   6.134   3.041  0.9735  1.2934 -0.5598
 1659TIP3   OH226467   1.204   6.705   0.513 -0.4668 -0.3686  0.1987
 1659TIP3    H126468   1.199   6.610   0.521 -1.8368 -0.6704 -2.8386
 1659TIP3    H226469   1.144   6.738   0.580  0.5775 -1.5219  1.7947
 1660TIP3   OH226470   6.767   3.885   0.129  0.0150 -0.5380  0.3040
 1660TIP3    H126471   6.674   3.907   0.142  0.0864 -1.2106  2.2606
 1660TIP3    H226472   6.814   3.951   0.180  0.6027 -0.5682 -0.1946
 1661TIP3   OH226473   2.876   2.892   2.792 -0.1592 -0.2544  0.3084
 1661TIP3    H126474   2.947   2.895   2.729  0.5851  0.5303  1.1442
 1661TIP3    H226475   2.913   2.846   2.868 -1.1626 -1.5500  0.0537
 1662TIP3   OH226476   1.687   2.538   3.721 -0.1448 -0.1665  0.1513
 1662TIP3    H126477   1.733   2.568   3.799 -0.1694 -1.4568  0.6738
 1662TIP3    H226478   1.749   2.553   3.649  0.4347 -0.3340  0.6181
 1663TIP3   OH226479   4.041   1.877  12.959 -0.4694 -0.1811  0.4234
 1663TIP3    H126480   3.996   1.936  13.020 -1.1046 -1.0524  0.8062
 1663TIP3    H226481   4.134   1.891  12.977 -0.6447 -0.9688  2.1389
 1664TIP3   OH226482   1.672   2.470   2.382  0.4368 -0.8234  0.2970
 1664TIP3    H126483   1.676   2.440   2.291  1.9536  0.5231 -0.1309
 1664TIP3    H226484   1.695   2.563   2.377 -2.1625 -0.0059  1.7689
 1665TIP3   OH226485   3.554   6.401   4.236 -0.2061  0.4094  0.8099
 1665TIP3    H126486   3.518   6.317   4.266 -1.4254  0.5135 -0.3025
 1665TIP3    H226487   3.551   6.395   4.141  3.1001  0.2786  0.5884
 1666TIP3   OH226488   6.461   1.678   5.036 -0.3845  0.5878 -0.1914
 1666TIP3    H126489   6.386   1.726   5.001 -0.5230  1.3075  1.0392
 1666TIP3    H226490   6.505   1.643   4.959 -0.5804  2.2567 -1.1028
 1667TIP3   OH226491   0.313   5.414  17.073  0.0391 -1.0734 -0.1109
 1667TIP3    H126492   0.259   5.455  17.006  0.0334 -1.0608 -0.0985
 1667TIP3    H226493   0.251   5.389  17.142  0.1516 -0.2578  0.3088
 1668TIP3   OH226494   0.935   6.687   2.699  0.6643  0.2740  0.1639
 1668TIP3    H126495   0.909   6.604   2.658  1.0311 -0.4406  1.3263
 1668TIP3    H226496   0.853   6.726   2.729  0.5472  0.0358  0.1505
 1669TIP3   OH226497   6.627   4.858   5.274  0.4708  0.0650  0.2536
 1669TIP3    H126498   6.626   4.771   5.234 -0.8110 -0.2150  0.8353
 1669TIP3    H226499   6.565   4.909   5.222  2.7923  1.3489 -1.4706
 1670TIP3   OH226500   6.041   5.691   6.045 -0.5548 -0.2782  0.3200
 1670TIP3    H126501   6.027   5.720   5.955  1.2108  0.4825  0.2469
 1670TIP3    H226502   6.077   5.768   6.089  0.1028 -1.1001  1.2599
 1671TIP3   OH226503   3.718   5.954   0.556 -0.2359 -0.7641  0.2563
 1671TIP3    H126504   3.736   5.899   0.479 -1.1103 -1.1919  0.3418
 1671TIP3    H226505   3.804   5.989   0.580  0.0816 -0.7418 -0.8188
 1672TIP3   OH226506   4.554   5.687   4.342 -0.0709 -0.4137  0.8390
 1672TIP3    H126507   4.593   5.645   4.419  0.5799 -1.1094  0.1573
 1672TIP3    H226508   4.460   5.691   4.361 -0.0375 -1.4376  1.2758
 1673TIP3   OH226509   6.778   0.381   3.136  0.6967  0.2577  0.7927
 1673TIP3    H126510   6.832   0.327   3.078  2.6507  1.4537  1.3984
 1673TIP3    H226511   6.709   0.322   3.167  0.6589 -0.8915 -1.2891
 1674TIP3   OH226512   3.362   5.109  15.380  0.2504 -0.4363 -0.1698
 1674TIP3    H126513   3.395   5.187  15.335  0.9196 -0.1287  0.8272
 1674TIP3    H226514   3.429   5.090  15.446 -1.4222  0.0610  1.7536
 1675TIP3   OH226515   2.416   4.417  13.003  0.3407  0.0084  0.1449
 1675TIP3    H126516   2.431   4.415  13.097  1.0586  0.1720  0.0328
 1675TIP3    H226517   2.472   4.349  12.967 -1.4788 -1.5335  0.0270
 1676TIP3   OH226518   0.026   3.185  14.365  0.6992 -0.2039 -0.0734
 1676TIP3    H126519  -0.036   3.133  14.314 -0.2771 -0.0376  0.9076
 1676TIP3    H226520  -0.005   3.177  14.455  2.4310 -0.5422  0.5130
 1677TIP3   OH226521   5.907   2.433   0.104 -0.1312 -0.1403 -0.1696
 1677TIP3    H126522   5.899   2.449   0.010 -1.0112 -0.5981 -0.1808
 1677TIP3    H226523   5.983   2.485   0.131 -0.4283  0.7136 -0.9564
 1678TIP3   OH226524   2.209   6.081   2.432  0.3781  0.3639  0.6811
 1678TIP3    H126525   2.146   6.152   2.439 -0.5132 -0.2410 -0.7786
 1678TIP3    H226526   2.238   6.083   2.341  0.5023 -0.9823  0.6615
 1679TIP3   OH226527   2.999   0.052  12.036 -0.2832  0.1648 -0.1659
 1679TIP3    H126528   3.021  -0.004  12.111  2.8045  1.3717 -0.0244
 1679TIP3    H226529   2.920   0.097  12.063  0.6893  0.4934  2.3959
 1680TIP3   OH226530   3.270   5.913   4.714  0.2173 -0.2389  0.3057
 1680TIP3    H126531   3.278   5.825   4.750 -0.6818 -0.5343 -0.1895
 1680TIP3    H226532   3.229   5.900   4.629 -2.0937  0.8300  1.1754
 1681TIP3   OH226533   5.278   6.135  12.305  0.5873  0.5278 -0.2413
 1681TIP3    H126534   5.328   6.059  12.274 -0.7898 -0.8325  0.7348
 1681TIP3    H226535   5.238   6.105  12.387 -0.4036  2.1454 -0.1034
 1682TIP3   OH226536   6.149   5.532  11.597  0.1442 -0.7309  0.2704
 1682TIP3    H126537   6.240   5.560  11.605 -0.3270  0.9443  0.1352
 1682TIP3    H226538   6.154   5.436  11.594  1.8786 -0.6826  0.3685
 1683TIP3   OH226539   1.073   3.642  14.356 -0.2706  0.3500 -0.2335
 1683TIP3    H126540   1.135   3.663  14.426  1.1326 -1.1490 -0.9627
 1683TIP3    H226541   1.056   3.725  14.312  1.2887  0.7912 -0.0532
 1684TIP3   OH226542   0.334   2.390   3.701 -0.4143 -0.4172 -0.1143
 1684TIP3    H126543   0.267   2.334   3.741 -0.5440  0.7836  1.4240
 1684TIP3    H226544   0.335   2.363   3.609 -0.3745 -3.0232  0.5736
 1685TIP3   OH226545   5.737   1.601  12.634 -0.6382  0.3025  0.0324
 1685TIP3    H126546   5.759   1.586  12.726  0.1936 -1.1991 -0.3833
 1685TIP3    H226547   5.731   1.513  12.597 -1.5669  0.8751 -1.2243
 1686TIP3   OH226548   0.948   4.848   4.993  0.2436 -0.0010 -0.1764
 1686TIP3    H126549   0.905   4.824   5.075 -2.1990 -0.4902 -1.5174
 1686TIP3    H226550   0.915   4.936   4.974  2.4864  1.0330  0.3853
 1687TIP3   OH226551   0.478   6.778  10.867 -0.3121 -0.2042  0.0217
 1687TIP3    H126552   0.462   6.843  10.799 -0.6313  1.5916  1.7292
 1687TIP3    H226553   0.429   6.701  10.839 -0.7028  0.5990 -1.5945
 1688TIP3   OH226554   2.137   0.177  13.980  0.2684 -0.4356  0.1944
 1688TIP3    H126555   2.090   0.188  14.063 -0.4124  0.3263 -0.2614
 1688TIP3    H226556   2.084   0.227  13.917  1.1673 -0.3981 -0.5464
 1689TIP3   OH226557   4.036   5.301  14.996  0.5823 -0.1695  0.0588
 1689TIP3    H126558   4.080   5.383  15.019  1.8582 -0.9643  0.5543
 1689TIP3    H226559   3.988   5.321  14.916  1.2925  0.9192 -0.1094
 1690TIP3   OH226560   3.530   4.333  14.179  0.5181  0.5811  0.0883
 1690TIP3    H126561   3.621   4.334  14.149  0.9750 -1.1089  1.2768
 1690TIP3    H226562   3.497   4.247  14.155  0.2071  0.0235  2.3035
 1691TIP3   OH226563   0.782   0.572  14.868  0.6359 -0.0569  0.7906
 1691TIP3    H126564   0.728   0.493  14.859  0.3162  0.1672  0.7142
 1691TIP3    H226565   0.808   0.573  14.960  0.0509  0.1259  0.9577
 1692TIP3   OH226566   3.996   3.250  11.467  0.1004 -0.2649 -0.1143
 1692TIP3    H126567   4.038   3.164  11.474  0.5596 -0.1125 -0.9363
 1692TIP3    H226568   3.917   3.242  11.521  1.1996 -0.5276  1.5288
 1693TIP3   OH226569   4.724   6.583  15.620  0.6092 -0.1666 -0.2709
 1693TIP3    H126570   4.769   6.659  15.657 -2.5427  2.3506 -1.2139
 1693TIP3    H226571   4.787   6.546  15.559  2.4082  1.4126  0.5233
 1694TIP3   OH226572   4.023   4.284   1.167 -0.0071 -0.4584 -0.4308
 1694TIP3    H126573   3.957   4.350   1.149 -1.1544 -1.1928  0.9122
 1694TIP3    H226574   4.049   4.299   1.258  2.2564  0.2728 -1.1200
 1695TIP3   OH226575   5.914   3.796  16.847  0.1988  0.3622 -0.4208
 1695TIP3    H126576   5.990   3.755  16.803  0.4948  2.5095 -2.0947
 1695TIP3    H226577   5.851   3.809  16.776 -1.0297  0.2175  0.6274
 1696TIP3   OH226578   2.931   4.455   4.593 -0.4353 -0.7001 -0.1076
 1696TIP3    H126579   2.922   4.378   4.536 -1.0540  0.2347 -1.3082
 1696TIP3    H226580   2.897   4.528   4.541  0.7819  0.5220  0.7465
 1697TIP3   OH226581   1.065   0.264   2.366 -0.1106  0.3002 -0.0633
 1697TIP3    H126582   1.084   0.342   2.313 -1.7810  0.0996 -1.0231
 1697TIP3    H226583   1.021   0.299   2.444 -1.3924  0.3219 -0.7622
 1698TIP3   OH226584   1.773   2.538   0.966  0.4421  0.8034 -0.1691
 1698TIP3    H126585   1.858   2.577   0.944  1.2883 -0.1570  1.2715
 1698TIP3    H226586   1.749   2.578   1.050 -0.1748  0.5075 -0.1992
 1699TIP3   OH226587   1.494   4.832   2.951 -0.0963  0.6769  0.0777
 1699TIP3    H126588   1.539   4.890   3.013 -2.3586  0.8609  1.7030
 1699TIP3    H226589   1.411   4.877   2.933 -1.0265 -1.0705 -0.2325
 1700TIP3   OH226590   4.829   4.990  12.067  0.1518  0.0921  0.1765
 1700TIP3    H126591   4.869   5.033  11.991 -0.6612  0.4330 -0.0699
 1700TIP3    H226592   4.850   5.047  12.141 -0.4040  0.6033 -0.0531
 1701TIP3   OH226593   1.193   0.529  12.734 -0.1105  0.2461  0.6264
 1701TIP3    H126594   1.152   0.609  12.702 -2.1849 -0.9046  0.2524
 1701TIP3    H226595   1.212   0.547  12.826  0.5217  1.5444  0.2651
 1702TIP3   OH226596   1.303   2.395  15.839 -0.7152 -0.0902  0.0387
 1702TIP3    H126597   1.240   2.441  15.784 -0.5633  0.4866  0.3367
 1702TIP3    H226598   1.342   2.329  15.782  0.1016  1.0914 -0.8068
 1703TIP3   OH226599   6.610   2.334   0.980 -0.1573  0.6850 -0.0775
 1703TIP3    H126600   6.605   2.428   1.001  0.1169  0.2670  2.1209
 1703TIP3    H226601   6.533   2.296   1.022  0.7241 -0.3138  0.6777
 1704TIP3   OH226602   3.222   2.655  14.047  0.2176 -0.0929  0.0279
 1704TIP3    H126603   3.133   2.623  14.033  0.0252  0.7075 -0.6166
 1704TIP3    H226604   3.274   2.610  13.981 -0.0514  0.8686 -0.8691
 1705TIP3   OH226605   6.460   0.472   4.700 -0.2122 -0.3476  0.2452
 1705TIP3    H126606   6.511   0.543   4.661  1.4475 -1.1032  0.9134
 1705TIP3    H226607   6.373   0.509   4.714  0.3809  1.2840 -0.1494
 1706TIP3   OH226608   1.741   4.684  16.630 -0.5697  0.6915  0.5515
 1706TIP3    H126609   1.807   4.617  16.649 -0.7368  0.8044  1.6058
 1706TIP3    H226610   1.782   4.741  16.566  0.2920  0.6516  1.0568
 1707TIP3   OH226611   1.108   3.868   1.158 -1.1506  0.1409  0.4084
 1707TIP3    H126612   1.138   3.958   1.169  3.0136 -0.9934 -0.1164
 1707TIP3    H226613   1.091   3.860   1.064  1.5020 -0.2858 -0.1193
 1708TIP3   OH226614   1.662   2.499  17.084 -0.3640  0.1918  0.4970
 1708TIP3    H126615   1.611   2.429  17.126 -0.5438 -1.4436 -2.2155
 1708TIP3    H226616   1.601   2.572  17.077 -1.7966 -1.0756 -0.9426
 1709TIP3   OH226617   2.079   2.211  16.911 -0.3994 -0.1047 -0.0901
 1709TIP3    H126618   1.993   2.185  16.876 -0.2476  0.4731 -0.9229
 1709TIP3    H226619   2.058   2.261  16.990 -0.8486  0.2362 -0.4151
 1710TIP3   OH226620   4.761   1.496  11.226 -0.2980 -0.2736  0.7107
 1710TIP3    H126621   4.729   1.540  11.305  2.9855 -1.0998  2.6926
 1710TIP3    H226622   4.736   1.405  11.237  2.7505 -1.0441  2.5576
 1711TIP3   OH226623   6.637   3.618   4.302  0.0704 -0.7767 -0.5044
 1711TIP3    H126624   6.652   3.645   4.211  0.4979  1.4626  0.1648
 1711TIP3    H226625   6.547   3.644   4.319  0.6561  0.8260  0.3206
 1712TIP3   OH226626   3.151   1.093   4.641 -0.0619 -0.5204 -0.0072
 1712TIP3    H126627   3.135   1.159   4.573 -1.1456  2.5147  2.9370
 1712TIP3    H226628   3.074   1.036   4.638 -0.6987  0.3412 -0.5240
 1713TIP3   OH226629   0.199   4.732  11.904 -0.6740 -0.2672 -0.1883
 1713TIP3    H126630   0.228   4.823  11.907 -1.7139  0.0729  1.6704
 1713TIP3    H226631   0.198   4.709  11.812  1.7317  0.8819 -0.5611
 1714TIP3   OH226632   1.289   0.128   2.819  0.0876  0.4387  0.3990
 1714TIP3    H126633   1.260   0.089   2.737  0.0697  1.6042 -0.1635
 1714TIP3    H226634   1.385   0.127   2.813  0.2514 -2.5798  1.8658
 1715TIP3   OH226635   0.901   4.244   3.198  0.3714 -0.4212  0.0283
 1715TIP3    H126636   0.814   4.258   3.237 -0.2088 -2.4354 -0.4332
 1715TIP3    H226637   0.884   4.196   3.118  1.8559  0.2797 -0.7433
 1716TIP3   OH226638   6.678   6.184   4.485  0.3098  0.3120 -0.1903
 1716TIP3    H126639   6.630   6.107   4.515 -1.0183  1.5715  1.0430
 1716TIP3    H226640   6.619   6.227   4.423  0.6839  0.7832 -0.2255
 1717TIP3   OH226641   6.095   1.424   5.692 -0.1131  0.0811 -0.2928
 1717TIP3    H126642   6.054   1.400   5.775 -0.1654  1.6084  0.1699
 1717TIP3    H226643   6.185   1.449   5.716 -0.3557  1.2587 -0.5560
 1718TIP3   OH226644   1.526   1.690  14.332 -0.1602 -0.2888  0.1193
 1718TIP3    H126645   1.514   1.604  14.293 -0.0580  0.1402 -0.8734
 1718TIP3    H226646   1.568   1.742  14.264 -0.1486  0.5291  0.7355
 1719TIP3   OH226647   3.669   6.288   0.256  0.1549 -0.4739 -0.4225
 1719TIP3    H126648   3.598   6.230   0.285 -0.0812  0.0985  0.1567
 1719TIP3    H226649   3.679   6.352   0.327  0.7355 -0.0875 -0.8426
 1720TIP3   OH226650   0.288   6.436  16.728  0.4534  0.6061  0.0108
 1720TIP3    H126651   0.315   6.344  16.736  1.5791  1.0503  2.2425
 1720TIP3    H226652   0.295   6.455  16.635  0.1702 -1.5744 -0.5120
 1721TIP3   OH226653   3.882   4.628  11.597  0.1719 -0.3825 -0.0027
 1721TIP3    H126654   3.861   4.646  11.505  1.9203  0.1722 -0.3383
 1721TIP3    H226655   3.917   4.539  11.596 -2.0513 -1.3235  0.5578
 1722TIP3   OH226656   1.371   6.328   5.803 -0.9098 -0.5706  0.1609
 1722TIP3    H126657   1.410   6.267   5.865 -1.2001 -1.3748 -0.4174
 1722TIP3    H226658   1.405   6.300   5.718 -1.4467 -0.2440 -0.1664
 1723TIP3   OH226659   4.282   1.848  14.678  0.2225 -0.3306  0.0931
 1723TIP3    H126660   4.366   1.867  14.721  1.1052 -1.9587 -0.8119
 1723TIP3    H226661   4.292   1.759  14.645 -0.8233  0.4371 -2.5162
 1724TIP3   OH226662   5.153   2.977   4.212 -0.2969 -0.2410 -0.0814
 1724TIP3    H126663   5.184   2.917   4.280 -1.8849  0.0072  0.9004
 1724TIP3    H226664   5.059   2.962   4.206 -0.6369  1.6672 -0.2681
 1725TIP3   OH226665   3.084   0.905   0.471  0.0255  0.3324 -0.2241
 1725TIP3    H126666   3.100   0.957   0.392  0.2155  0.3051 -0.2040
 1725TIP3    H226667   3.048   0.822   0.439  1.0867 -0.0926 -0.3568
 1726TIP3   OH226668   4.681   2.980  11.587  0.0470  0.0649 -0.1039
 1726TIP3    H126669   4.601   3.017  11.549  0.8645  1.7438 -0.3007
 1726TIP3    H226670   4.743   2.978  11.514  0.4266 -0.4997  0.2240
 1727TIP3   OH226671   4.678   1.396  15.067  0.0683  0.1350  0.9951
 1727TIP3    H126672   4.674   1.487  15.096 -0.0757 -0.0420  1.5393
 1727TIP3    H226673   4.646   1.346  15.141  0.1487 -0.3636  0.6968
 1728TIP3   OH226674   2.229   1.434   4.481 -0.1133  0.1255 -0.0057
 1728TIP3    H126675   2.291   1.489   4.528  0.9552 -0.7847 -0.3017
 1728TIP3    H226676   2.283   1.376   4.427 -1.1655 -1.2107  0.2950
 1729TIP3   OH226677   0.220   6.328   4.378 -0.0694  0.5435 -0.2973
 1729TIP3    H126678   0.292   6.339   4.439  0.2620  1.2133 -0.7880
 1729TIP3    H226679   0.141   6.331   4.432  0.2762 -0.3459  0.2572
 1730TIP3   OH226680   3.752   5.579   1.984  1.0186 -0.1805 -0.2635
 1730TIP3    H126681   3.696   5.594   1.909 -0.3802 -0.4825  0.6884
 1730TIP3    H226682   3.756   5.663   2.029  1.4938 -0.1097 -0.4330
 1731TIP3   OH226683   4.051   1.760   2.949 -0.0729 -0.0933 -0.1892
 1731TIP3    H126684   3.982   1.826   2.940  0.9126  0.8496 -1.1633
 1731TIP3    H226685   4.007   1.684   2.986 -1.1350  1.2942  1.5458
 1732TIP3   OH226686   3.724   1.778  12.207  0.3241 -0.2026  0.1766
 1732TIP3    H126687   3.762   1.842  12.267 -1.0002  0.7317  0.0603
 1732TIP3    H226688   3.771   1.697  12.226  0.4238  0.2396  2.0048
 1733TIP3   OH226689   4.402   6.670   0.025 -0.1063  0.1707  0.1218
 1733TIP3    H126690   4.431   6.749  -0.020 -0.3982  1.7844  2.5787
 1733TIP3    H226691   4.320   6.646  -0.018  1.7600 -1.0840 -3.0858
 1734TIP3   OH226692   1.482   5.672   5.324 -0.1143  0.1475  0.1274
 1734TIP3    H126693   1.522   5.664   5.411 -0.6555  1.9872  0.6120
 1734TIP3    H226694   1.409   5.733   5.338 -1.2448 -0.8267 -1.3063
 1735TIP3   OH226695   5.573   5.306   3.884  0.2588  0.0943 -0.4117
 1735TIP3    H126696   5.569   5.398   3.910  1.3705 -0.3588  1.6131
 1735TIP3    H226697   5.506   5.263   3.938  0.5813 -0.4496 -0.4373
 1736TIP3   OH226698   1.109   6.829  16.378 -0.0219  0.3474 -0.2626
 1736TIP3    H126699   1.027   6.801  16.337  0.2179  0.7036 -1.0154
 1736TIP3    H226700   1.096   6.922  16.396  0.0312  0.2878  0.0896
 1737TIP3   OH226701   6.181   6.641   4.871  0.7406 -0.0508 -0.1827
 1737TIP3    H126702   6.225   6.697   4.934  0.7670  0.9804 -1.0870
 1737TIP3    H226703   6.095   6.682   4.858  0.6577 -0.3647 -0.6673
 1738TIP3   OH226704   3.686   4.927  14.429 -0.0145  0.0227 -1.1599
 1738TIP3    H126705   3.670   4.840  14.467 -2.6748  0.9986  0.2312
 1738TIP3    H226706   3.748   4.968  14.489 -1.3993  0.2384  0.1990
 1739TIP3   OH226707   5.227   4.922   5.745 -0.1171 -0.2995 -0.4396
 1739TIP3    H126708   5.207   4.858   5.676 -1.1909 -1.6591  1.0614
 1739TIP3    H226709   5.320   4.908   5.764  0.3576  0.5070 -1.9622
 1740TIP3   OH226710   3.829   0.550   4.327 -0.2718 -0.0184  0.2314
 1740TIP3    H126711   3.790   0.471   4.291 -0.4539 -0.1015  0.6134
 1740TIP3    H226712   3.898   0.573   4.264  0.3733 -0.9715  0.5658
 1741TIP3   OH226713   6.827   5.450  11.670  0.1749  0.0302 -0.8030
 1741TIP3    H126714   6.899   5.389  11.681 -0.0862 -0.1151  0.2019
 1741TIP3    H226715   6.850   5.525  11.725 -0.6125 -0.1913 -0.1406
 1742TIP3   OH226716   6.679   1.716   5.945 -0.7180 -0.3540 -0.2333
 1742TIP3    H126717   6.616   1.648   5.967 -0.3883 -0.1970  1.3428
 1742TIP3    H226718   6.764   1.681   5.974 -0.1936 -0.2174 -1.5456
 1743TIP3   OH226719   3.706   0.612   6.984  0.0262  0.1936 -0.0118
 1743TIP3    H126720   3.672   0.527   7.011 -2.0511  1.1136  0.4521
 1743TIP3    H226721   3.773   0.633   7.050 -1.0691 -0.0691  1.2159
 1744TIP3   OH226722   6.825   1.781   1.540  0.6528 -0.1571 -0.6887
 1744TIP3    H126723   6.873   1.720   1.595  0.2088  0.7210  0.7146
 1744TIP3    H226724   6.753   1.728   1.503 -0.8217 -0.1340  1.9485
 1745TIP3   OH226725   0.919   4.467  12.358 -0.3728 -0.4305 -0.4051
 1745TIP3    H126726   0.832   4.504  12.346  0.8765  3.3593  0.7873
 1745TIP3    H226727   0.969   4.498  12.283  0.6286 -0.0346  0.3923
 1746TIP3   OH226728   2.963   1.100   2.283  0.1768 -0.9120 -0.6450
 1746TIP3    H126729   2.884   1.135   2.324  1.2537  0.7328  0.1054
 1746TIP3    H226730   2.984   1.022   2.334  1.1418  0.7382  1.6560
 1747TIP3   OH226731   6.164   1.252  15.816  0.5430  0.3504 -0.3724
 1747TIP3    H126732   6.154   1.332  15.763  0.7644  0.4568 -0.2535
 1747TIP3    H226733   6.077   1.213  15.817  0.2590  0.9864  0.1999
 1748TIP3   OH226734   5.465   3.211  13.403 -0.1605 -0.0073 -0.5557
 1748TIP3    H126735   5.475   3.164  13.320  0.0332 -0.5169 -0.2460
 1748TIP3    H226736   5.529   3.282  13.398 -0.0931 -0.0858 -0.8115
 1749TIP3   OH226737   2.699   4.466  12.670  0.1353 -0.3165  0.2420
 1749TIP3    H126738   2.651   4.396  12.716 -0.7935  0.9206  1.2294
 1749TIP3    H226739   2.713   4.533  12.737 -0.4203  1.1460 -1.0434
 1750TIP3   OH226740   2.624   1.574  15.821  0.2852 -0.0371  0.1001
 1750TIP3    H126741   2.548   1.617  15.781  0.4817 -0.0619 -0.2984
 1750TIP3    H226742   2.622   1.485  15.787  0.2480 -0.1612  0.4267
 1751TIP3   OH226743   2.031   6.037   2.633  0.3002 -0.6570 -0.8789
 1751TIP3    H126744   2.007   6.123   2.668 -2.0434 -1.4713 -0.2746
 1751TIP3    H226745   2.103   6.055   2.572  0.8807  1.5102  0.3240
 1752TIP3   OH226746   1.449   1.082  11.742  0.1683 -0.1181  0.0627
 1752TIP3    H126747   1.438   1.109  11.651 -1.8122  2.0802  0.8561
 1752TIP3    H226748   1.398   1.001  11.750  0.0605 -0.1270 -0.7015
 1753TIP3   OH226749   3.582   3.321   5.837  0.2070 -0.2259 -0.2936
 1753TIP3    H126750   3.638   3.397   5.854 -0.3259 -0.0041  0.4844
 1753TIP3    H226751   3.518   3.321   5.908 -0.0192 -1.2013 -0.4812
 1754TIP3   OH226752   3.757   1.434  14.026 -0.3413  0.0420 -0.2158
 1754TIP3    H126753   3.806   1.376  14.085 -0.7541  0.2555  0.3392
 1754TIP3    H226754   3.822   1.497  13.995 -0.5147  1.1157  1.5131
 1755TIP3   OH226755   2.698   3.644  11.157 -0.3195  0.2574  0.0626
 1755TIP3    H126756   2.774   3.626  11.101 -1.0920 -0.2592 -0.8531
 1755TIP3    H226757   2.735   3.683  11.236  0.8590  0.4298 -0.5520
 1756TIP3   OH226758   2.902   6.681  14.524  0.1134  0.3931  0.3027
 1756TIP3    H126759   2.896   6.628  14.603 -0.8634 -0.6319 -0.4290
 1756TIP3    H226760   2.850   6.759  14.545  0.5626  0.5283  0.9588
 1757TIP3   OH226761   5.656   3.157   4.175 -0.6475 -0.2078 -0.9342
 1757TIP3    H126762   5.705   3.203   4.106  1.5948 -0.3824  0.4465
 1757TIP3    H226763   5.722   3.132   4.239 -2.6960  0.6054  1.6951
 1758TIP3   OH226764   4.789   4.815   4.188 -0.0789  0.3632 -0.5330
 1758TIP3    H126765   4.857   4.771   4.137  1.2700  0.2213  1.2892
 1758TIP3    H226766   4.789   4.905   4.156  0.9355  0.3455 -0.6134
 1759TIP3   OH226767   4.782   5.243  10.652  0.3792 -0.3451  0.4337
 1759TIP3    H126768   4.721   5.257  10.724  1.1644  0.5386  0.9535
 1759TIP3    H226769   4.755   5.305  10.584  0.0676 -0.6881  0.2411
 1760TIP3   OH226770   4.410   2.646  13.063 -0.6504  0.3841 -0.0616
 1760TIP3    H126771   4.505   2.646  13.055 -0.6633  1.7796 -0.3647
 1760TIP3    H226772   4.379   2.605  12.982 -0.3235  0.6503 -0.3239
 1761TIP3   OH226773   6.073   0.638  12.491 -0.3928 -0.2537  0.1303
 1761TIP3    H126774   6.009   0.676  12.550 -0.5056  1.7939 -1.2129
 1761TIP3    H226775   6.154   0.687  12.508 -0.0805 -0.5249 -0.5091
 1762TIP3   OH226776   4.794   6.011   2.389 -0.4486 -0.2743 -0.0886
 1762TIP3    H126777   4.803   6.103   2.364 -1.7583  0.1433  0.8711
 1762TIP3    H226778   4.752   6.013   2.474  0.7168 -1.7577  0.5651
 1763TIP3   OH226779   3.813   3.173   5.808  0.0569 -0.6726 -0.3245
 1763TIP3    H126780   3.798   3.111   5.880  1.6126  0.6338  1.2104
 1763TIP3    H226781   3.731   3.222   5.801 -0.0834 -0.7523  0.6532
 1764TIP3   OH226782   4.962   6.626   3.869  0.4525  0.2318  0.7626
 1764TIP3    H126783   4.895   6.694   3.871  0.4416  0.2232  0.7091
 1764TIP3    H226784   4.975   6.607   3.776 -2.4957 -2.6967  0.7456
 1765TIP3   OH226785   5.972   5.669  12.589 -0.4112 -1.1101 -0.3305
 1765TIP3    H126786   6.060   5.637  12.604 -0.0035 -0.9959 -2.1962
 1765TIP3    H226787   5.923   5.593  12.557  0.3187 -0.2515 -3.8733
 1766TIP3   OH226788   3.609   5.676   5.975  0.1284 -0.0226  0.3538
 1766TIP3    H126789   3.540   5.615   5.999  0.1802  0.3260  1.4402
 1766TIP3    H226790   3.643   5.643   5.892  0.0200 -1.3528  0.8248
 1767TIP3   OH226791   0.692   2.102  16.656 -0.7703  0.4529  0.1559
 1767TIP3    H126792   0.610   2.053  16.651 -0.9544  0.8758 -2.7521
 1767TIP3    H226793   0.667   2.187  16.691 -0.7473 -0.7959  3.4903
 1768TIP3   OH226794   1.087   1.528  13.749  0.2952  0.3125  0.6304
 1768TIP3    H126795   1.036   1.595  13.704  0.2843  0.3057  0.6324
 1768TIP3    H226796   1.068   1.447  13.702  0.5945  0.3755  0.3963
 1769TIP3   OH226797   1.177   6.548   0.850  0.0206 -1.5299 -0.6764
 1769TIP3    H126798   1.107   6.490   0.820 -0.4003 -1.5262  0.2554
 1769TIP3    H226799   1.256   6.494   0.847 -0.5665 -2.6442  1.4618
 1770TIP3   OH226800   3.949   3.518  13.602  0.4346 -0.0626  0.2599
 1770TIP3    H126801   3.904   3.436  13.622 -0.5431  0.2110 -0.7073
 1770TIP3    H226802   3.991   3.544  13.684  0.0550 -1.0984  0.7907
 1771TIP3   OH226803   4.826   2.625  11.460 -0.2305 -0.8760  0.2479
 1771TIP3    H126804   4.840   2.719  11.456 -1.0680 -0.6768  1.3574
 1771TIP3    H226805   4.749   2.615  11.516 -0.5746 -2.1891 -0.4123
 1772TIP3   OH226806   2.081   2.170  13.207  0.1859  0.1820 -0.4916
 1772TIP3    H126807   2.169   2.154  13.240  0.1212 -0.3890 -0.5847
 1772TIP3    H226808   2.024   2.152  13.281  0.2072  1.8234 -0.0370
 1773TIP3   OH226809   4.889   4.508   2.122 -0.0734 -0.0534 -0.4305
 1773TIP3    H126810   4.948   4.480   2.053  0.2934  1.6925 -0.8701
 1773TIP3    H226811   4.819   4.554   2.076 -0.9955 -0.7854  0.2046
 1774TIP3   OH226812   2.167   1.022  14.228 -0.1962 -0.0005  0.3042
 1774TIP3    H126813   2.133   1.007  14.316 -1.1856  0.2271 -0.0245
 1774TIP3    H226814   2.204   1.110  14.230 -0.3193  0.0464  0.4661
 1775TIP3   OH226815   5.206   3.892   1.848 -0.8585 -0.0468  0.6590
 1775TIP3    H126816   5.235   3.896   1.939 -0.1059 -0.8349  0.4608
 1775TIP3    H226817   5.241   3.809   1.815 -0.9225  0.3399 -0.4165
 1776TIP3   OH226818   0.148   4.855   4.141 -0.3945 -0.7360 -0.6999
 1776TIP3    H126819   0.234   4.847   4.100  0.6130 -0.9400  1.3602
 1776TIP3    H226820   0.113   4.938   4.108  0.1280 -1.1312 -2.3225
 1777TIP3   OH226821   1.114   0.259   3.658 -0.2347  0.1119 -0.8668
 1777TIP3    H126822   1.172   0.330   3.630  0.9399 -0.6613 -0.4776
 1777TIP3    H226823   1.161   0.179   3.635  0.0295 -0.5638  1.7008
 1778TIP3   OH226824   3.841   0.561   1.989 -0.0488  0.1755  0.7151
 1778TIP3    H126825   3.780   0.524   2.053 -1.2237 -0.1055 -0.5121
 1778TIP3    H226826   3.814   0.522   1.906  1.1962  0.8135 -0.0126
 1779TIP3   OH226827   4.498   3.749   5.208 -0.4043 -0.3219 -0.0537
 1779TIP3    H126828   4.443   3.826   5.225 -1.0498 -0.2576 -2.1749
 1779TIP3    H226829   4.587   3.784   5.203 -0.7405  0.4057 -1.4738
 1780TIP3   OH226830   0.355   6.253  15.399  0.1905 -0.1950 -0.4520
 1780TIP3    H126831   0.295   6.278  15.328  1.0667 -0.7239 -1.4134
 1780TIP3    H226832   0.346   6.323  15.463 -0.8810  0.1275 -0.9253
 1781TIP3   OH226833   3.908   6.287  14.213  0.4922 -1.1250 -0.9913
 1781TIP3    H126834   4.000   6.291  14.187  0.4075 -0.7200 -1.2293
 1781TIP3    H226835   3.909   6.240  14.297  1.2353  1.2993  0.4586
 1782TIP3   OH226836   4.436   1.750  16.661  0.1454 -0.1499  0.2546
 1782TIP3    H126837   4.437   1.705  16.746  1.0876 -0.4969  0.0728
 1782TIP3    H226838   4.525   1.783  16.651  0.0011  0.0066 -0.5395
 1783TIP3   OH226839   5.010   6.767   1.058  0.1609 -0.3008  0.3720
 1783TIP3    H126840   4.947   6.730   0.996 -1.8702  1.4256  1.2778
 1783TIP3    H226841   5.064   6.826   1.006 -0.7157  0.2096  0.0293
 1784TIP3   OH226842   6.651   2.249   2.984 -0.7000  0.0941  0.3316
 1784TIP3    H126843   6.581   2.260   3.048 -0.4601  4.3688  0.1049
 1784TIP3    H226844   6.633   2.313   2.916  0.7687 -2.1573 -2.4323
 1785TIP3   OH226845   1.303   0.681  13.276  0.2283  0.3387 -1.2485
 1785TIP3    H126846   1.321   0.629  13.198 -1.3943 -0.6880 -0.9857
 1785TIP3    H226847   1.208   0.689  13.279  0.2039  0.0148  0.8036
 1786TIP3   OH226848   2.649   5.753   4.309  0.6260  0.2723 -0.3215
 1786TIP3    H126849   2.618   5.760   4.399  1.7367  0.3966  0.0554
 1786TIP3    H226850   2.569   5.734   4.259 -0.3720  2.4039  0.3659
 1787TIP3   OH226851   1.942   3.124  11.856  0.3584 -0.0559 -0.3809
 1787TIP3    H126852   1.996   3.047  11.841 -0.2928 -0.4263 -0.8047
 1787TIP3    H226853   1.972   3.188  11.791  0.4800 -0.1544 -0.4214
 1788TIP3   OH226854   5.363   0.022   4.910 -0.2112  0.0284 -0.1370
 1788TIP3    H126855   5.308  -0.055   4.926 -0.1275  0.1045  0.5753
 1788TIP3    H226856   5.357   0.038   4.816  0.1242 -1.1132 -0.3618
 1789TIP3   OH226857   0.848   6.595  12.431 -0.2465 -0.8602 -0.7677
 1789TIP3    H126858   0.942   6.610  12.425 -0.1728 -0.4475  0.8848
 1789TIP3    H226859   0.811   6.647  12.360  0.6466  0.5237 -0.2624
 1790TIP3   OH226860   1.753   3.136   5.859  0.2425 -0.0678 -0.3310
 1790TIP3    H126861   1.719   3.225   5.865 -0.1982 -0.2352 -0.3587
 1790TIP3    H226862   1.772   3.111   5.950 -2.4244 -1.0296  0.0353
 1791TIP3   OH226863   2.372   4.401  11.573 -0.4225  0.6295  0.1184
 1791TIP3    H126864   2.316   4.325  11.557 -0.0046  0.3858 -0.1935
 1791TIP3    H226865   2.456   4.378  11.534 -0.4043  1.4067 -0.3229
 1792TIP3   OH226866   4.638   4.489  11.683  0.0269 -0.1755  0.2844
 1792TIP3    H126867   4.685   4.413  11.716 -0.3039 -0.2565  0.5865
 1792TIP3    H226868   4.690   4.521  11.610  0.7134 -0.0689  0.8142
 1793TIP3   OH226869   0.190   5.264   0.558 -0.2171 -0.5010 -0.1289
 1793TIP3    H126870   0.129   5.303   0.495  0.6237 -0.5830 -1.0168
 1793TIP3    H226871   0.244   5.338   0.587  1.6282 -0.9600 -2.0945
 1794TIP3   OH226872   5.773   1.741   4.186 -0.0442 -0.3856  0.4685
 1794TIP3    H126873   5.827   1.668   4.156  0.6806 -0.2194  1.3543
 1794TIP3    H226874   5.702   1.699   4.235  0.1402 -0.5209  0.6208
 1795TIP3   OH226875   1.005   3.377  15.804  0.3856  0.1216 -0.4561
 1795TIP3    H126876   0.922   3.330  15.801  0.3611  0.1931 -1.8170
 1795TIP3    H226877   1.050   3.342  15.881 -0.7050 -0.2410  0.0361
 1796TIP3   OH226878   2.310   0.638   2.172  0.1626 -0.1489  0.3922
 1796TIP3    H126879   2.256   0.621   2.095 -0.8390  1.9729  0.5500
 1796TIP3    H226880   2.381   0.574   2.167 -2.1001 -2.7942 -0.0473
 1797TIP3   OH226881   3.318   0.414  15.169 -0.0038  0.4719 -0.3482
 1797TIP3    H126882   3.331   0.320  15.187 -0.5234  0.6974  1.4429
 1797TIP3    H226883   3.400   0.455  15.196 -0.9790  0.8782  2.2608
 1798TIP3   OH226884   5.824   3.468  12.334 -0.1913 -0.9628 -0.1091
 1798TIP3    H126885   5.821   3.525  12.411 -0.7453 -0.5865 -0.4065
 1798TIP3    H226886   5.733   3.464  12.304 -0.3786 -2.9453  0.5868
 1799TIP3   OH226887   2.983   5.690   0.942  0.4850 -0.1503  0.3587
 1799TIP3    H126888   3.001   5.720   0.853 -1.0604 -0.6383 -0.1552
 1799TIP3    H226889   2.933   5.762   0.982  0.5040 -0.2494  0.5602
 1800TIP3   OH226890   1.444   4.603   5.914 -0.3414  0.1464 -0.0896
 1800TIP3    H126891   1.469   4.511   5.910  0.3472  0.3264 -0.1250
 1800TIP3    H226892   1.351   4.602   5.934 -0.8932 -0.5962 -2.3913
 1801TIP3   OH226893   6.017   4.714   4.406  0.4251  0.4811 -0.0608
 1801TIP3    H126894   6.034   4.664   4.327 -0.3931 -1.3170  0.8245
 1801TIP3    H226895   6.031   4.651   4.477  0.2715  1.7911  1.1783
 1802TIP3   OH226896   4.298   4.143   0.367 -0.1863  0.1978 -0.5418
 1802TIP3    H126897   4.386   4.109   0.351  0.0137  1.1197 -1.4595
 1802TIP3    H226898   4.313   4.229   0.407 -0.6443 -1.6424  4.2549
 1803TIP3   OH226899   6.566   2.873  11.022  0.4770 -0.5368 -0.5558
 1803TIP3    H126900   6.494   2.811  11.034  0.0903 -0.1652 -0.9390
 1803TIP3    H226901   6.643   2.825  11.053  0.7745 -2.5708 -3.9159
 1804TIP3   OH226902   5.843   1.240   3.023  0.2406  0.5358 -0.4006
 1804TIP3    H126903   5.785   1.265   2.952 -1.4189 -0.7440  0.4376
 1804TIP3    H226904   5.795   1.262   3.103  0.7657 -0.7950  0.3188
 1805TIP3   OH226905   0.379   1.697   1.529 -0.9931 -0.1597  0.2795
 1805TIP3    H126906   0.286   1.677   1.542 -2.0595 -0.4287 -5.3909
 1805TIP3    H226907   0.423   1.613   1.537 -1.3031 -0.1845  2.0979
 1806TIP3   OH226908   4.680   3.385  16.222  0.3188  0.2563 -1.1651
 1806TIP3    H126909   4.733   3.423  16.292 -0.9077 -0.2923  0.1108
 1806TIP3    H226910   4.694   3.291  16.229 -1.9030 -0.0468  0.1933
 1807TIP3   OH226911   0.362   4.189  13.372 -0.5264  0.1513  0.5121
 1807TIP3    H126912   0.412   4.213  13.450  0.6681  1.4526 -0.5897
 1807TIP3    H226913   0.429   4.176  13.304 -1.3865 -2.8432  0.1051
 1808TIP3   OH226914   5.869   1.526  10.752 -0.4124  0.0947  0.1100
 1808TIP3    H126915   5.798   1.475  10.791 -1.5659  0.7136 -1.1030
 1808TIP3    H226916   5.824   1.595  10.703  1.0198  0.2690 -1.0006
 1809TIP3   OH226917   5.549   0.384   0.472 -0.7467 -0.0370  0.5200
 1809TIP3    H126918   5.643   0.383   0.456 -1.0251  0.0456 -1.3465
 1809TIP3    H226919   5.518   0.299   0.441 -1.4760  0.4926 -0.2548
 1810TIP3   OH226920   3.234   4.443   5.309 -0.3775 -0.4203  0.3731
 1810TIP3    H126921   3.149   4.419   5.344 -0.4928  0.2970  0.6106
 1810TIP3    H226922   3.242   4.537   5.327  0.4383 -0.4671  0.3102
 1811TIP3   OH226923   5.933   2.507   4.594 -0.4014  0.3106  0.6508
 1811TIP3    H126924   5.853   2.487   4.546  0.3217  0.4880 -0.6740
 1811TIP3    H226925   5.949   2.599   4.576  1.1694 -0.1900 -0.8000
 1812TIP3   OH226926   3.249   2.310  16.991  0.0633 -0.3492  0.1069
 1812TIP3    H126927   3.254   2.244  17.060  0.2426  0.4638  0.8881
 1812TIP3    H226928   3.337   2.313  16.954 -0.1352 -1.0809 -0.4539
 1813TIP3   OH226929   3.615   1.589  13.450  0.1726  0.3198  0.3657
 1813TIP3    H126930   3.664   1.550  13.522  0.8647  0.0847 -0.2258
 1813TIP3    H226931   3.609   1.682  13.472 -0.6848  0.0535  1.3265
 1814TIP3   OH226932   4.245   0.933   5.159 -0.0280 -0.6611  0.7957
 1814TIP3    H126933   4.337   0.959   5.153  0.1584 -1.1942  1.2606
 1814TIP3    H226934   4.199   0.993   5.100  0.6134 -0.3773  0.5772
 1815TIP3   OH226935   6.750   5.757  15.875 -0.3328  0.1723  0.3186
 1815TIP3    H126936   6.819   5.708  15.831 -0.2519  1.2058 -0.7515
 1815TIP3    H226937   6.747   5.720  15.963  0.4791 -0.9748 -0.1087
 1816TIP3   OH226938   2.546   2.186   0.175  0.3642 -0.7004  0.4041
 1816TIP3    H126939   2.622   2.128   0.182  2.1617  1.6443  1.6631
 1816TIP3    H226940   2.552   2.225   0.088 -0.0253 -1.2920  0.1056
 1817TIP3   OH226941   2.891   3.510  15.388 -0.0603  0.2603 -0.1313
 1817TIP3    H126942   2.893   3.602  15.363 -1.3531  0.7631  1.4291
 1817TIP3    H226943   2.955   3.503  15.459  1.6112 -0.5678 -1.6234
 1818TIP3   OH226944   1.188   2.465   0.948 -1.1092 -0.0341  0.1907
 1818TIP3    H126945   1.113   2.465   1.007 -0.1119 -0.8107  1.5083
 1818TIP3    H226946   1.208   2.558   0.935 -1.7181  0.1542  0.5685
 1819TIP3   OH226947   5.281   3.565  15.525  0.0291  0.3611 -0.3492
 1819TIP3    H126948   5.300   3.481  15.482  1.2259  0.6453 -0.4116
 1819TIP3    H226949   5.361   3.616  15.513 -0.5683  1.3908 -0.0113
 1820TIP3   OH226950   1.056   5.012   0.712 -0.3244 -1.2258 -0.0380
 1820TIP3    H126951   1.037   5.092   0.761 -0.1637 -0.4543 -1.2077
 1820TIP3    H226952   0.977   4.996   0.660  0.2643 -0.8572 -1.0768
 1821TIP3   OH226953   5.111   0.517   1.927 -0.5605 -0.4809  0.3451
 1821TIP3    H126954   5.106   0.560   1.841 -1.8451 -0.8657  0.2057
 1821TIP3    H226955   5.202   0.488   1.934  0.1065  1.3947  0.0267
 1822TIP3   OH226956   5.139   2.418  14.382  0.2706 -0.1785  0.4718
 1822TIP3    H126957   5.045   2.400  14.387  0.0599  0.4936 -0.7918
 1822TIP3    H226958   5.149   2.504  14.423  0.4138 -0.4515  1.0221
 1823TIP3   OH226959   0.227   5.178  12.023  0.0324  0.1865 -0.0195
 1823TIP3    H126960   0.167   5.244  12.057  0.0295  0.1403  0.0662
 1823TIP3    H226961   0.203   5.098  12.069  0.3556  0.2318  0.2330
 1824TIP3   OH226962   2.663   5.613  16.534  0.2513 -0.6007  0.2607
 1824TIP3    H126963   2.598   5.583  16.470 -0.5739  0.7415  0.4265
 1824TIP3    H226964   2.682   5.536  16.588 -1.2093 -1.0190  0.2104
 1825TIP3   OH226965   1.737   1.280  16.507 -0.4615 -0.6946 -0.1165
 1825TIP3    H126966   1.832   1.281  16.505 -0.4617 -0.7429 -0.1478
 1825TIP3    H226967   1.711   1.333  16.432 -0.4489  2.5629  1.9894
 1826TIP3   OH226968   0.136   4.899  10.609  0.0598  0.2816  0.5178
 1826TIP3    H126969   0.190   4.821  10.620  0.9041  0.9725  1.5915
 1826TIP3    H226970   0.183   4.951  10.544 -0.6332 -0.2084 -0.3802
 1827TIP3   OH226971   4.228   2.596  10.917  0.2942  0.6867 -0.0029
 1827TIP3    H126972   4.287   2.541  10.969 -0.1701  1.0298  0.9095
 1827TIP3    H226973   4.140   2.573  10.948 -0.0501  0.2818 -1.2483
 1828TIP3   OH226974   0.142   4.087  14.190  0.1853  0.2912 -0.4106
 1828TIP3    H126975   0.136   4.000  14.151 -0.2240 -0.5198  1.3505
 1828TIP3    H226976   0.065   4.134  14.157 -0.7521 -0.7417  0.2293
 1829TIP3   OH226977   3.118   0.511   1.933  0.0894 -0.2211  0.1528
 1829TIP3    H126978   3.089   0.564   1.858  0.7352 -0.6788 -0.4266
 1829TIP3    H226979   3.187   0.562   1.974  0.1936 -0.2737  0.0421
 1830TIP3   OH226980   2.149   6.326   5.474 -0.1577 -0.1310  0.8693
 1830TIP3    H126981   2.059   6.343   5.502 -0.4843 -1.7386  0.8642
 1830TIP3    H226982   2.202   6.351   5.550 -0.6151  0.6822  0.9316
 1831TIP3   OH226983   4.120   1.034   1.014 -0.4187 -0.5600  0.2051
 1831TIP3    H126984   4.155   1.065   0.931  3.1664  0.5998  1.9469
 1831TIP3    H226985   4.152   0.945   1.022  1.4880  0.1653  1.3529
 1832TIP3   OH226986   5.431   5.363  11.718  0.0740 -0.6137  0.1726
 1832TIP3    H126987   5.340   5.392  11.729  0.6592  2.1424 -1.3873
 1832TIP3    H226988   5.471   5.377  11.803 -0.5465 -0.1743  0.4002
 1833TIP3   OH226989   1.767   3.618   5.840  0.1813 -0.3221 -0.8036
 1833TIP3    H126990   1.735   3.698   5.883 -0.7974 -1.2595  0.2622
 1833TIP3    H226991   1.745   3.548   5.901  1.6528 -1.3476 -1.4103
 1834TIP3   OH226992   1.963   1.708  16.867 -0.2833  0.0093  0.0200
 1834TIP3    H126993   2.054   1.729  16.885 -0.6149  1.0197  0.6136
 1834TIP3    H226994   1.925   1.689  16.952 -0.8188  0.3982 -0.1272
 1835TIP3   OH226995   4.950   6.349   1.774 -0.1548 -0.1602 -0.4211
 1835TIP3    H126996   4.924   6.324   1.685  2.0297  1.9225 -1.7889
 1835TIP3    H226997   5.014   6.284   1.800  1.2404  0.7059 -1.5638
 1836TIP3   OH226998   4.756   5.416   5.914  0.0547  0.5489 -0.2607
 1836TIP3    H126999   4.674   5.466   5.922 -0.9048 -1.2110  1.9742
 1836TIP3    H227000   4.757   5.360   5.991  2.4339 -0.9125 -1.2607
 1837TIP3   OH227001   2.982   3.336   3.000  0.1370  0.2034 -0.2176
 1837TIP3    H127002   2.924   3.270   2.964  0.6958  0.3563 -1.4553
 1837TIP3    H227003   3.070   3.310   2.972  0.4603  0.9990  0.0084
 1838TIP3   OH227004   3.416   5.665  13.068  0.3096  0.0236 -0.0845
 1838TIP3    H127005   3.480   5.712  13.015  1.6272 -1.3714  0.2009
 1838TIP3    H227006   3.388   5.730  13.133  0.3818  1.0667 -1.0475
 1839TIP3   OH227007   4.448   3.438  16.541  0.1255  0.0131 -1.2585
 1839TIP3    H127008   4.477   3.360  16.495  0.0973 -1.5791  1.1914
 1839TIP3    H227009   4.517   3.502  16.527  2.1196 -1.7761 -0.2316
 1840TIP3   OH227010   2.385   6.647  11.478  0.9308  0.5478 -0.1120
 1840TIP3    H127011   2.374   6.668  11.385  1.6788 -0.5561 -0.4643
 1840TIP3    H227012   2.478   6.660  11.495  1.0119 -0.3686  0.1860
 1841TIP3   OH227013   0.932   5.115   5.029  0.1887 -0.3769 -0.1725
 1841TIP3    H127014   1.000   5.128   5.095  0.0894 -2.7634  0.4771
 1841TIP3    H227015   0.856   5.163   5.063  0.7216  0.0498  0.4449
 1842TIP3   OH227016   2.803   1.343   5.001  0.1733 -0.4546 -0.0622
 1842TIP3    H127017   2.734   1.276   4.994  0.0864 -0.5429  1.3127
 1842TIP3    H227018   2.884   1.296   4.982  0.2754 -1.3394  2.2584
 1843TIP3   OH227019   3.158   2.999   4.063  0.3180 -0.0704  0.3116
 1843TIP3    H127020   3.123   3.002   3.974  0.7733  2.4191  0.1554
 1843TIP3    H227021   3.081   2.980   4.118 -0.2983  0.1492 -0.4628
 1844TIP3   OH227022   5.989   0.793   2.604 -0.4560 -0.1025 -0.1103
 1844TIP3    H127023   6.066   0.826   2.557  1.6718 -1.0619  2.4498
 1844TIP3    H227024   5.920   0.856   2.584  1.2267  1.3448 -1.7558
 1845TIP3   OH227025   5.212   5.069   3.558 -0.7635 -0.1693  0.4222
 1845TIP3    H127026   5.301   5.036   3.544  0.6709  3.6253 -0.5950
 1845TIP3    H227027   5.166   5.049   3.476  0.1379  0.5978 -0.2843
 1846TIP3   OH227028   6.757   2.429  11.818  0.8740 -0.5982 -0.6532
 1846TIP3    H127029   6.816   2.414  11.745  0.8885 -1.1693 -0.5297
 1846TIP3    H227030   6.734   2.341  11.849  0.1099 -0.3848 -0.5837
 1847TIP3   OH227031   4.354   2.813   5.719 -0.9201  0.3122 -0.2185
 1847TIP3    H127032   4.398   2.841   5.799  1.2615 -2.8743 -0.0806
 1847TIP3    H227033   4.272   2.775   5.749  0.1678 -1.4463  0.6999
 1848TIP3   OH227034   3.349   4.878  11.022  0.0651 -0.5027  0.0149
 1848TIP3    H127035   3.402   4.805  10.991  2.0401  0.7021  0.3877
 1848TIP3    H227036   3.286   4.894  10.951 -0.0942 -2.2244 -0.2644
 1849TIP3   OH227037   5.802   3.643  15.346 -0.2733 -0.3238 -0.1730
 1849TIP3    H127038   5.794   3.553  15.377 -3.1391  0.0522  0.4721
 1849TIP3    H227039   5.877   3.678  15.395 -0.1357 -1.8880  0.8165
 1850TIP3   OH227040   5.989   0.652  10.527  0.1181  0.4138  0.2789
 1850TIP3    H127041   5.965   0.593  10.599  2.5935 -1.1026 -0.0027
 1850TIP3    H227042   5.976   0.740  10.562 -1.9004 -0.2739  1.3834
 1851TIP3   OH227043   5.576   1.812  16.493  0.6733 -0.4808 -0.1644
 1851TIP3    H127044   5.553   1.801  16.586 -0.5873 -0.5342 -0.4612
 1851TIP3    H227045   5.667   1.783  16.487  0.3998 -1.6274  0.8436
 1852TIP3   OH227046   0.759   1.267   1.513 -0.1153 -0.3720 -0.0693
 1852TIP3    H127047   0.720   1.203   1.454  0.3176 -0.5849 -0.1318
 1852TIP3    H227048   0.834   1.221   1.551 -0.4848 -0.2922  0.7749
 1853TIP3   OH227049   3.488   5.814  14.717  0.0572  0.1550 -0.5948
 1853TIP3    H127050   3.551   5.780  14.780  0.1870  0.2658 -0.6637
 1853TIP3    H227051   3.488   5.909  14.732  2.0919  0.5565 -2.5407
 1854TIP3   OH227052   4.484   6.417  12.795 -0.0773 -0.1869  0.1706
 1854TIP3    H127053   4.504   6.365  12.873 -2.2436 -0.1493  0.8158
 1854TIP3    H227054   4.565   6.465  12.776  0.6006 -0.4454  2.2009
 1855TIP3   OH227055   4.959   1.068   1.632 -0.0046 -0.0394 -0.7113
 1855TIP3    H127056   5.031   1.032   1.581 -0.7226  0.8668 -2.4240
 1855TIP3    H227057   4.979   1.161   1.643 -1.3138  0.4382 -2.0174
 1856TIP3   OH227058   0.202   6.202  12.122 -0.5739 -0.2308  0.1396
 1856TIP3    H127059   0.115   6.239  12.132 -0.9683 -0.5502 -1.7736
 1856TIP3    H227060   0.214   6.192  12.027  2.0545  1.0710  0.2187
 1857TIP3   OH227061   1.193   0.845   1.100 -0.7616  0.1196 -0.1393
 1857TIP3    H127062   1.177   0.914   1.165 -0.6589 -0.7047  0.7717
 1857TIP3    H227063   1.136   0.773   1.126  1.0812 -1.1696  0.5183
 1858TIP3   OH227064   4.950   0.764   3.686 -0.5455  0.3704 -0.4870
 1858TIP3    H127065   5.042   0.761   3.712  0.0707  0.2564 -2.5672
 1858TIP3    H227066   4.903   0.765   3.770  1.1596 -3.2847  0.7459
 1859TIP3   OH227067   0.337   0.313   1.973  0.1853  0.2352  0.0822
 1859TIP3    H127068   0.312   0.353   1.890  1.0810 -1.2355 -0.9419
 1859TIP3    H227069   0.366   0.386   2.027 -0.3134  1.2085 -0.9381
 1860TIP3   OH227070   4.289   6.594  12.151  0.2218  0.0801 -0.2498
 1860TIP3    H127071   4.286   6.587  12.056  0.2179  0.3594 -0.2718
 1860TIP3    H227072   4.198   6.599  12.178  0.2482  0.9979 -0.3136
 1861TIP3   OH227073   6.419   5.317  11.651 -0.1593 -0.6389 -0.4801
 1861TIP3    H127074   6.328   5.290  11.666 -0.4128  0.1354 -0.5639
 1861TIP3    H227075   6.430   5.314  11.556 -0.7074  1.0862 -0.6378
 1862TIP3   OH227076   5.161   0.026   0.765 -0.2732 -0.5125  0.0933
 1862TIP3    H127077   5.229  -0.028   0.725 -0.6883 -0.2508 -1.0250
 1862TIP3    H227078   5.208   0.094   0.812  0.2562 -1.6895  1.3412
 1863TIP3   OH227079   4.317   3.286  17.181 -0.2411  0.3019 -0.3659
 1863TIP3    H127080   4.341   3.277  17.089  0.5193 -1.9718 -0.0001
 1863TIP3    H227081   4.231   3.245  17.188 -0.7861  1.4182 -0.2197
 1864TIP3   OH227082   5.861   6.822  16.869  0.0016 -0.5972 -0.1798
 1864TIP3    H127083   5.827   6.894  16.815 -0.0575 -0.4227  0.0883
 1864TIP3    H227084   5.801   6.750  16.854 -0.9206 -0.0788  0.8383
 1865TIP3   OH227085   2.912   2.688   0.369 -0.4781 -0.2824 -0.4967
 1865TIP3    H127086   2.915   2.702   0.274 -0.4383 -0.9883 -0.6016
 1865TIP3    H227087   2.819   2.694   0.391 -0.4675  0.0914 -0.5456
 1866TIP3   OH227088   2.861   0.299   2.318  0.1267 -0.3363  0.2942
 1866TIP3    H127089   2.952   0.312   2.344  0.5169  0.7605 -1.4784
 1866TIP3    H227090   2.866   0.263   2.230 -1.1684 -0.2851  0.1854
 1867TIP3   OH227091   1.014   2.294  13.789 -0.1008  0.4214 -0.0656
 1867TIP3    H127092   1.028   2.322  13.880 -2.2975  1.8189 -0.0751
 1867TIP3    H227093   0.919   2.302  13.777  0.1470  0.1918 -2.4647
 1868TIP3   OH227094   1.926   3.110  14.969  0.3563  0.0628 -0.2855
 1868TIP3    H127095   2.004   3.084  14.920 -0.2959  0.3710 -1.5106
 1868TIP3    H227096   1.856   3.055  14.934 -0.2406  0.7038 -0.1169
 1869TIP3   OH227097   2.122   5.381   4.282 -0.6881  0.0117  0.1724
 1869TIP3    H127098   2.037   5.374   4.237 -0.4144  0.3841 -0.4172
 1869TIP3    H227099   2.113   5.457   4.338  0.2828  2.0553 -2.2546
 1870TIP3   OH227100   2.567   1.416   1.981 -0.0901  0.7788 -0.5570
 1870TIP3    H127101   2.601   1.500   2.012 -0.9937  0.7089  0.6937
 1870TIP3    H227102   2.511   1.438   1.906 -0.4698  1.3229 -0.1175
 1871TIP3   OH227103   3.042   3.126  12.499  0.0627 -0.0546 -0.0905
 1871TIP3    H127104   2.985   3.054  12.472  0.0196  0.0359 -0.2380
 1871TIP3    H227105   3.125   3.109  12.454 -0.0339  0.1399 -0.3403
 1872TIP3   OH227106   5.255   6.076  13.864 -0.4681  0.1192  0.9129
 1872TIP3    H127107   5.336   6.063  13.815  0.6292  1.1837  2.3608
 1872TIP3    H227108   5.275   6.045  13.952 -2.1553 -1.0400  0.9171
 1873TIP3   OH227109   1.555   2.907   2.511  0.3084  0.2691 -0.2153
 1873TIP3    H127110   1.613   2.951   2.574  1.3124  0.5851 -1.3370
 1873TIP3    H227111   1.527   2.976   2.452 -1.2982  0.1321  0.3248
 1874TIP3   OH227112   3.146   3.597   0.530  0.0022  0.1837  0.1646
 1874TIP3    H127113   3.193   3.552   0.600  1.2184  0.7434 -0.2565
 1874TIP3    H227114   3.215   3.641   0.480 -0.9828  1.0192 -0.4963
 1875TIP3   OH227115   6.024   4.922   2.471  0.6185 -0.3452  0.4267
 1875TIP3    H127116   5.945   4.919   2.417  1.1515 -0.8400 -0.3471
 1875TIP3    H227117   6.030   5.014   2.499 -1.0757 -0.6196  1.8086
 1876TIP3   OH227118   6.797   1.372   4.975  0.3792 -0.0367  0.5422
 1876TIP3    H127119   6.840   1.287   4.978 -1.4567 -0.9991  3.1744
 1876TIP3    H227120   6.866   1.435   4.995  1.1964 -1.2010  1.4640
 1877TIP3   OH227121   5.112   2.053  16.588  0.1734 -0.0531 -0.6560
 1877TIP3    H127122   5.051   2.003  16.642  1.6307 -0.1415  0.9992
 1877TIP3    H227123   5.057   2.095  16.522 -1.7853  0.3924  1.1407
 1878TIP3   OH227124   1.691   3.893  16.004  0.2177  0.0754 -0.0601
 1878TIP3    H127125   1.680   3.893  15.909  0.6390 -0.2824 -0.1124
 1878TIP3    H227126   1.766   3.951  16.019 -0.0153  0.3440  0.0777
 1879TIP3   OH227127   2.263   0.764   5.552 -0.1797 -0.3333  0.1284
 1879TIP3    H127128   2.209   0.812   5.489  0.1488  0.3973  0.3921
 1879TIP3    H227129   2.249   0.810   5.636  0.6307 -0.2952  0.2542
 1880TIP3   OH227130   0.893   3.083  13.010  1.0397  0.2275 -0.6336
 1880TIP3    H127131   0.849   3.013  13.059 -0.0625  0.6683 -0.9705
 1880TIP3    H227132   0.909   3.152  13.075  1.2246  0.0717 -0.5123
 1881TIP3   OH227133   6.081   6.277   1.754  0.1303  0.2230 -0.1164
 1881TIP3    H127134   6.014   6.235   1.808  1.5997 -0.9132  0.8786
 1881TIP3    H227135   6.109   6.208   1.693  1.8988 -0.0101  0.9053
 1882TIP3   OH227136   5.900   5.861   3.065 -0.1231  0.3795 -0.3316
 1882TIP3    H127137   5.928   5.859   3.156 -1.5537  0.2493  0.1248
 1882TIP3    H227138   5.831   5.926   3.062 -1.6302 -1.1701 -0.8342
 1883TIP3   OH227139   3.816   3.861  12.983 -0.1844  0.1228  0.0501
 1883TIP3    H127140   3.899   3.851  12.937  0.5960  0.1792  1.3795
 1883TIP3    H227141   3.758   3.904  12.921  0.8476  0.2720 -0.8321
 1884TIP3   OH227142   0.683   1.775  10.561  0.1543  0.2352 -0.0110
 1884TIP3    H127143   0.694   1.799  10.469 -1.9456  0.0933 -0.3449
 1884TIP3    H227144   0.650   1.854  10.603 -1.4942 -0.4083  0.0121
 1885TIP3   OH227145   4.813   2.763   3.203  0.1067  0.5984 -0.0534
 1885TIP3    H127146   4.862   2.717   3.271  0.3462 -0.3927 -0.8669
 1885TIP3    H227147   4.827   2.856   3.222  1.2103  0.3346  0.4990
 1886TIP3   OH227148   1.558   0.122  16.480  0.5823  0.3627  0.2304
 1886TIP3    H127149   1.495   0.052  16.494 -0.2234  0.6871 -1.4990
 1886TIP3    H227150   1.641   0.086  16.512  0.0699 -1.1428 -0.0498
 1887TIP3   OH227151   6.434   3.648   1.260  0.3750 -0.7885 -0.3675
 1887TIP3    H127152   6.357   3.691   1.224  0.9152  0.4778 -0.0402
 1887TIP3    H227153   6.500   3.655   1.190  0.2810 -1.6784 -0.5638
 1888TIP3   OH227154   3.175   2.240  13.920  0.2050 -0.0444  0.3033
 1888TIP3    H127155   3.262   2.203  13.933  1.1426  2.4323  1.7870
 1888TIP3    H227156   3.144   2.261  14.009 -0.7239  1.5703 -0.3523
 1889TIP3   OH227157   3.985   3.118   4.266  0.1087  0.1845  0.3634
 1889TIP3    H127158   4.047   3.136   4.337  1.2896 -0.5233 -0.4526
 1889TIP3    H227159   4.027   3.155   4.189 -1.1346  0.8845  0.0089
 1890TIP3   OH227160   0.868   2.017  15.802  0.1138  0.1077 -0.0448
 1890TIP3    H127161   0.879   2.085  15.735 -2.1984  1.5922  0.9485
 1890TIP3    H227162   0.868   2.065  15.885  0.1948 -1.3485  0.8222
 1891TIP3   OH227163   1.896   0.374  14.766  0.6691 -0.1884 -0.0339
 1891TIP3    H127164   1.843   0.441  14.722 -0.3505 -0.5740  0.5570
 1891TIP3    H227165   1.979   0.418  14.785 -0.6208  1.5971  2.0438
 1892TIP3   OH227166   4.445   5.532   0.263  0.2165 -0.1404 -0.2700
 1892TIP3    H127167   4.372   5.581   0.300  0.4838  0.0912 -0.0470
 1892TIP3    H227168   4.419   5.441   0.270  1.2740 -0.3246  2.7945
 1893TIP3   OH227169   4.824   6.373  16.100  0.2432 -0.3341 -0.2885
 1893TIP3    H127170   4.791   6.463  16.102  1.5503  0.1574  0.1516
 1893TIP3    H227171   4.796   6.340  16.015 -1.8238 -0.1565  0.2523
 1894TIP3   OH227172   0.118   5.834   4.658 -0.1878 -0.5709 -0.9190
 1894TIP3    H127173   0.111   5.780   4.737  0.6073  0.2286 -0.2743
 1894TIP3    H227174   0.130   5.771   4.587  1.0144 -1.2586 -0.1495
 1895TIP3   OH227175   4.475   4.003   0.706 -0.0015  0.4751  0.9747
 1895TIP3    H127176   4.483   3.918   0.663 -1.2362  0.2262  1.1935
 1895TIP3    H227177   4.386   4.004   0.741 -0.4448  2.3344 -0.0697
 1896TIP3   OH227178   6.414   3.474  15.047 -0.3907 -0.2057  0.3764
 1896TIP3    H127179   6.382   3.562  15.066 -0.4069 -0.2917  0.7589
 1896TIP3    H227180   6.406   3.466  14.952  1.5394  0.9708  0.0547
 1897TIP3   OH227181   3.960   5.531  11.580  0.4568  0.5457 -0.4683
 1897TIP3    H127182   3.926   5.455  11.532  0.6940 -0.1234  0.3881
 1897TIP3    H227183   3.902   5.603  11.556 -1.0449 -0.3731  0.3000
 1898TIP3   OH227184   5.808   6.331  11.484 -0.3230 -0.2261  0.4231
 1898TIP3    H127185   5.791   6.409  11.538  1.5150  1.4274 -1.2263
 1898TIP3    H227186   5.868   6.278  11.537 -0.1756  0.3541  0.8461
 1899TIP3   OH227187   3.344   5.280  11.491 -0.1090 -0.4910  0.2674
 1899TIP3    H127188   3.413   5.268  11.557 -1.4347  1.3599  2.1189
 1899TIP3    H227189   3.322   5.191  11.463  0.8796 -1.3067  1.9093
 1900TIP3   OH227190   6.471   0.616  14.214 -0.5433  0.1867 -0.1048
 1900TIP3    H127191   6.522   0.665  14.278 -0.7377  1.6958 -1.0503
 1900TIP3    H227192   6.522   0.537  14.196 -0.3807 -0.1502  1.7075
 1901TIP3   OH227193   1.144   6.227   0.716 -0.1134 -0.2849  0.6049
 1901TIP3    H127194   1.171   6.142   0.752  0.6211 -0.6646 -0.7455
 1901TIP3    H227195   1.137   6.284   0.792  4.3062 -0.2183  1.2620
 1902TIP3   OH227196   2.339   6.467  12.661 -0.8621 -0.0449 -1.0109
 1902TIP3    H127197   2.290   6.538  12.702 -0.6027  0.3055 -1.2976
 1902TIP3    H227198   2.288   6.445  12.583 -1.0197 -0.2802 -0.8458
 1903TIP3   OH227199   4.178   4.473   6.407  0.0799  0.0048 -0.2294
 1903TIP3    H127200   4.174   4.563   6.374 -0.5249 -0.5387 -1.7316
 1903TIP3    H227201   4.270   4.460   6.432 -0.2700  1.8642  2.6075
 1904TIP3   OH227202   1.642   1.416  16.757  0.2330 -0.5853  0.7635
 1904TIP3    H127203   1.590   1.358  16.812 -0.7274 -1.3989 -0.9096
 1904TIP3    H227204   1.678   1.358  16.690  0.6854  0.4923  0.0585
 1905TIP3   OH227205   5.554   2.482   0.541  0.0855  0.0414  0.0522
 1905TIP3    H127206   5.579   2.405   0.592 -2.1144 -0.2647  0.7712
 1905TIP3    H227207   5.619   2.487   0.471 -0.3357 -3.1750 -0.7162
 1906TIP3   OH227208   3.035   4.318  16.755 -0.3920  0.3062 -0.1742
 1906TIP3    H127209   3.110   4.293  16.810 -0.7575  0.3660  0.3594
 1906TIP3    H227210   2.970   4.352  16.817 -1.9282 -2.1942 -0.2780
 1907TIP3   OH227211   6.602   1.343   5.170  0.0860 -0.0397 -0.1705
 1907TIP3    H127212   6.659   1.370   5.098  0.5269 -2.2876 -0.7527
 1907TIP3    H227213   6.646   1.373   5.249  0.4609  0.9770 -0.7433
 1908TIP3   OH227214   1.726   1.674  16.108  0.5198 -0.1173  0.2451
 1908TIP3    H127215   1.764   1.755  16.072  0.5683  0.4937  1.5996
 1908TIP3    H227216   1.741   1.681  16.203 -2.6589 -0.0006  0.8306
 1909TIP3   OH227217   5.931   1.849   3.184  0.9172 -0.0653 -0.1686
 1909TIP3    H127218   5.958   1.875   3.272  0.1933  0.5555 -0.1242
 1909TIP3    H227219   5.868   1.778   3.198  0.7093  0.1163 -0.1789
 1910TIP3   OH227220   6.523   0.626   0.774  0.1676  0.0897  0.0388
 1910TIP3    H127221   6.489   0.713   0.751  1.5488  0.9619  1.1800
 1910TIP3    H227222   6.444   0.574   0.789 -0.6969  1.0651 -0.8956
 1911TIP3   OH227223   3.537   0.870   5.531 -0.6126 -0.2574  0.5854
 1911TIP3    H127224   3.495   0.926   5.466 -1.6508 -0.3551  1.1511
 1911TIP3    H227225   3.621   0.913   5.549 -0.7872  0.3485 -0.0147
 1912TIP3   OH227226   3.693   1.511  16.332  0.2773  0.4487 -0.3126
 1912TIP3    H127227   3.722   1.489  16.420  0.0992  0.9917 -0.1172
 1912TIP3    H227228   3.670   1.604  16.336  0.5853  0.5634 -1.0156
 1913TIP3   OH227229   2.236   6.501   3.807  0.1773 -0.6207 -0.4687
 1913TIP3    H127230   2.183   6.580   3.798  1.2272  0.0659 -0.7457
 1913TIP3    H227231   2.324   6.528   3.784  0.5739 -1.8612 -0.4941
 1914TIP3   OH227232   3.559   1.914  16.125 -0.1604  0.3419  0.9136
 1914TIP3    H127233   3.602   1.922  16.040 -0.0938 -0.4310  0.8609
 1914TIP3    H227234   3.484   1.857  16.109  0.1841 -0.2950  1.4715
 1915TIP3   OH227235   0.834   6.771  11.105  0.2803  0.0873 -0.1236
 1915TIP3    H127236   0.788   6.832  11.163  0.3027  1.9234 -1.9303
 1915TIP3    H227237   0.927   6.784  11.126  0.2171 -2.7354  2.6589
 1916TIP3   OH227238   1.273   4.695   6.220  0.3074  0.0137  0.7160
 1916TIP3    H127239   1.196   4.674   6.272  1.2036  0.6809  2.4169
 1916TIP3    H227240   1.252   4.666   6.132 -2.4803  1.5229  0.7647
 1917TIP3   OH227241   5.601   1.454  13.039  0.0911  0.5740 -0.0239
 1917TIP3    H127242   5.536   1.522  13.057  0.8724  0.9726  1.4764
 1917TIP3    H227243   5.664   1.495  12.980  1.1048  1.5683  1.6474
 1918TIP3   OH227244   4.359   3.034   5.396 -0.0012  0.1203  0.0127
 1918TIP3    H127245   4.353   2.987   5.313 -0.5344  1.8314 -0.9720
 1918TIP3    H227246   4.290   2.995   5.450  0.4830 -1.1523 -0.2407
 1919TIP3   OH227247   3.764   2.929   5.936  0.1963  0.5533 -0.2317
 1919TIP3    H127248   3.748   2.906   6.028  0.1541 -0.0324 -0.3793
 1919TIP3    H227249   3.802   2.850   5.898  2.9139  1.6875 -0.0588
 1920TIP3   OH227250   0.450   4.558  14.168 -0.8232 -0.6491  0.1466
 1920TIP3    H127251   0.463   4.648  14.136  2.5279 -0.7303  0.9308
 1920TIP3    H227252   0.500   4.504  14.106 -1.7288 -1.8267  0.4272
 1921TIP3   OH227253   0.048   6.499  16.867  0.2127  0.1469  0.0177
 1921TIP3    H127254  -0.002   6.423  16.836 -1.7190  1.3028  0.1219
 1921TIP3    H227255   0.118   6.509  16.803 -0.0780 -1.1455 -0.5447
 1922TIP3   OH227256   4.244   1.507   3.791 -0.2544 -0.2983 -0.3616
 1922TIP3    H127257   4.159   1.464   3.784 -0.6130  0.1735  0.8783
 1922TIP3    H227258   4.298   1.446   3.841 -0.7339  0.6158  1.3131
 1923TIP3   OH227259   2.040   6.348  16.597 -0.3110 -0.2678  0.4067
 1923TIP3    H127260   2.003   6.344  16.509 -0.1355 -1.3752  0.3667
 1923TIP3    H227261   1.999   6.424  16.637 -1.1917 -0.3727 -0.2718
 1924TIP3   OH227262   2.793   0.105  14.547  0.6876  0.4834  0.1072
 1924TIP3    H127263   2.763   0.195  14.532 -0.1692  0.4187  1.2303
 1924TIP3    H227264   2.856   0.113  14.619  0.1394  0.1227  0.6331
 1925TIP3   OH227265   0.158   0.921   5.326 -0.6514 -0.4589 -0.1966
 1925TIP3    H127266   0.086   0.900   5.386 -0.8423  0.0459 -0.2388
 1925TIP3    H227267   0.208   0.840   5.318  0.0425 -0.2406  1.5279
 1926TIP3   OH227268   6.383   5.267  16.223  0.3977  0.7451  0.3883
 1926TIP3    H127269   6.373   5.310  16.308 -1.4644  0.1804  0.5053
 1926TIP3    H227270   6.359   5.335  16.160  0.4791  0.7710  0.3838
 1927TIP3   OH227271   2.830   5.571  12.069  0.0948  0.4200 -0.0848
 1927TIP3    H127272   2.795   5.496  12.022 -0.7340 -2.0517  3.9998
 1927TIP3    H227273   2.756   5.604  12.120  1.2123  2.0268  0.5800
 1928TIP3   OH227274   5.702   4.979  13.493 -0.6362  0.3314  0.3355
 1928TIP3    H127275   5.619   5.025  13.483 -0.9318 -0.4631 -1.2713
 1928TIP3    H227276   5.687   4.894  13.451  0.7401 -0.1333  0.7415
 1929TIP3   OH227277   5.860   1.990  13.189 -0.7648 -0.1923  0.3088
 1929TIP3    H127278   5.851   2.013  13.282 -0.6525 -1.9037  0.7693
 1929TIP3    H227279   5.954   1.996  13.172 -0.7705 -0.0102  0.3374
 1930TIP3   OH227280   3.475   4.084   1.388  0.5739  0.4652 -0.0785
 1930TIP3    H127281   3.534   4.157   1.373  0.9699  0.1845  0.1093
 1930TIP3    H227282   3.388   4.119   1.368  0.7933  0.8970 -0.2865
 1931TIP3   OH227283   2.868   4.905  13.293 -0.1812 -0.0474 -0.0316
 1931TIP3    H127284   2.779   4.876  13.276 -0.1921 -1.9951  2.7814
 1931TIP3    H227285   2.919   4.868  13.220 -1.5898  1.3263 -1.8237
 1932TIP3   OH227286   1.689   5.296   4.444 -0.4448  0.1915 -0.3278
 1932TIP3    H127287   1.656   5.224   4.390  3.1260 -1.2156 -0.9481
 1932TIP3    H227288   1.717   5.253   4.526 -0.5377  1.3154  0.3099
 1933TIP3   OH227289   3.999   0.240  11.761  0.4097 -0.0791 -0.4586
 1933TIP3    H127290   3.981   0.276  11.848  0.1694  0.6710 -0.8038
 1933TIP3    H227291   3.935   0.283  11.704 -0.3216 -1.5441 -0.8031
 1934TIP3   OH227292   4.989   5.083   2.150  0.3693 -0.0969 -0.6522
 1934TIP3    H127293   4.979   5.017   2.081  2.2259  0.9196 -1.9652
 1934TIP3    H227294   5.075   5.122   2.135  0.6100  0.5629  1.9353
 1935TIP3   OH227295   4.988   2.333  15.592 -0.5665  0.0398  0.0238
 1935TIP3    H127296   4.993   2.410  15.648 -0.3720 -0.1691  0.2989
 1935TIP3    H227297   4.962   2.367  15.506 -1.0552  0.3409  0.2855
 1936TIP3   OH227298   5.233   5.001   4.698  0.5194  0.9517 -0.5496
 1936TIP3    H127299   5.182   4.924   4.724  0.9312  0.5900 -0.7863
 1936TIP3    H227300   5.225   5.005   4.603 -0.9091  2.2224 -0.4103
 1937TIP3   OH227301   0.700   0.257   5.223 -0.1588  0.0602  0.3018
 1937TIP3    H127302   0.630   0.312   5.258  0.6910  1.4802 -0.1676
 1937TIP3    H227303   0.780   0.288   5.265  0.6237  0.5894 -1.4502
 1938TIP3   OH227304   4.842   6.769   4.181  0.0812 -0.4452 -0.1093
 1938TIP3    H127305   4.937   6.777   4.171  0.3524 -2.4538  0.4162
 1938TIP3    H227306   4.825   6.676   4.167 -1.7039 -0.2736  0.7268
 1939TIP3   OH227307   1.417   4.647   5.604 -0.0427 -0.3544 -0.3362
 1939TIP3    H127308   1.333   4.640   5.650 -0.5642 -1.4183 -1.3999
 1939TIP3    H227309   1.458   4.726   5.640 -1.2539 -0.1245  0.5884
 1940TIP3   OH227310   5.202   3.088  13.106  0.6407 -0.2817 -0.0769
 1940TIP3    H127311   5.153   3.126  13.179 -0.4146 -1.4996 -0.1067
 1940TIP3    H227312   5.286   3.064  13.143 -0.3653 -2.1366  1.1359
 1941TIP3   OH227313   2.360   3.178  14.300 -0.1101  0.3481  0.4061
 1941TIP3    H127314   2.268   3.168  14.320  0.3000 -2.1651  1.3417
 1941TIP3    H227315   2.380   3.105  14.241  0.8565  2.0659 -1.5191
 1942TIP3   OH227316   5.327   5.521   0.519  0.1147  0.0803 -0.1932
 1942TIP3    H127317   5.330   5.473   0.436 -0.7006  0.5639 -0.5133
 1942TIP3    H227318   5.259   5.478   0.570  0.5341 -0.1420  0.1801
 1943TIP3   OH227319   1.013   1.038   4.918 -0.2250  0.2835 -0.0604
 1943TIP3    H127320   1.076   0.971   4.946  0.2660  0.3034 -1.0654
 1943TIP3    H227321   1.068   1.110   4.887 -0.7381  1.3987  1.5174
 1944TIP3   OH227322   6.549   1.383   2.294 -0.3187 -0.1436 -0.2954
 1944TIP3    H127323   6.482   1.380   2.362  0.6314 -0.6497  0.6643
 1944TIP3    H227324   6.501   1.377   2.212 -1.3986 -1.2449  0.3875
 1945TIP3   OH227325   3.107   2.357   4.928 -0.7135 -0.0882 -0.1773
 1945TIP3    H127326   3.148   2.274   4.905 -2.6152 -0.5073 -2.4466
 1945TIP3    H227327   3.176   2.423   4.916 -0.2617 -0.9062 -2.3995
 1946TIP3   OH227328   0.836   1.403   6.250 -0.0821 -0.1882  0.0552
 1946TIP3    H127329   0.895   1.477   6.263 -0.1678  0.1278 -1.1935
 1946TIP3    H227330   0.837   1.356   6.333 -0.5518  1.5831  1.1048
 1947TIP3   OH227331   2.520   4.695  13.059  0.1787 -0.4887  0.0515
 1947TIP3    H127332   2.484   4.607  13.071  1.9255 -1.0898  1.2592
 1947TIP3    H227333   2.610   4.689  13.091  0.2649  1.8096  0.4012
 1948TIP3   OH227334   5.678   4.672   1.122  0.1176 -0.2931  0.0200
 1948TIP3    H127335   5.593   4.663   1.165  0.1590  0.2501  0.2323
 1948TIP3    H227336   5.659   4.663   1.029 -0.2933  0.5302  0.0089
 1949TIP3   OH227337   6.504   6.010  13.812 -0.3349  0.0511  0.1213
 1949TIP3    H127338   6.459   6.076  13.864  0.8640 -0.9958  2.6836
 1949TIP3    H227339   6.583   6.053  13.780  0.6614 -0.1833  2.1413
 1950TIP3   OH227340   4.763   0.448  16.485 -0.5069  0.0204  0.0673
 1950TIP3    H127341   4.778   0.369  16.433 -0.6225  0.3413 -0.4533
 1950TIP3    H227342   4.848   0.494  16.484  0.1406 -1.0095  1.9493
 1951TIP3   OH227343   2.325   3.714   1.635 -0.0336 -0.2316 -0.5631
 1951TIP3    H127344   2.283   3.628   1.642  0.4084 -0.3218  1.8622
 1951TIP3    H227345   2.257   3.770   1.597 -1.0900 -1.1792 -0.1510
 1952TIP3   OH227346   2.127   1.759  13.984  0.1207 -0.1410 -0.1991
 1952TIP3    H127347   2.152   1.708  13.907 -1.6057  0.8473 -1.4655
 1952TIP3    H227348   2.205   1.810  14.006  1.4383 -2.2627  0.2827
 1953TIP3   OH227349   0.194   4.078  14.798 -0.2934 -0.6106 -0.1112
 1953TIP3    H127350   0.245   4.144  14.750  0.4442 -1.7186 -0.9061
 1953TIP3    H227351   0.176   4.010  14.733 -1.6856 -0.8517  0.5005
 1954TIP3   OH227352   6.721   0.643  16.613  0.4520  0.6394 -0.0066
 1954TIP3    H127353   6.683   0.606  16.693  0.1674  0.9525  0.0056
 1954TIP3    H227354   6.713   0.573  16.548 -1.3695  1.1375 -0.3663
 1955TIP3   OH227355   6.245   6.337   0.629  0.3889  0.0037  0.3869
 1955TIP3    H127356   6.247   6.379   0.715  0.2603 -2.0818  1.4585
 1955TIP3    H227357   6.334   6.344   0.596  1.3416 -2.1980  2.2685
 1956TIP3   OH227358   0.681   6.542   4.556  0.0489  0.2357 -0.2473
 1956TIP3    H127359   0.765   6.519   4.596 -0.2177  0.0394  0.1987
 1956TIP3    H227360   0.676   6.637   4.564  0.1695  0.2346 -0.1579
 1957TIP3   OH227361   3.516   0.528   0.821  0.1261 -0.7961  0.7534
 1957TIP3    H127362   3.429   0.489   0.808 -0.9815  1.7214 -0.0430
 1957TIP3    H227363   3.523   0.539   0.916  0.3534 -2.5038  0.9813
 1958TIP3   OH227364   2.811   0.737   0.290 -0.0274 -0.2270  0.3304
 1958TIP3    H127365   2.745   0.752   0.359  0.2965  0.8996  0.4217
 1958TIP3    H227366   2.880   0.688   0.334 -1.5084 -2.9301 -0.1868
 1959TIP3   OH227367   3.609   3.337   1.475 -0.2904  0.3503  0.1661
 1959TIP3    H127368   3.558   3.270   1.429  1.1205 -0.4599 -0.2866
 1959TIP3    H227369   3.592   3.418   1.427 -1.2424  0.1289  0.1102
 1960TIP3   OH227370   5.506   1.759  15.077 -0.5915 -0.4108  0.0252
 1960TIP3    H127371   5.485   1.758  15.170  2.3005 -2.3813  0.8039
 1960TIP3    H227372   5.551   1.842  15.063 -1.3494  0.0502  0.2611
 1961TIP3   OH227373   6.151   2.472  13.073  0.1182  0.2710  0.5142
 1961TIP3    H127374   6.109   2.550  13.110 -1.1363 -0.0434 -0.1825
 1961TIP3    H227375   6.080   2.409  13.064  0.5555 -0.0008 -1.5005
 1962TIP3   OH227376   3.081   1.335  12.945  0.0073  0.0940  0.1908
 1962TIP3    H127377   3.111   1.422  12.972 -2.1293  0.8635  0.2654
 1962TIP3    H227378   2.991   1.330  12.977 -0.1886 -1.8344 -0.5514
 1963TIP3   OH227379   1.032   3.232   4.990 -0.5356  0.3586 -0.1320
 1963TIP3    H127380   1.126   3.215   4.983 -0.5756 -0.4152  0.9536
 1963TIP3    H227381   1.022   3.273   5.076 -0.9781  2.1594 -1.0010
 1964TIP3   OH227382   1.830   2.357   0.737  0.1734  0.2605 -0.1244
 1964TIP3    H127383   1.790   2.275   0.708 -2.0396  0.8316  1.1023
 1964TIP3    H227384   1.756   2.417   0.749  1.6420  2.1479 -0.0293
 1965TIP3   OH227385   6.265   4.209  13.866  0.0669 -0.4302  0.2264
 1965TIP3    H127386   6.199   4.210  13.935 -0.6480 -0.2483 -0.4422
 1965TIP3    H227387   6.227   4.262  13.796  1.1357  0.0957  0.0153
 1966TIP3   OH227388   6.316   6.419   1.811  0.2414  0.2911 -0.1585
 1966TIP3    H127389   6.226   6.389   1.793 -0.2469  1.1455  0.7717
 1966TIP3    H227390   6.357   6.422   1.724 -1.1491  1.4759 -0.8288
 1967TIP3   OH227391   5.005   0.993  14.036 -0.2500 -0.5768  0.6030
 1967TIP3    H127392   5.052   0.936  13.975 -0.3511 -0.2203  0.1806
 1967TIP3    H227393   5.062   1.000  14.112  0.2574 -0.3727  0.2101
 1968TIP3   OH227394   5.866   0.280  13.212 -0.6082  0.0283  0.0189
 1968TIP3    H127395   5.878   0.369  13.177 -0.4851  0.1336  0.3208
 1968TIP3    H227396   5.873   0.223  13.135  0.9906  0.1483  0.0274
 1969TIP3   OH227397   1.161   2.556  15.668 -0.3205  0.0326 -0.6632
 1969TIP3    H127398   1.214   2.577  15.591 -0.5988  0.4672 -0.7434
 1969TIP3    H227399   1.073   2.541  15.632 -0.7198  1.4258 -0.3022
 1970TIP3   OH227400   5.294   5.900   2.664 -0.3700  0.0861  0.5126
 1970TIP3    H127401   5.372   5.928   2.712  0.3191 -1.5704  0.4244
 1970TIP3    H227402   5.327   5.878   2.577 -0.9350 -0.6360  0.4761
 1971TIP3   OH227403   1.689   5.102  12.637 -0.1961 -0.4982 -0.0952
 1971TIP3    H127404   1.710   5.023  12.686  0.1779 -1.9347 -2.4324
 1971TIP3    H227405   1.754   5.106  12.568 -1.3553  0.7881 -1.1789
 1972TIP3   OH227406   5.040   4.671   4.057 -0.2398 -0.1046  0.4455
 1972TIP3    H127407   4.956   4.638   4.024  0.2933  0.0873 -1.2414
 1972TIP3    H227408   5.064   4.740   3.995  1.2613 -0.3057  0.7643
 1973TIP3   OH227409   3.268   3.474  15.913  0.3081  0.4924  0.1831
 1973TIP3    H127410   3.341   3.536  15.906 -0.1409  0.9138 -0.9793
 1973TIP3    H227411   3.193   3.522  15.878  0.2527 -1.2129 -2.2631
 1974TIP3   OH227412   0.289   5.542  14.540  0.0484 -0.2360  0.5223
 1974TIP3    H127413   0.344   5.592  14.479 -1.5878 -1.0370 -1.7490
 1974TIP3    H227414   0.330   5.456  14.545  1.5909  0.5318  2.6538
 1975TIP3   OH227415   1.932   3.936  11.674 -0.7653 -0.4646 -0.3014
 1975TIP3    H127416   1.846   3.950  11.713 -0.5245 -1.5140  0.6846
 1975TIP3    H227417   1.974   3.872  11.732  1.2599  1.1134  0.0944
 1976TIP3   OH227418   1.858   0.438  14.121  0.0156 -0.2411 -0.4331
 1976TIP3    H127419   1.941   0.418  14.165 -0.8229  1.3036  2.0285
 1976TIP3    H227420   1.880   0.511  14.062  0.4547  0.0527  0.0800
 1977TIP3   OH227421   0.045   3.744   4.434  0.5591 -0.5191 -0.4680
 1977TIP3    H127422   0.040   3.834   4.402  1.1703 -1.1019 -2.3335
 1977TIP3    H227423  -0.032   3.701   4.396 -0.3141 -0.5678  1.2688
 1978TIP3   OH227424   0.695   0.399   1.755  0.5172  0.3822 -0.1169
 1978TIP3    H127425   0.636   0.433   1.687  0.1122  0.1608  0.1151
 1978TIP3    H227426   0.766   0.356   1.707  0.3226  0.3803 -0.4031
 1979TIP3   OH227427   6.019   2.369  15.999  0.2845  0.3651  0.1539
 1979TIP3    H127428   6.080   2.302  16.030  0.2837  0.2748 -0.0414
 1979TIP3    H227429   5.959   2.323  15.940 -0.1917  0.3854  0.6199
 1980TIP3   OH227430   4.221   3.114   3.159 -0.1806  0.3174 -0.1909
 1980TIP3    H127431   4.191   3.066   3.236  1.4569  0.1645  0.3895
 1980TIP3    H227432   4.233   3.204   3.190  3.4171 -0.2821  0.7108
 1981TIP3   OH227433   1.082   2.848  11.605 -0.1604 -0.4047 -0.3757
 1981TIP3    H127434   1.041   2.761  11.600  0.7215 -0.8321 -0.4012
 1981TIP3    H227435   1.010   2.909  11.594 -0.6140 -1.1433 -1.7952
 1982TIP3   OH227436   6.778   1.051  15.247  0.2732  0.0761  0.0505
 1982TIP3    H127437   6.848   1.023  15.306  0.8981 -0.8213 -1.0820
 1982TIP3    H227438   6.719   1.101  15.303  1.4452  0.2506  1.1880
 1983TIP3   OH227439   5.669   0.996  15.037  0.4901  0.3028  0.1017
 1983TIP3    H127440   5.626   1.057  15.097 -0.4895  0.4305 -0.6977
 1983TIP3    H227441   5.739   1.046  14.998 -0.0288  0.7925 -0.2150
 1984TIP3   OH227442   5.346   0.876   4.558  0.3632 -0.4404  0.2724
 1984TIP3    H127443   5.438   0.889   4.582  0.7333 -0.3055 -1.1631
 1984TIP3    H227444   5.299   0.941   4.609  1.4060  1.5587 -1.1974
 1985TIP3   OH227445   0.900   0.708   3.101  1.0146 -0.1592  1.4683
 1985TIP3    H127446   0.920   0.618   3.125 -1.8962 -0.7044  2.2588
 1985TIP3    H227447   0.849   0.700   3.020  1.1380  0.8176  1.2869
 1986TIP3   OH227448   4.361   5.637   3.226 -0.5173 -0.4997  0.3034
 1986TIP3    H127449   4.316   5.720   3.239  0.2719  0.1397 -0.8214
 1986TIP3    H227450   4.319   5.599   3.149  0.8350  0.1404 -0.8050
 1987TIP3   OH227451   0.219   6.721   1.360  0.3854  0.2918  0.5549
 1987TIP3    H127452   0.280   6.790   1.387 -0.4151  0.3884  2.2157
 1987TIP3    H227453   0.256   6.641   1.396  0.9571 -0.0824 -0.8026
 1988TIP3   OH227454   6.683   2.234   3.315 -0.4701 -0.4071  0.0296
 1988TIP3    H127455   6.740   2.288   3.262 -0.6419  0.8383  1.0637
 1988TIP3    H227456   6.637   2.296   3.372 -0.5661 -1.6379  1.3553
 1989TIP3   OH227457   5.209   2.626   3.972 -0.4815  0.6560 -0.0304
 1989TIP3    H127458   5.258   2.545   3.955 -2.2835 -0.5239  0.0959
 1989TIP3    H227459   5.163   2.643   3.890 -1.9849  0.1625  0.6828
 1990TIP3   OH227460   3.587   3.932  15.046 -0.4069 -0.0868 -0.1252
 1990TIP3    H127461   3.496   3.950  15.070 -0.9862 -2.0149 -0.6537
 1990TIP3    H227462   3.619   3.873  15.114  0.4888  0.6065  0.0833
 1991TIP3   OH227463   2.402   1.104  12.953 -0.1369  0.2320  0.0641
 1991TIP3    H127464   2.340   1.137  12.888  1.6877  1.7281 -1.0197
 1991TIP3    H227465   2.389   1.160  13.029 -0.2928  0.3693 -0.0628
 1992TIP3   OH227466   1.295   2.166   1.764  0.3331 -0.5612 -0.4778
 1992TIP3    H127467   1.289   2.088   1.710 -0.7997 -0.5076 -0.4612
 1992TIP3    H227468   1.338   2.231   1.708 -0.9583 -0.4538 -1.4137
 1993TIP3   OH227469   1.768   6.197  15.721 -0.2462 -0.2939 -0.6083
 1993TIP3    H127470   1.678   6.220  15.702  0.2620  1.7045 -0.7552
 1993TIP3    H227471   1.769   6.101  15.716 -2.2437 -0.3436 -1.0010
 1994TIP3   OH227472   5.571   1.851   2.861  0.1892 -0.1552  0.0636
 1994TIP3    H127473   5.600   1.778   2.916  1.0122  0.9627  1.1341
 1994TIP3    H227474   5.572   1.927   2.918  1.2436  1.0910 -1.5361
 1995TIP3   OH227475   5.958   0.887  14.729 -0.1382 -0.0409 -0.0115
 1995TIP3    H127476   5.963   0.983  14.728  0.0355 -0.0509 -0.1233
 1995TIP3    H227477   5.876   0.868  14.775 -0.8485  0.1841 -1.1448
 1996TIP3   OH227478   3.668   2.635  15.517  0.0252  0.5512  0.3423
 1996TIP3    H127479   3.574   2.616  15.522  0.1941 -0.4147  0.0461
 1996TIP3    H227480   3.697   2.637  15.609  0.2277 -1.9598  0.3999
 1997TIP3   OH227481   1.449   2.776   6.077  0.2071 -0.4641 -0.3121
 1997TIP3    H127482   1.407   2.738   5.999  0.2086  1.8145 -1.5217
 1997TIP3    H227483   1.543   2.774   6.056  0.1342  1.2649 -0.9854
 1998TIP3   OH227484   2.177   4.816   1.344 -0.6668 -0.6307  0.4573
 1998TIP3    H127485   2.159   4.906   1.372  0.7521 -0.2235  0.1216
 1998TIP3    H227486   2.103   4.794   1.287 -0.3519  0.8202 -0.5702
 1999TIP3   OH227487   2.017   0.454   4.431 -0.3756 -0.6250 -0.3730
 1999TIP3    H127488   1.962   0.420   4.360 -2.8799  0.5004  0.8843
 1999TIP3    H227489   2.022   0.548   4.415 -2.3019 -0.0915  1.6694
 2000TIP3   OH227490   3.208   6.653  13.356  0.7801  0.5553 -0.2337
 2000TIP3    H127491   3.256   6.733  13.377 -1.5114  1.8875  0.2411
 2000TIP3    H227492   3.154   6.676  13.280 -0.4452 -0.3164  0.3372
 2001TIP3   OH227493   3.126   3.552   4.926  0.3033 -0.0946  0.6880
 2001TIP3    H127494   3.092   3.467   4.952 -1.1939  0.3586  0.3206
 2001TIP3    H227495   3.221   3.545   4.938  0.3229 -2.1201 -0.2684
 2002TIP3   OH227496   2.906   4.429   1.640  0.2654 -0.1611 -0.1560
 2002TIP3    H127497   2.848   4.408   1.567  0.4356 -2.1492  0.2279
 2002TIP3    H227498   2.994   4.409   1.608  0.3306 -1.1651  0.5900
 2003TIP3   OH227499   3.254   2.242   1.766 -0.2428 -0.2607  0.3480
 2003TIP3    H127500   3.191   2.236   1.695 -0.9039  0.2137  0.8919
 2003TIP3    H227501   3.305   2.161   1.759  0.4991  0.3062 -1.3942
 2004TIP3   OH227502   6.575   6.090  13.284  0.1786 -0.2175  0.1247
 2004TIP3    H127503   6.559   6.098  13.378 -0.9479 -2.2125  0.1337
 2004TIP3    H227504   6.639   6.019  13.276  0.1356 -0.1837 -0.6281
 2005TIP3   OH227505   2.431   6.319  13.295  0.3547 -0.0960 -0.1012
 2005TIP3    H127506   2.404   6.411  13.303 -0.4607 -0.3899  0.6752
 2005TIP3    H227507   2.392   6.276  13.372  0.9250 -1.0447 -0.3332
 2006TIP3   OH227508   6.525   3.543  12.200  0.0036  0.0967 -0.5122
 2006TIP3    H127509   6.432   3.525  12.185 -0.0569  0.6313 -0.7989
 2006TIP3    H227510   6.542   3.623  12.151  0.2538  0.8772  0.8152
 2007TIP3   OH227511   0.465   3.010   2.706 -0.1899  0.2355  0.0806
 2007TIP3    H127512   0.419   2.927   2.693 -2.2510  1.4228 -0.7998
 2007TIP3    H227513   0.555   2.991   2.682 -0.4217 -1.9306  0.6997
 2008TIP3   OH227514   4.235   6.737  14.852  0.1296 -0.6054 -0.0522
 2008TIP3    H127515   4.293   6.694  14.914 -0.7553 -4.1154 -1.4187
 2008TIP3    H227516   4.290   6.756  14.776  0.9752  2.7771  1.2133
 2009TIP3   OH227517   6.624   5.438   1.655 -0.1876  0.3949 -1.2305
 2009TIP3    H127518   6.610   5.359   1.708 -1.0297  0.5431 -1.2166
 2009TIP3    H227519   6.565   5.502   1.693  0.3147  0.9662 -1.4005
 2010TIP3   OH227520   3.044   3.764   4.028 -0.8294 -0.0068  0.1220
 2010TIP3    H127521   3.091   3.687   3.997 -0.7871  0.1278 -0.1530
 2010TIP3    H227522   2.955   3.733   4.045 -1.0394  0.0738 -0.8131
 2011TIP3   OH227523   4.033   5.463   2.549 -0.4772  0.3367 -1.0824
 2011TIP3    H127524   3.941   5.440   2.532 -0.5860 -0.8401  0.8078
 2011TIP3    H227525   4.070   5.385   2.590  0.5454  1.8091  0.9738
 2012TIP3   OH227526   0.672   5.914  12.690  0.2276 -0.0386  0.4935
 2012TIP3    H127527   0.608   5.844  12.698 -1.9032  1.9492  2.5681
 2012TIP3    H227528   0.694   5.915  12.597 -1.9445 -1.5335 -0.1339
 2013TIP3   OH227529   0.695   0.570  16.584  0.1373 -0.0646 -0.9948
 2013TIP3    H127530   0.714   0.662  16.566 -2.6763  0.7349 -0.4089
 2013TIP3    H227531   0.656   0.571  16.671 -3.2067 -1.2335 -2.3397
 2014TIP3   OH227532   2.645   2.582   4.444 -0.0596 -0.5038  0.0745
 2014TIP3    H127533   2.576   2.577   4.509 -0.2650 -0.5401 -0.1464
 2014TIP3    H227534   2.704   2.650   4.477  0.0419 -0.7926  0.4921
 2015TIP3   OH227535   2.804   0.662  16.686  0.7558  0.1341 -0.3630
 2015TIP3    H127536   2.872   0.713  16.641  0.8093  0.6323  0.2635
 2015TIP3    H227537   2.849   0.582  16.713  1.1558  0.5435  0.2134
 2016TIP3   OH227538   1.777   5.600   6.716  0.0196  0.6914  0.0031
 2016TIP3    H127539   1.849   5.649   6.677  0.7022 -1.4970 -1.6614
 2016TIP3    H227540   1.800   5.508   6.704 -0.2692 -0.2764  4.6689
 2017TIP3   OH227541   0.183   1.808  14.512  0.1485  0.8218 -0.5624
 2017TIP3    H127542   0.238   1.886  14.501 -0.2417  1.5671  2.0984
 2017TIP3    H227543   0.110   1.837  14.566 -1.3049 -0.8722 -1.5147
 2018TIP3   OH227544   5.578   5.639  14.201 -0.3914  0.0415 -0.0767
 2018TIP3    H127545   5.552   5.568  14.142 -1.1515 -0.0118  0.3177
 2018TIP3    H227546   5.650   5.683  14.155 -0.8225 -0.1379 -0.9383
 2019TIP3   OH227547   5.939   1.117   1.211 -0.7394  0.2116  0.3303
 2019TIP3    H127548   5.916   1.203   1.176  0.1077  0.5010  0.4723
 2019TIP3    H227549   5.926   1.057   1.137 -1.8635  0.3659  0.3881
 2020TIP3   OH227550   4.745   5.345  13.630 -0.2501 -0.2988  0.2232
 2020TIP3    H127551   4.666   5.389  13.662 -1.0426 -1.5512  0.0744
 2020TIP3    H227552   4.756   5.270  13.689 -0.2204 -1.1464 -0.8188
 2021TIP3   OH227553   1.593   0.512  16.343  0.7192  0.6871 -0.0826
 2021TIP3    H127554   1.654   0.493  16.272  0.8426 -2.6624  0.7732
 2021TIP3    H227555   1.631   0.588  16.387  2.1517  1.0663 -1.8378
 2022TIP3   OH227556   2.839   4.403  14.279 -0.5955 -0.4198  0.1117
 2022TIP3    H127557   2.846   4.315  14.317 -1.7748 -0.1304  1.0436
 2022TIP3    H227558   2.854   4.390  14.186 -0.5985 -1.5915  0.2603
 2023TIP3   OH227559   5.850   3.282  14.760  0.2937  0.1675 -0.2297
 2023TIP3    H127560   5.799   3.336  14.819  0.1083 -1.8229  1.5526
 2023TIP3    H227561   5.901   3.344  14.708 -0.6866  2.0428  0.9370
 2024TIP3   OH227562   3.839   5.826   3.942 -0.1319 -0.2545 -0.2146
 2024TIP3    H127563   3.818   5.737   3.916  0.9403 -0.2457 -1.2172
 2024TIP3    H227564   3.796   5.838   4.026 -0.2592 -1.7242 -0.0501
 2025TIP3   OH227565   4.218   6.648  11.449 -0.2117 -0.3790 -0.6617
 2025TIP3    H127566   4.301   6.602  11.456 -0.1006  0.0205  1.0321
 2025TIP3    H227567   4.209   6.666  11.355  1.2310 -1.0931 -0.9697
 2026TIP3   OH227568   3.063   1.306  16.706 -0.1449  0.3400  0.1829
 2026TIP3    H127569   3.045   1.248  16.780  1.2817 -0.5158 -0.0877
 2026TIP3    H227570   3.132   1.260  16.657 -0.0976  1.5396 -0.9105
 2027TIP3   OH227571   6.055   5.026   0.610  0.1600  0.0891 -0.1727
 2027TIP3    H127572   6.043   4.961   0.679 -0.2165  0.5863  0.2419
 2027TIP3    H227573   6.043   4.977   0.529 -1.0225 -0.1992  0.1486
 2028TIP3   OH227574   4.286   6.822  11.899 -0.0394  0.1967  0.5472
 2028TIP3    H127575   4.326   6.823  11.813  0.5417  1.4808  0.8161
 2028TIP3    H227576   4.198   6.788  11.884 -0.5112  1.8744 -0.8262
 2029TIP3   OH227577   1.891   1.730  14.775  0.0821  0.7857 -0.4892
 2029TIP3    H127578   1.882   1.701  14.684 -1.9651 -0.7981  0.1370
 2029TIP3    H227579   1.859   1.820  14.775 -1.6364  0.2174 -1.0921
 2030TIP3   OH227580   5.560   4.551   4.958 -0.0704 -0.9884 -0.2622
 2030TIP3    H127581   5.535   4.528   5.047 -0.4555 -0.2021 -0.1616
 2030TIP3    H227582   5.633   4.493   4.938  1.7657  0.5632  1.5170
 2031TIP3   OH227583   0.678   5.864   3.885  0.4774 -0.6132 -0.3412
 2031TIP3    H127584   0.718   5.932   3.939  0.8543 -1.2497  0.1879
 2031TIP3    H227585   0.649   5.798   3.947  0.3673 -1.0733 -0.8753
 2032TIP3   OH227586   3.234   4.022  12.970 -0.1605  0.3174 -0.2704
 2032TIP3    H127587   3.280   3.999  12.890 -1.6157  0.4511 -1.1692
 2032TIP3    H227588   3.174   4.091  12.945  0.8160  1.8684  1.3987
 2033TIP3   OH227589   0.848   1.196  12.644 -0.3482  0.0372  0.2590
 2033TIP3    H127590   0.871   1.119  12.695 -0.7693  0.3240  0.8935
 2033TIP3    H227591   0.923   1.254  12.652 -0.1445 -0.1888  0.0064
 2034TIP3   OH227592   5.031   3.205   2.496 -0.3080 -0.5954 -0.1799
 2034TIP3    H127593   5.065   3.130   2.544  1.1443  0.3014  0.2720
 2034TIP3    H227594   4.972   3.249   2.557 -0.3026 -0.7645 -0.0557
 2035TIP3   OH227595   4.097   3.377  13.272 -0.3603  0.1460  0.3510
 2035TIP3    H127596   4.098   3.419  13.186 -1.6474  2.0969  1.2168
 2035TIP3    H227597   4.180   3.330  13.277  0.3402  1.1137 -1.4384
 2036TIP3   OH227598   4.617   0.501   6.385  0.1279 -0.1254 -0.2450
 2036TIP3    H127599   4.601   0.408   6.369  1.2189 -0.5698  1.0779
 2036TIP3    H227600   4.574   0.519   6.468  1.2638  0.1624  0.2926
 2037TIP3   OH227601   2.559   4.525   5.242 -0.2481 -0.3829 -0.5843
 2037TIP3    H127602   2.607   4.606   5.259 -1.7651  0.9332 -2.1945
 2037TIP3    H227603   2.566   4.513   5.147 -5.3114  1.4981 -1.5059
 2038TIP3   OH227604   4.539   5.506  14.941  0.2948 -0.3735  0.0383
 2038TIP3    H127605   4.453   5.539  14.968  0.3659 -1.8043  2.3066
 2038TIP3    H227606   4.591   5.584  14.925 -0.0958  0.7107  3.2737
 2039TIP3   OH227607   3.105   2.237   1.995  0.0353 -0.6868 -0.7713
 2039TIP3    H127608   3.163   2.242   1.919 -0.9224  1.5602 -1.4616
 2039TIP3    H227609   3.025   2.282   1.966  0.2810  1.8663  2.0778
 2040TIP3   OH227610   6.340   1.878  16.750 -0.1056 -0.1223  0.3865
 2040TIP3    H127611   6.421   1.835  16.723 -0.1243  0.2434 -0.2604
 2040TIP3    H227612   6.359   1.971  16.740 -0.7190 -0.0470 -0.0792
 2041TIP3   OH227613   3.217   4.509   2.859 -0.1925 -0.3753  0.0822
 2041TIP3    H127614   3.311   4.525   2.850 -0.3742 -0.6265 -3.5320
 2041TIP3    H227615   3.176   4.590   2.828 -1.1236 -1.1292 -0.7400
 2042TIP3   OH227616   6.608   6.032   0.254  0.4256  0.2987  0.4068
 2042TIP3    H127617   6.524   5.995   0.280  0.8412 -0.1283  1.1533
 2042TIP3    H227618   6.611   6.018   0.159  0.0866 -0.5665  0.5119
 2043TIP3   OH227619   6.105   3.074  12.442 -0.2564  0.7265 -0.3792
 2043TIP3    H127620   6.023   3.122  12.449  0.2481  2.3189 -3.5158
 2043TIP3    H227621   6.171   3.141  12.425  1.0872 -0.7616 -1.3814
 2044TIP3   OH227622   0.374   0.636  12.369 -0.1749 -0.0323  0.4845
 2044TIP3    H127623   0.390   0.598  12.283  0.0217  2.5664 -0.7349
 2044TIP3    H227624   0.283   0.668  12.364  0.1491  0.9857  0.8452
 2045TIP3   OH227625   0.867   3.472   4.058 -0.1389  0.4913 -0.0021
 2045TIP3    H127626   0.830   3.383   4.056 -0.1041  0.4779 -0.0490
 2045TIP3    H227627   0.872   3.493   4.151  1.5015 -0.2496  0.1150
 2046TIP3   OH227628   5.844   2.341   6.066  0.2503  0.3288 -0.5911
 2046TIP3    H127629   5.923   2.288   6.074 -0.4853 -0.7914 -0.5740
 2046TIP3    H227630   5.772   2.279   6.075 -0.6393  1.2443 -1.1693
 2047TIP3   OH227631   6.733   0.559  12.062 -0.1154 -0.4529  0.0481
 2047TIP3    H127632   6.649   0.582  12.101 -0.7391  0.2332 -1.6374
 2047TIP3    H227633   6.723   0.467  12.035 -0.2079 -0.4649  0.1232
 2048TIP3   OH227634   0.282   1.026   3.508  0.5485  0.1077 -0.0076
 2048TIP3    H127635   0.264   1.110   3.550  1.7864 -0.1420  1.0925
 2048TIP3    H227636   0.226   0.964   3.553  1.0701  0.0276  0.5465
 2049TIP3   OH227637   2.836   1.852  16.200 -0.3409  0.0015  0.0884
 2049TIP3    H127638   2.860   1.809  16.282 -0.9158 -0.2771  0.1212
 2049TIP3    H227639   2.773   1.920  16.226 -0.5005 -0.0667 -0.1143
 2050TIP3   OH227640   5.959   3.309  16.553  0.4394 -0.2380  0.6965
 2050TIP3    H127641   5.868   3.341  16.553  0.9393  1.3479 -0.7090
 2050TIP3    H227642   5.952   3.220  16.519 -0.5254  0.2448 -0.4771
 2051TIP3   OH227643   5.996   4.063  16.121  0.3755  0.1634  0.4536
 2051TIP3    H127644   6.090   4.046  16.109  0.7619  2.4185 -0.3595
 2051TIP3    H227645   5.993   4.133  16.187 -0.8044 -0.4721  1.0986
 2052TIP3   OH227646   4.521   2.755   1.766  0.0838  0.0361 -0.2677
 2052TIP3    H127647   4.601   2.802   1.790  0.4338  0.1740 -1.6352
 2052TIP3    H227648   4.452   2.799   1.815  0.9431 -0.7509  1.7539
 2053TIP3   OH227649   0.010   4.559   4.909 -0.1983  0.1245 -0.0040
 2053TIP3    H127650  -0.032   4.502   4.843 -1.2163  1.0218 -0.1614
 2053TIP3    H227651   0.099   4.571   4.877 -0.1035 -0.9955 -0.2120
 2054TIP3   OH227652   1.667   5.059  11.689  0.0313  0.2377  0.2104
 2054TIP3    H127653   1.631   5.122  11.627  0.8076  0.7437  0.2511
 2054TIP3    H227654   1.755   5.091  11.707  0.1600 -0.4317  0.8430
 2055TIP3   OH227655   4.038   4.892  11.619  0.1264 -0.1046 -0.3208
 2055TIP3    H127656   3.986   4.963  11.657  0.5585  0.1348 -0.1646
 2055TIP3    H227657   3.990   4.812  11.642 -0.1516  0.1102 -0.1498
 2056TIP3   OH227658   6.333   2.405   4.059 -0.4296  0.2125  0.2879
 2056TIP3    H127659   6.427   2.415   4.045 -0.2228  2.6538  2.5397
 2056TIP3    H227660   6.325   2.372   4.148 -1.6899  0.4161  0.2738
 2057TIP3   OH227661   0.031   1.025   4.771 -0.2967  0.2972  0.0703
 2057TIP3    H127662   0.074   0.940   4.772  0.7665  0.7664  2.3060
 2057TIP3    H227663   0.051   1.062   4.857 -2.1437  2.1038 -0.2109
 2058TIP3   OH227664   4.000   5.268  11.386  0.4514 -0.2431  0.6000
 2058TIP3    H127665   3.988   5.189  11.334  1.2611  0.2296 -0.3264
 2058TIP3    H227666   4.088   5.261  11.423  0.7147  0.4413  0.1230
 2059TIP3   OH227667   2.920   4.962   0.202  0.1208  0.1981 -0.2066
 2059TIP3    H127668   2.970   5.032   0.244  0.4715  0.1891 -0.5998
 2059TIP3    H227669   2.841   5.005   0.170 -1.7874 -0.3606  3.2502
 2060TIP3   OH227670   2.419   0.279  15.676  0.0203 -0.1467 -0.1235
 2060TIP3    H127671   2.419   0.246  15.766  0.4137  0.7080  0.1972
 2060TIP3    H227672   2.495   0.337  15.671 -0.9273  1.1176 -0.5029
 2061TIP3   OH227673   5.914   6.636  14.453 -0.2720 -0.2526 -0.3330
 2061TIP3    H127674   5.830   6.609  14.489 -0.5529 -0.0551 -0.8372
 2061TIP3    H227675   5.906   6.730  14.439 -0.8198 -0.5585 -2.5503
 2062TIP3   OH227676   4.960   1.715   0.080 -0.0141  0.1226  0.2394
 2062TIP3    H127677   4.867   1.722   0.062 -0.0844 -0.6683  0.2297
 2062TIP3    H227678   4.966   1.705   0.175  0.1071  0.8116  0.3057
 2063TIP3   OH227679   3.822   2.772  16.400 -0.5496  0.7461  0.1642
 2063TIP3    H127680   3.733   2.749  16.373 -0.1035 -1.1245  0.1640
 2063TIP3    H227681   3.814   2.800  16.491 -0.9694 -0.7367  0.5974
 2064TIP3   OH227682   5.201   6.196   1.789  0.0196  0.2179  0.1898
 2064TIP3    H127683   5.199   6.144   1.709 -0.4217 -2.0045  1.5455
 2064TIP3    H227684   5.260   6.269   1.770 -0.4892  0.0518 -2.2841
 2065TIP3   OH227685   4.397   6.484   1.460 -0.4897 -0.4569  0.2013
 2065TIP3    H127686   4.357   6.568   1.440  0.5957  0.5161  1.8544
 2065TIP3    H227687   4.486   6.490   1.425 -0.6840 -1.2936 -0.4783
 2066TIP3   OH227688   5.928   2.724   1.884 -0.0585 -0.1240  0.1785
 2066TIP3    H127689   6.004   2.766   1.843 -0.4679  1.3997  0.9240
 2066TIP3    H227690   5.883   2.681   1.811  0.3189  0.8348 -0.6487
 2067TIP3   OH227691   4.914   5.027  16.804 -0.0967 -0.1743  0.5813
 2067TIP3    H127692   4.841   5.082  16.774  0.7967  0.1239 -1.1534
 2067TIP3    H227693   4.927   4.964  16.733 -2.1602 -3.8574  3.1367
 2068TIP3   OH227694   6.650   6.746  11.795  0.0139  0.3766 -0.2228
 2068TIP3    H127695   6.569   6.759  11.746 -1.4829  0.9801  2.2337
 2068TIP3    H227696   6.680   6.835  11.815  1.9465  0.2109 -1.9587
 2069TIP3   OH227697   1.385   0.979   2.942  0.0161  0.1282  0.3906
 2069TIP3    H127698   1.333   0.914   2.990 -0.1397 -0.9158 -1.1314
 2069TIP3    H227699   1.472   0.973   2.981  0.1579 -1.4431 -0.0865
 2070TIP3   OH227700   3.876   0.688  13.408  0.6531 -0.3249 -0.3969
 2070TIP3    H127701   3.935   0.613  13.410  1.2565  0.1063 -1.2542
 2070TIP3    H227702   3.789   0.650  13.402  0.6846 -1.0081  2.2147
 2071TIP3   OH227703   6.156   6.587  12.909 -0.1294 -0.1896  0.0122
 2071TIP3    H127704   6.085   6.589  12.974  1.5384  1.2449  1.9097
 2071TIP3    H227705   6.189   6.677  12.908  2.6563 -1.1299  0.3777
 2072TIP3   OH227706   5.508   6.391  14.464  0.2662  0.3599  0.0421
 2072TIP3    H127707   5.583   6.333  14.479 -0.4757 -0.7880 -0.5269
 2072TIP3    H227708   5.485   6.376  14.372  0.3332  1.9239 -0.2578
 2073TIP3   OH227709   1.115   1.106   5.403  0.2759  0.7937  0.0281
 2073TIP3    H127710   1.037   1.159   5.383 -0.1199  0.1800 -0.0855
 2073TIP3    H227711   1.088   1.051   5.477  0.9954  1.4263  0.7882
 2074TIP3   OH227712   1.838   2.523   5.082  0.6578 -0.0168 -0.2154
 2074TIP3    H127713   1.816   2.437   5.047  0.8259 -0.9709  1.8387
 2074TIP3    H227714   1.835   2.511   5.177 -1.9892  2.9186  0.2396
 2075TIP3   OH227715   3.663   2.738   4.088 -0.5717  0.3465  0.1427
 2075TIP3    H127716   3.663   2.724   3.993  1.1859 -1.4032  0.3370
 2075TIP3    H227717   3.731   2.804   4.103 -1.0498  0.8376  0.1770
 2076TIP3   OH227718   6.425   3.795   2.436 -0.1082  0.2190 -0.1988
 2076TIP3    H127719   6.411   3.786   2.342 -2.4336  1.0406  0.0052
 2076TIP3    H227720   6.343   3.766   2.476  0.4515  0.8702  1.5228
 2077TIP3   OH227721   0.513   4.536  15.650  0.9177 -0.7668 -0.1511
 2077TIP3    H127722   0.537   4.443  15.644  2.4752 -0.3379 -1.2352
 2077TIP3    H227723   0.523   4.569  15.561 -0.9881  0.1569 -0.0651
 2078TIP3   OH227724   4.451   2.204  17.195  0.6596 -0.8555 -0.0928
 2078TIP3    H127725   4.448   2.139  17.265  1.9522 -0.7884  0.0416
 2078TIP3    H227726   4.426   2.286  17.239 -0.4732 -1.1515 -0.1564
 2079TIP3   OH227727   5.623   3.541   4.403 -0.3821  0.2265 -0.2165
 2079TIP3    H127728   5.645   3.633   4.418  0.3383 -0.1558  1.3282
 2079TIP3    H227729   5.689   3.511   4.340  0.6418  0.3012  0.7747
 2080TIP3   OH227730   4.804   2.073  11.763  0.0030  0.4908  0.1248
 2080TIP3    H127731   4.756   2.150  11.730 -1.3938 -0.6737 -0.6817
 2080TIP3    H227732   4.737   2.005  11.771  1.2627 -0.7449  0.5099
 2081TIP3   OH227733   6.175   1.612   4.271  0.3434  0.7244  0.7167
 2081TIP3    H127734   6.185   1.707   4.274  0.7954  0.6733  0.9980
 2081TIP3    H227735   6.255   1.581   4.229  0.6470  0.4045  1.5005
 2082TIP3   OH227736   6.026   2.169   6.299 -0.4767  0.0489 -0.0110
 2082TIP3    H127737   6.043   2.135   6.387 -0.3715 -1.1402 -0.4714
 2082TIP3    H227738   6.112   2.174   6.258 -0.1180  3.4157  0.8720
 2083TIP3   OH227739   2.989   2.315  15.130 -0.1351  0.5096 -0.3251
 2083TIP3    H127740   3.063   2.324  15.069 -0.0506 -0.3785 -0.3653
 2083TIP3    H227741   2.912   2.313  15.073 -0.4075  3.3491 -0.1974
 2084TIP3   OH227742   6.151   4.742  11.570  0.3317  0.0546 -0.2275
 2084TIP3    H127743   6.200   4.700  11.641 -0.0855 -0.6756 -0.3560
 2084TIP3    H227744   6.199   4.718  11.490 -0.3080 -0.7980 -0.3689
 2085TIP3   OH227745   1.226   1.433  10.883  0.8608  0.0064 -0.1192
 2085TIP3    H127746   1.248   1.421  10.790  0.0313  0.3605 -0.3699
 2085TIP3    H227747   1.150   1.491  10.882 -1.4847 -2.7883  0.5765
 2086TIP3   OH227748   4.776   2.131   3.985  0.6620 -0.0635 -0.0264
 2086TIP3    H127749   4.716   2.177   3.927 -1.8119 -0.8620  1.7355
 2086TIP3    H227750   4.745   2.040   3.984  0.9178 -0.2082  2.0586
 2087TIP3   OH227751   1.950   3.226  12.783 -0.4828  0.0834  0.7713
 2087TIP3    H127752   1.957   3.320  12.800 -2.0953  0.6149 -1.1149
 2087TIP3    H227753   1.864   3.202  12.817 -0.0669 -0.7181  1.2687
 2088TIP3   OH227754   0.544   6.507   0.761  0.5030  0.2666  0.0833
 2088TIP3    H127755   0.568   6.442   0.695 -0.1827  1.1180 -1.0355
 2088TIP3    H227756   0.448   6.503   0.766  0.4415  1.2258 -0.0607
 2089TIP3   OH227757   0.521   0.943   1.040 -0.5111 -0.0389 -0.0075
 2089TIP3    H127758   0.591   0.938   0.976 -0.6373 -0.4495 -0.1194
 2089TIP3    H227759   0.441   0.924   0.990 -0.5632 -0.7945  0.3376
 2090TIP3   OH227760   4.334   0.981   5.645  0.7650  0.2144 -0.3456
 2090TIP3    H127761   4.398   0.917   5.613 -0.2132 -0.6925 -0.5368
 2090TIP3    H227762   4.376   1.023   5.720  1.1840 -1.1099  0.1825
 2091TIP3   OH227763   4.558   4.010  10.897  0.4427 -0.2847 -0.4155
 2091TIP3    H127764   4.632   4.068  10.917  0.8610 -0.6226 -0.9624
 2091TIP3    H227765   4.519   4.048  10.818  0.3562 -0.4133 -0.4347
 2092TIP3   OH227766   4.832   0.206   0.906  0.2267 -0.2366 -0.4829
 2092TIP3    H127767   4.862   0.257   0.831 -0.6374 -0.0832 -0.7308
 2092TIP3    H227768   4.911   0.161   0.937  0.4329 -1.0457 -2.0475
 2093TIP3   OH227769   4.916   5.857  13.837 -0.1607  0.0651  0.0030
 2093TIP3    H127770   4.999   5.839  13.881  0.5270 -0.3343 -1.3964
 2093TIP3    H227771   4.916   5.951  13.822 -0.7104  0.3210  1.3884
 2094TIP3   OH227772   3.493   5.026  11.894 -0.3480 -0.5608 -0.2145
 2094TIP3    H127773   3.547   5.078  11.953  0.5232 -2.3120  0.5957
 2094TIP3    H227774   3.404   5.036  11.928  0.0773 -1.1629  1.1191
 2095TIP3   OH227775   2.033   2.539   0.268 -0.0335  0.1137  0.0525
 2095TIP3    H127776   2.022   2.444   0.276 -0.1705  0.1574  0.4176
 2095TIP3    H227777   2.110   2.549   0.212  0.0095 -0.2143  0.0460
 2096TIP3   OH227778   1.605   5.956  15.890 -0.2060  0.0455 -0.1318
 2096TIP3    H127779   1.650   5.908  15.821  1.4813 -0.0323  0.9564
 2096TIP3    H227780   1.559   5.889  15.941 -0.0747 -0.0921 -0.1960
 2097TIP3   OH227781   0.654   0.615   3.252  0.5341  0.2135  0.0210
 2097TIP3    H127782   0.734   0.657   3.283  1.3385 -1.7225  0.6966
 2097TIP3    H227783   0.665   0.523   3.275 -1.2742 -0.3390 -1.1655
 2098TIP3   OH227784   6.257   1.838  14.443 -0.1595 -0.1930  0.1815
 2098TIP3    H127785   6.283   1.898  14.373 -0.1270 -0.8541 -0.3917
 2098TIP3    H227786   6.269   1.888  14.524  1.3735  0.0657 -0.1591
 2099TIP3   OH227787   0.591   1.537  10.694 -0.2945 -0.3675 -0.3579
 2099TIP3    H127788   0.602   1.448  10.661  0.0159  0.0475 -1.3889
 2099TIP3    H227789   0.634   1.593  10.630  0.6538  0.4446  0.9236
 2100TIP3   OH227790   2.972   6.163  14.071  0.6662  0.1301  0.3442
 2100TIP3    H127791   2.969   6.098  14.001  1.6843  1.0997 -0.6660
 2100TIP3    H227792   3.031   6.127  14.136 -0.7103 -1.0239  1.0016
 2101TIP3   OH227793   6.116   2.450   1.129 -0.0947 -0.5717 -0.2159
 2101TIP3    H127794   6.030   2.437   1.089  0.1099 -1.2481 -0.4447
 2101TIP3    H227795   6.163   2.507   1.068  0.4722 -2.1715 -1.3572
 2102TIP3   OH227796   0.351   0.914  11.230  0.3197 -0.2232 -0.4104
 2102TIP3    H127797   0.370   0.857  11.156  0.1503  0.1411 -0.7401
 2102TIP3    H227798   0.333   1.000  11.190 -1.4006 -0.4031 -0.0959
 2103TIP3   OH227799   0.639   6.599  17.159 -0.3308  0.3571 -0.3740
 2103TIP3    H127800   0.581   6.675  17.165  0.2375  0.8173 -0.7303
 2103TIP3    H227801   0.580   6.525  17.141 -1.1900  0.2937  2.1783
 2104TIP3   OH227802   0.762   0.845  16.550 -0.3330  0.7142 -0.1394
 2104TIP3    H127803   0.704   0.918  16.528 -0.9295  0.5090  0.6991
 2104TIP3    H227804   0.779   0.856  16.644 -0.4759 -0.2537  0.0043
 2105TIP3   OH227805   2.927   1.052  15.082  0.2982 -0.4456  0.2183
 2105TIP3    H127806   2.979   1.096  15.014  0.2688 -2.6389 -1.3108
 2105TIP3    H227807   2.978   0.975  15.105 -0.1166 -0.1968  2.1275
 2106TIP3   OH227808   4.226   4.942   0.836 -0.3065 -0.2490 -0.6303
 2106TIP3    H127809   4.311   4.900   0.847 -0.0418 -0.1807 -2.1719
 2106TIP3    H227810   4.163   4.870   0.835 -0.1025 -0.4248 -0.9483
 2107TIP3   OH227811   0.183   5.864  12.767  0.1022 -0.3830 -0.2516
 2107TIP3    H127812   0.128   5.910  12.830  0.3559  0.2304 -0.4625
 2107TIP3    H227813   0.159   5.903  12.682 -1.5030 -2.3911 -0.8066
 2108TIP3   OH227814   4.744   4.890   1.382 -0.2702 -0.6577 -0.9005
 2108TIP3    H127815   4.779   4.863   1.467  0.3766 -0.4455 -1.0920
 2108TIP3    H227816   4.649   4.891   1.394 -0.1342  0.6779  0.2138
 2109TIP3   OH227817   6.542   1.314   4.702  0.0766 -0.4286  0.0549
 2109TIP3    H127818   6.619   1.257   4.705 -0.4312 -1.1670 -0.7649
 2109TIP3    H227819   6.530   1.334   4.610 -1.2831 -1.1255  0.0482
 2110TIP3   OH227820   6.292   4.045   3.514  0.5209  0.1455  0.0954
 2110TIP3    H127821   6.284   3.955   3.483  0.8561 -0.2703  1.1378
 2110TIP3    H227822   6.214   4.059   3.567  0.2947  0.5982 -0.3530
 2111TIP3   OH227823   6.646   2.767   0.600 -0.0982 -0.1894  0.3737
 2111TIP3    H127824   6.579   2.711   0.559 -0.2657  1.6433 -2.1062
 2111TIP3    H227825   6.601   2.808   0.674 -1.2295 -0.2955 -0.2211
 2112TIP3   OH227826   0.374   0.676  12.951  0.3044 -0.6687  0.0213
 2112TIP3    H127827   0.315   0.698  12.879  0.9679 -1.0968 -0.6650
 2112TIP3    H227828   0.368   0.751  13.010 -1.3176 -0.9347  0.2354
 2113TIP3   OH227829   0.642   0.293  12.184  0.1390  0.3342 -0.0581
 2113TIP3    H127830   0.655   0.267  12.275  0.7511  1.8038  0.3009
 2113TIP3    H227831   0.548   0.312  12.178 -0.0227 -0.4157  0.0853
 2114TIP3   OH227832   1.331   5.956   0.480  0.9709 -0.4160  0.3236
 2114TIP3    H127833   1.299   5.921   0.396 -0.2503  2.2039 -0.4110
 2114TIP3    H227834   1.262   5.936   0.542  0.2731  0.6315 -0.0925
 2115TIP3   OH227835   0.592   1.250   5.466  0.4532 -0.5244 -0.5765
 2115TIP3    H127836   0.560   1.290   5.386 -1.3744 -1.4942 -0.3837
 2115TIP3    H227837   0.550   1.164   5.468  0.3611 -0.4825  1.4557
 2116TIP3   OH227838   3.603   2.400  16.488 -0.0970 -0.2520  0.2708
 2116TIP3    H127839   3.568   2.328  16.540 -2.5123  0.2984 -0.4436
 2116TIP3    H227840   3.529   2.428  16.433  0.8577  2.4973  0.2166
 2117TIP3   OH227841   1.316   0.988  14.234 -1.0801 -0.5366 -0.7328
 2117TIP3    H127842   1.222   0.985  14.215 -1.0704  0.0870 -0.8923
 2117TIP3    H227843   1.351   0.910  14.191 -1.5836 -1.0117 -0.3091
 2118TIP3   OH227844   1.461   4.817  13.494  0.3792  0.3795  0.3849
 2118TIP3    H127845   1.491   4.822  13.584 -0.8947 -1.1162  0.9350
 2118TIP3    H227846   1.370   4.849  13.496 -0.0304 -0.6910 -0.1378
 2119TIP3   OH227847   1.298   5.683   1.240  0.1674  0.4655 -0.6574
 2119TIP3    H127848   1.284   5.612   1.302  1.2095 -0.6047 -1.6071
 2119TIP3    H227849   1.359   5.742   1.285 -0.6418  0.7422  0.1025
 2120TIP3   OH227850   2.595   5.304  16.207 -0.0849  0.3704  0.4353
 2120TIP3    H127851   2.528   5.334  16.268  0.7706  2.0469  0.6068
 2120TIP3    H227852   2.667   5.273  16.262  0.4343  1.3035  0.3159
 2121TIP3   OH227853   3.701   4.550  13.242  0.6254  0.3751 -0.0891
 2121TIP3    H127854   3.749   4.555  13.159 -0.1414 -1.6129 -0.7018
 2121TIP3    H227855   3.626   4.609  13.229  1.3838  1.3663 -0.1469
 2122TIP3   OH227856   3.937   1.159   5.262  0.3123  0.3956  0.9944
 2122TIP3    H127857   3.986   1.088   5.305 -0.3528 -0.5853  0.1805
 2122TIP3    H227858   3.936   1.229   5.327 -0.4101 -0.9413  2.5049
 2123TIP3   OH227859   3.836   2.500  16.548  0.2160 -0.2469 -0.3216
 2123TIP3    H127860   3.753   2.453  16.548 -0.1247  0.3569 -0.2266
 2123TIP3    H227861   3.830   2.561  16.475  0.4629  0.0018 -0.1375
 2124TIP3   OH227862   5.073   3.254  11.893  0.0560 -0.0013  0.1244
 2124TIP3    H127863   4.984   3.224  11.878 -2.2286  5.2898  0.8672
 2124TIP3    H227864   5.110   3.265  11.805  0.1507 -2.3415 -0.1865
 2125TIP3   OH227865   5.793   2.511  10.965 -0.2679 -0.0564  0.2949
 2125TIP3    H127866   5.801   2.428  11.013 -1.9302 -0.1504  0.4787
 2125TIP3    H227867   5.840   2.495  10.883 -2.0306 -1.8657 -0.4553
 2126TIP3   OH227868   4.787   6.116  10.975 -0.3279 -0.4397  0.3196
 2126TIP3    H127869   4.809   6.209  10.970 -2.2580  0.2447  2.6078
 2126TIP3    H227870   4.869   6.072  10.955  1.9956  1.8534  3.6640
 2127TIP3   OH227871   0.658   1.801   2.569 -0.4458  0.8112  0.4496
 2127TIP3    H127872   0.659   1.864   2.497  1.8562  0.2662 -0.0931
 2127TIP3    H227873   0.581   1.747   2.553  0.3757  0.2416 -2.1016
 2128TIP3   OH227874   2.860   2.916   5.236  0.2204 -0.3029 -0.0824
 2128TIP3    H127875   2.934   2.894   5.293  0.4094  0.4686 -0.0173
 2128TIP3    H227876   2.886   2.998   5.194 -0.0554 -0.6984 -1.0436
 2129TIP3   OH227877   4.938   2.841   2.523 -0.0038 -0.1310  0.0418
 2129TIP3    H127878   5.018   2.869   2.567  0.7883 -0.7875 -0.9185
 2129TIP3    H227879   4.924   2.752   2.554 -0.7425  0.1991  0.6929
 2130TIP3   OH227880   3.339   1.767  16.113 -0.0669 -0.5875  0.0714
 2130TIP3    H127881   3.248   1.788  16.094  0.2077  1.5301  0.7753
 2130TIP3    H227882   3.337   1.730  16.202 -0.1414  0.7627  0.6615
 2131TIP3   OH227883   5.245   5.983  16.648 -0.1660  0.5220 -0.0740
 2131TIP3    H127884   5.291   5.994  16.565 -2.6649  1.4472 -1.4491
 2131TIP3    H227885   5.154   5.970  16.624 -0.8051 -0.5452  2.5210
 2132TIP3   OH227886   0.113   2.705  14.610 -0.3551  0.7063 -0.3104
 2132TIP3    H127887   0.127   2.635  14.546  0.5016  0.9410 -0.4027
 2132TIP3    H227888   0.020   2.703  14.629 -0.3481 -0.4316 -0.3437
 2133TIP3   OH227889   3.196   4.739  12.426  0.1990 -0.1850  0.3778
 2133TIP3    H127890   3.123   4.683  12.400  0.2711 -0.3282  0.4919
 2133TIP3    H227891   3.231   4.771  12.342 -1.4516  1.7601  0.3315
 2134TIP3   OH227892   3.251   1.641   4.315 -0.1001 -0.4212  0.0526
 2134TIP3    H127893   3.198   1.571   4.278  0.6258 -0.8019 -0.2851
 2134TIP3    H227894   3.293   1.602   4.392  0.0740 -0.2708  0.0349
 2135TIP3   OH227895   3.777   5.183   5.070  0.3509  0.0947  0.0372
 2135TIP3    H127896   3.762   5.203   5.163 -0.5313 -1.0087  0.1534
 2135TIP3    H227897   3.693   5.201   5.028  0.8573  0.9686 -0.6335
 2136TIP3   OH227898   0.619   1.536  14.946  0.0694 -0.4289  1.0084
 2136TIP3    H127899   0.650   1.577  15.027  0.8887 -0.1257  0.5524
 2136TIP3    H227900   0.643   1.443  14.956  2.3074 -0.0103  0.1580
 2137TIP3   OH227901   0.090   1.292   0.531 -0.5460 -0.7674 -0.0982
 2137TIP3    H127902   0.012   1.239   0.512 -0.4945 -1.0676  0.5066
 2137TIP3    H227903   0.091   1.301   0.626 -0.5494  0.3349 -0.1907
 2138TIP3   OH227904   2.935   6.661  12.718 -0.7257 -0.2415  0.3520
 2138TIP3    H127905   2.985   6.579  12.726  0.7582  0.5558 -0.4038
 2138TIP3    H227906   2.941   6.684  12.626  2.4325  2.7827  1.0945
 2139TIP3   OH227907   4.789   1.704  15.011 -0.0950 -0.5970 -0.3110
 2139TIP3    H127908   4.826   1.715  14.924 -0.2055  1.8330 -0.1400
 2139TIP3    H227909   4.831   1.773  15.064 -3.0212  0.7814  0.4595
 2140TIP3   OH227910   0.947   3.891   1.385  0.1942  0.1171 -0.4873
 2140TIP3    H127911   0.990   3.866   1.303 -2.1770  0.7003 -2.0056
 2140TIP3    H227912   0.894   3.814   1.408  0.2287  0.2575  0.0682
 2141TIP3   OH227913   2.229   6.224   0.947 -0.4116  0.0917  0.1547
 2141TIP3    H127914   2.155   6.283   0.966 -0.8447 -0.2307 -0.4809
 2141TIP3    H227915   2.194   6.164   0.881  0.2361 -0.4544  0.3089
 2142TIP3   OH227916   2.025   1.619   0.757  0.1061  0.0449  0.1356
 2142TIP3    H127917   1.952   1.635   0.816 -0.0050 -0.3563  0.1093
 2142TIP3    H227918   1.995   1.550   0.699  0.5254 -0.1596  0.1559
 2143TIP3   OH227919   6.725   5.513   3.489  0.1797  0.6371 -0.1782
 2143TIP3    H127920   6.802   5.569   3.502  0.8631 -0.6473  1.7237
 2143TIP3    H227921   6.758   5.438   3.440 -0.1150  0.5871 -0.3028
 2144TIP3   OH227922   3.714   1.205   3.119 -0.1484  0.3330 -0.2934
 2144TIP3    H127923   3.669   1.120   3.120 -0.5407  0.5079  1.7613
 2144TIP3    H227924   3.739   1.218   3.028 -0.6649 -1.6799 -0.7716
 2145TIP3   OH227925   5.826   4.571   2.428  0.1751  0.0002 -0.0679
 2145TIP3    H127926   5.905   4.600   2.383 -0.1278 -0.0285 -0.6284
 2145TIP3    H227927   5.826   4.476   2.418 -0.1056  0.0284 -0.3787
 2146TIP3   OH227928   2.406   3.711   4.311 -0.4436  0.1860  0.1068
 2146TIP3    H127929   2.352   3.705   4.390 -0.4784  0.0516  0.0728
 2146TIP3    H227930   2.356   3.664   4.244  0.4296 -1.2941  0.4522
 2147TIP3   OH227931   3.451   6.381  15.206 -0.0731  0.3351 -0.0942
 2147TIP3    H127932   3.373   6.356  15.156 -0.6121  0.5183  0.6387
 2147TIP3    H227933   3.489   6.297  15.233 -0.1450  0.2477 -0.2612
 2148TIP3   OH227934   3.573   6.600   5.879 -0.4644 -0.8171 -0.5699
 2148TIP3    H127935   3.655   6.643   5.903 -0.9365 -0.6922  0.9122
 2148TIP3    H227936   3.535   6.658   5.813 -0.4675  0.3958  0.4471
 2149TIP3   OH227937   4.726   1.068   4.646  0.1929 -0.0941 -0.0954
 2149TIP3    H127938   4.751   1.150   4.688 -1.1041  0.6080 -0.6402
 2149TIP3    H227939   4.809   1.028   4.619  0.9230  0.3210  1.4641
 2150TIP3   OH227940   0.714   0.740   2.574 -0.5728  0.2374  0.0303
 2150TIP3    H127941   0.751   0.804   2.635 -0.6515 -0.0810  0.4108
 2150TIP3    H227942   0.662   0.682   2.628 -1.0284  0.2334 -0.4076
 2151TIP3   OH227943   1.654   6.478  10.757  0.1294  0.2067  0.2800
 2151TIP3    H127944   1.638   6.537  10.684  2.6285 -0.1516 -0.6747
 2151TIP3    H227945   1.668   6.536  10.832 -0.8635  0.6409  0.1476
 2152TIP3   OH227946   2.182   5.869  16.357 -0.1951 -0.2792 -0.0669
 2152TIP3    H127947   2.253   5.890  16.418  0.8504  0.1545 -1.3944
 2152TIP3    H227948   2.171   5.948  16.304  1.0473 -1.6205 -2.4701
 2153TIP3   OH227949   1.674   3.735   5.543 -0.2119  0.0188 -0.3038
 2153TIP3    H127950   1.685   3.804   5.608 -2.2042 -1.4767  1.8235
 2153TIP3    H227951   1.594   3.758   5.496  0.1844  0.1310 -0.9338
 2154TIP3   OH227952   6.115   0.692   1.109  0.3382 -0.1099  0.0715
 2154TIP3    H127953   6.031   0.688   1.064  0.1390 -0.3944  0.4624
 2154TIP3    H227954   6.100   0.749   1.184  0.4523 -0.2924  0.2326
 2155TIP3   OH227955   5.494   6.219   1.591  0.6457  0.2535 -0.6133
 2155TIP3    H127956   5.534   6.155   1.649  0.1933 -0.8852 -1.5295
 2155TIP3    H227957   5.472   6.170   1.512 -1.3818  1.1155 -0.6345
 2156TIP3   OH227958   2.192   5.704  16.060  1.1595 -0.1468 -0.5665
 2156TIP3    H127959   2.222   5.615  16.042  1.9555  0.1913 -0.9467
 2156TIP3    H227960   2.268   5.748  16.097  0.9939  0.5843 -1.0718
 2157TIP3   OH227961   4.319   2.713  15.386 -0.0936  0.1041 -0.2619
 2157TIP3    H127962   4.357   2.628  15.408 -1.8164 -1.0875 -1.6485
 2157TIP3    H227963   4.375   2.748  15.317  2.0252  1.2959  1.8807
 2158TIP3   OH227964   3.669   1.424   0.237 -0.2602 -0.0920 -0.2491
 2158TIP3    H127965   3.722   1.442   0.159 -1.7007  3.3369 -0.6436
 2158TIP3    H227966   3.590   1.382   0.203 -0.3788  0.3201 -0.4882
 2159TIP3   OH227967   5.644   3.149  14.148 -0.2835  0.6989 -0.1329
 2159TIP3    H127968   5.596   3.072  14.118  0.0580  0.5668 -0.3465
 2159TIP3    H227969   5.714   3.161  14.083  1.2733 -0.3510  1.2425
 2160TIP3   OH227970   4.590   2.940   4.614 -0.3492  0.8279  0.2005
 2160TIP3    H127971   4.658   3.007   4.606 -0.4783  1.0249  0.7223
 2160TIP3    H227972   4.577   2.930   4.709  0.4499 -0.7280  0.1793
 2161TIP3   OH227973   2.112   5.297   5.647  0.1023  0.3113 -0.4459
 2161TIP3    H127974   2.046   5.366   5.651  0.5915  0.7605  2.4448
 2161TIP3    H227975   2.065   5.218   5.674  0.7625  0.7805  2.4320
 2162TIP3   OH227976   5.896   4.779  15.785  0.1709  0.4721  0.1388
 2162TIP3    H127977   5.911   4.775  15.691  1.2900 -1.8799  0.3511
 2162TIP3    H227978   5.862   4.693  15.808 -1.7663  1.5773  1.6665
 2163TIP3   OH227979   0.535   0.527  15.238  0.5213  0.2354  0.3646
 2163TIP3    H127980   0.568   0.522  15.148  0.7690  3.0745  0.2209
 2163TIP3    H227981   0.487   0.445  15.250 -1.2624  0.5993 -3.0785
 2164TIP3   OH227982   5.764   2.653  13.779  0.0886  0.4431  0.3603
 2164TIP3    H127983   5.710   2.587  13.736  0.0589  1.5205 -1.3669
 2164TIP3    H227984   5.853   2.636  13.747  0.1744  0.8969  0.3527
 2165TIP3   OH227985   4.175   2.917  15.773 -0.3647 -0.0816 -0.9342
 2165TIP3    H127986   4.105   2.873  15.821 -0.6515  0.5303 -0.7797
 2165TIP3    H227987   4.246   2.852  15.769 -2.0291 -1.9249 -3.8617
 2166TIP3   OH227988   4.975   5.343   3.694  0.0525  0.0706 -0.5614
 2166TIP3    H127989   4.928   5.427   3.691 -1.7761 -0.9253 -1.6770
 2166TIP3    H227990   4.989   5.320   3.602  0.8237 -0.7101 -0.2649
 2167TIP3   OH227991   3.359   1.373   5.872  0.2997  0.2640 -0.3582
 2167TIP3    H127992   3.323   1.309   5.810  0.3367  1.0432 -1.2053
 2167TIP3    H227993   3.325   1.345   5.957 -0.9114 -0.0184 -0.9107
 2168TIP3   OH227994   0.657   2.579  15.478  0.2080  0.1914 -0.5874
 2168TIP3    H127995   0.619   2.552  15.562 -0.9936  0.0198 -1.1644
 2168TIP3    H227996   0.716   2.651  15.501  1.2498 -0.9785  0.6151
 2169TIP3   OH227997   5.484   4.688   0.714  0.0708 -0.3830 -0.5836
 2169TIP3    H127998   5.518   4.648   0.633  2.0466 -2.0316  0.9485
 2169TIP3    H227999   5.439   4.617   0.758  1.6151 -0.3724  1.1213
 2170TIP3   OH228000   5.450   4.823   5.486  0.2313  0.0139  0.1433
 2170TIP3    H128001   5.360   4.826   5.517  0.6741  1.5565  1.4491
 2170TIP3    H228002   5.459   4.901   5.431  0.2710 -1.1532 -1.5621
 2171TIP3   OH228003   5.315   6.052   2.027  0.5048  0.5388  0.0693
 2171TIP3    H128004   5.302   6.135   1.981  2.6394  2.3662  2.4966
 2171TIP3    H228005   5.254   6.056   2.101  2.2184  1.1033  1.5126
 2172TIP3   OH228006   6.646   0.544   2.781 -0.8391 -0.1620 -0.1435
 2172TIP3    H128007   6.714   0.476   2.777  0.6788  1.2941 -0.0700
 2172TIP3    H228008   6.639   0.564   2.875 -0.2502  0.7578 -0.2876
 2173TIP3   OH228009   5.440   4.956   4.927  0.2114  0.0723 -0.0146
 2173TIP3    H128010   5.507   4.996   4.983  1.3270  0.7370 -1.7258
 2173TIP3    H228011   5.368   5.018   4.927 -0.6645 -0.8448  2.1897
 2174TIP3   OH228012   0.300   0.513   0.555 -0.6578  0.5356  0.5592
 2174TIP3    H128013   0.379   0.554   0.589  0.6242 -1.1030 -0.3116
 2174TIP3    H228014   0.264   0.465   0.629  0.2113 -0.2135  0.5143
 2175TIP3   OH228015   6.631   0.296   2.056  0.1274  0.2567  0.5496
 2175TIP3    H128016   6.704   0.234   2.060 -0.0753 -0.1475 -1.2138
 2175TIP3    H228017   6.671   0.380   2.078  0.7975 -0.1991  1.1323
 2176TIP3   OH228018   0.317   4.008   4.188  0.0237 -0.7314  0.0521
 2176TIP3    H128019   0.360   3.963   4.260  0.1741  0.3414  0.6528
 2176TIP3    H228020   0.389   4.042   4.134  0.0994  2.3474  1.8464
 2177TIP3   OH228021   2.587   6.021  13.475  0.4502 -0.1643  0.0228
 2177TIP3    H128022   2.625   6.014  13.388 -1.4971  0.3296 -0.9284
 2177TIP3    H228023   2.589   5.932  13.509 -3.4662 -1.5519 -2.7216
 2178TIP3   OH228024   3.828   4.427   2.947 -0.5641  0.1770 -0.4943
 2178TIP3    H128025   3.912   4.464   2.973  0.4616 -0.5349 -2.5335
 2178TIP3    H228026   3.762   4.487   2.982  0.7633  0.6154  1.3633
 2179TIP3   OH228027   1.423   1.691   2.185  0.4432  0.3092  0.0352
 2179TIP3    H128028   1.373   1.623   2.140 -1.9353  1.7191  0.3273
 2179TIP3    H228029   1.430   1.762   2.121  0.3165  0.8782  0.6282
 2180TIP3   OH228030   3.408   5.219  13.057 -0.0851 -0.1404 -0.0446
 2180TIP3    H128031   3.380   5.311  13.050  0.0120 -0.2163 -1.6897
 2180TIP3    H228032   3.502   5.221  13.037  0.5751 -0.2729  2.6481
 2181TIP3   OH228033   1.783   2.445   4.524  0.5585 -0.3418  0.3115
 2181TIP3    H128034   1.748   2.490   4.447  1.1676 -1.8087 -0.8778
 2181TIP3    H228035   1.859   2.497   4.550  0.0089  0.4864  0.2733
 2182TIP3   OH228036   1.580   3.322   2.316 -0.0069  0.3541 -0.1838
 2182TIP3    H128037   1.670   3.290   2.303 -0.0194 -0.1774  0.9589
 2182TIP3    H228038   1.569   3.389   2.248  0.2669 -1.5275 -2.1897
 2183TIP3   OH228039   4.556   6.138   0.105  0.4911 -0.4819 -0.2614
 2183TIP3    H128040   4.577   6.229   0.084 -0.5669 -0.0684  0.3939
 2183TIP3    H228041   4.641   6.095   0.112  1.2337  1.2043  2.7586
 2184TIP3   OH228042   6.393   3.667  12.901 -0.5951  0.3900  0.0948
 2184TIP3    H128043   6.463   3.697  12.958  0.7123 -0.9884 -0.7189
 2184TIP3    H228044   6.314   3.707  12.937  0.6568  2.4801  0.6746
 2185TIP3   OH228045   1.023   3.568  11.427  0.1692 -0.5031 -0.6060
 2185TIP3    H128046   0.998   3.482  11.462 -1.4277  0.4632  0.7531
 2185TIP3    H228047   1.097   3.595  11.481 -0.4257 -0.2853  0.1043
 2186TIP3   OH228048   4.937   5.563   5.715  1.0838 -0.1156 -0.3648
 2186TIP3    H128049   4.949   5.658   5.715 -1.4111  0.2800  0.2044
 2186TIP3    H228050   4.859   5.549   5.660 -0.2841 -1.4864  1.7681
 2187TIP3   OH228051   4.907   3.779   2.961 -0.1591  0.5573  1.0277
 2187TIP3    H128052   4.877   3.720   3.029 -0.3863 -0.3956  0.1255
 2187TIP3    H228053   4.904   3.866   3.001 -2.8685  0.3639  1.4019
 2188TIP3   OH228054   1.328   1.386   3.872  0.5679 -0.5334  0.6063
 2188TIP3    H128055   1.384   1.323   3.828 -0.7498 -0.8654 -0.6610
 2188TIP3    H228056   1.250   1.336   3.898 -0.7455  0.6092 -0.8965
 2189TIP3   OH228057   4.395   4.417  12.266  0.1835 -0.1324 -0.4327
 2189TIP3    H128058   4.457   4.345  12.250  0.8755  0.4627 -0.4814
 2189TIP3    H228059   4.412   4.443  12.356 -1.1234 -1.0164  0.0946
 2190TIP3   OH228060   4.102   3.818  14.763  0.4416  0.0778 -0.1804
 2190TIP3    H128061   4.105   3.780  14.851 -0.6125 -2.1790 -1.0232
 2190TIP3    H228062   4.107   3.742  14.705 -2.0858  1.1940 -2.0277
 2191TIP3   OH228063   4.089   3.219   4.869  1.0052 -0.0693  0.0078
 2191TIP3    H128064   4.042   3.303   4.874  1.0641 -0.0400  0.0638
 2191TIP3    H228065   4.060   3.180   4.786  0.9718  0.0027 -0.0145
 2192TIP3   OH228066   0.196   6.795   1.884  0.3661 -0.0756 -0.0146
 2192TIP3    H128067   0.228   6.748   1.807 -0.1909  0.1154 -0.3687
 2192TIP3    H228068   0.263   6.780   1.951  0.7040 -0.4985 -0.4411
 2193TIP3   OH228069   4.821   6.513  14.040 -0.1501  0.8024 -0.1079
 2193TIP3    H128070   4.864   6.578  14.094 -0.2518  0.6500  0.1565
 2193TIP3    H228071   4.884   6.441  14.034 -0.4926  0.4368  0.5551
 2194TIP3   OH228072   1.899   4.727   3.858 -0.1239 -0.4557 -0.3972
 2194TIP3    H128073   1.886   4.736   3.952 -1.1311  0.8800 -0.6387
 2194TIP3    H228074   1.992   4.710   3.848 -0.1783 -1.6836  0.8939
 2195TIP3   OH228075   4.482   1.544  12.084  0.3878  0.3340 -0.1194
 2195TIP3    H128076   4.415   1.504  12.140 -0.9526  0.7567 -1.3621
 2195TIP3    H228077   4.565   1.522  12.127 -0.3966 -2.0387  0.3485
 2196TIP3   OH228078   0.517   0.358  11.909 -0.7331 -0.2050  0.1007
 2196TIP3    H128079   0.443   0.300  11.891 -0.9229  0.2517 -0.6688
 2196TIP3    H228080   0.594   0.301  11.905 -0.8478 -0.2937 -1.3869
 2197TIP3   OH228081   2.502   4.023  16.678 -0.0267  0.2653  0.4998
 2197TIP3    H128082   2.587   3.978  16.678  0.3339  0.8885 -0.7490
 2197TIP3    H228083   2.522   4.113  16.703  0.1516  1.1062 -2.3255
 2198TIP3   OH228084   2.072   2.612  15.011 -0.5759 -0.2140 -0.1627
 2198TIP3    H128085   2.114   2.698  15.012  0.1273 -0.5471  0.8453
 2198TIP3    H228086   2.019   2.612  14.931  1.8890 -0.0442 -1.8908
 2199TIP3   OH228087   6.180   4.113  16.847 -0.0927  0.2771  0.1724
 2199TIP3    H128088   6.182   4.195  16.897  0.6190 -0.5515  1.5641
 2199TIP3    H228089   6.222   4.136  16.764  1.2609  1.0603  1.0176
 2200TIP3   OH228090   6.146   1.921  11.553 -0.1948  0.0754 -0.2632
 2200TIP3    H128091   6.135   1.882  11.467  0.3325  0.6517 -0.5989
 2200TIP3    H228092   6.087   1.997  11.553 -0.0699  0.1724 -0.1751
 2201TIP3   OH228093   5.162   0.391   0.129  0.0212 -0.1209 -0.6599
 2201TIP3    H128094   5.190   0.305   0.099  0.6629  0.6629 -2.4790
 2201TIP3    H228095   5.230   0.451   0.098 -0.7219  1.1156 -0.0030
 2202TIP3   OH228096   3.105   6.690  12.232 -1.1533  0.2979 -0.5291
 2202TIP3    H128097   3.096   6.627  12.160 -3.0142  0.0251 -0.1135
 2202TIP3    H228098   3.197   6.682  12.259 -1.0571 -1.4353 -1.2171
 2203TIP3   OH228099   2.450   3.159  12.742  0.1285 -0.0027  0.4168
 2203TIP3    H128100   2.354   3.162  12.735  0.2014  0.9757 -0.5785
 2203TIP3    H228101   2.473   3.070  12.716 -0.5149 -0.2269  0.5970
 2204TIP3   OH228102   2.391   2.169  15.723  0.2382 -0.2488 -0.9959
 2204TIP3    H128103   2.333   2.246  15.719  1.1486  0.5512  0.4444
 2204TIP3    H228104   2.354   2.115  15.792 -0.0882 -0.8716 -1.6456
 2205TIP3   OH228105   4.621   0.815   3.454  0.0210 -0.0839 -0.1104
 2205TIP3    H128106   4.631   0.879   3.385 -2.1047  0.6403  0.1895
 2205TIP3    H228107   4.616   0.731   3.409  0.7732  0.1557 -0.6537
 2206TIP3   OH228108   1.720   4.164  14.197 -0.5293 -0.2331 -0.1646
 2206TIP3    H128109   1.743   4.251  14.165 -1.5717  0.2453  0.3193
 2206TIP3    H228110   1.781   4.105  14.153  1.5537  0.9299  1.0163
 2207TIP3   OH228111   5.265   0.096   1.970 -0.4195 -0.2293 -0.6895
 2207TIP3    H128112   5.254   0.024   2.033 -4.1534  1.1342  0.4576
 2207TIP3    H228113   5.330   0.153   2.011 -0.2736 -1.0414  0.2765
 2208TIP3   OH228114   6.646   3.008   3.207  0.0947  0.2443  0.3658
 2208TIP3    H128115   6.652   3.053   3.292 -0.4402  0.9438  0.0470
 2208TIP3    H228116   6.724   2.953   3.203  0.6603  0.9838  0.8748
 2209TIP3   OH228117   4.352   4.935  13.987 -0.0301  0.2224 -0.2418
 2209TIP3    H128118   4.279   4.997  13.994  1.8462  2.6557 -0.9919
 2209TIP3    H228119   4.371   4.930  13.893  1.3556  0.3679  0.0147
 2210TIP3   OH228120   2.302   4.892  14.266 -0.4908 -0.1186 -0.3810
 2210TIP3    H128121   2.279   4.873  14.357  0.2693  3.0141  0.6057
 2210TIP3    H228122   2.218   4.913  14.224 -0.7235 -0.4383 -0.0809
 2211TIP3   OH228123   2.604   4.487   4.977 -0.0877  0.1192 -0.1445
 2211TIP3    H128124   2.624   4.423   4.909  1.3795  0.3111  0.0759
 2211TIP3    H228125   2.613   4.572   4.934  1.5015  0.2629  0.4206
 2212TIP3   OH228126   3.344   1.982   5.903 -0.3640 -0.5953  0.1893
 2212TIP3    H128127   3.362   1.984   5.997  1.4947  0.6405 -0.1225
 2212TIP3    H228128   3.354   1.890   5.879  1.5117 -0.6164  0.8551
 2213TIP3   OH228129   4.832   2.233  15.796 -0.0746  0.1968 -0.6061
 2213TIP3    H128130   4.873   2.265  15.716  0.6577 -0.8211 -0.6657
 2213TIP3    H228131   4.772   2.302  15.823  0.2927  0.9020 -1.5760
 2214TIP3   OH228132   4.159   5.981   2.585 -0.2305 -0.2104  0.3347
 2214TIP3    H128133   4.094   6.003   2.652  1.2943 -0.5747  2.0119
 2214TIP3    H228134   4.119   5.908   2.536 -1.4682  0.2054  0.6872
 2215TIP3   OH228135   4.803   0.445  15.259  0.2372 -0.0765 -0.0761
 2215TIP3    H128136   4.848   0.480  15.182  1.2371  0.0256  0.5434
 2215TIP3    H228137   4.782   0.521  15.313  0.4812 -0.2416  0.2542
 2216TIP3   OH228138   6.422   2.422  16.202  0.3850 -0.0785 -1.1103
 2216TIP3    H128139   6.364   2.446  16.130  0.9777  0.2528 -1.4880
 2216TIP3    H228140   6.406   2.488  16.269 -1.0617 -1.0818 -0.4149
 2217TIP3   OH228141   2.105   5.130  13.318  0.4581  0.0853 -0.2050
 2217TIP3    H128142   2.142   5.116  13.231 -1.4686 -0.5913 -0.9757
 2217TIP3    H228143   2.010   5.126  13.304  0.0887  0.9216  1.7831
 2218TIP3   OH228144   3.872   3.250   5.537  0.1089 -0.0060 -0.4078
 2218TIP3    H128145   3.794   3.294   5.502  0.3465  0.5135 -0.2806
 2218TIP3    H228146   3.844   3.216   5.622 -0.2662 -0.6739 -0.7883
 2219TIP3   OH228147   4.305   2.315   4.584 -0.0284  0.1801  0.4542
 2219TIP3    H128148   4.395   2.340   4.561  0.0253 -0.3678  0.0590
 2219TIP3    H228149   4.313   2.228   4.623 -0.3329  0.3484  0.9079
 2220TIP3   OH228150   1.307   6.745   4.705  0.0441 -0.9766 -0.1587
 2220TIP3    H128151   1.215   6.764   4.721  0.2064 -0.3689  0.0637
 2220TIP3    H228152   1.311   6.719   4.613 -0.6851 -3.1754  0.3560
 2221TIP3   OH228153   5.445   1.350  12.698  0.1506 -0.0790  0.2710
 2221TIP3    H128154   5.529   1.379  12.661 -0.2715 -0.0050 -0.6746
 2221TIP3    H228155   5.381   1.367  12.628 -0.3908 -1.7213  0.3242
 2222TIP3   OH228156   5.104   3.560  14.209 -0.2957 -0.2650 -0.1161
 2222TIP3    H128157   5.010   3.542  14.200 -0.2607 -0.1654 -0.6850
 2222TIP3    H228158   5.147   3.482  14.174 -0.1568 -0.5549  0.6570
 2223TIP3   OH228159   5.758   4.813  14.071 -0.0868 -0.3967  0.0854
 2223TIP3    H128160   5.846   4.806  14.108  0.3962  0.3854 -0.8587
 2223TIP3    H228161   5.730   4.902  14.090 -0.6425 -0.6072  0.2856
 2224TIP3   OH228162   1.169   5.434   2.030 -0.2306  0.1195  0.2844
 2224TIP3    H128163   1.258   5.428   1.993 -0.3229 -0.2540  0.1211
 2224TIP3    H228164   1.117   5.474   1.960 -0.4692 -0.8550 -0.1166
 2225TIP3   OH228165   5.096   6.338  15.887  1.0021 -0.3303  0.6274
 2225TIP3    H128166   5.001   6.328  15.877  1.0599  0.1325 -0.4943
 2225TIP3    H228167   5.109   6.349  15.981 -0.1943  0.9517  0.6670
 2226TIP3   OH228168   5.888   1.127   2.051  0.3638 -0.1851  0.0221
 2226TIP3    H128169   5.804   1.113   2.005  0.6454  0.9865 -0.8906
 2226TIP3    H228170   5.936   1.045   2.038 -0.6532 -0.8978  0.6130
 2227TIP3   OH228171   2.641   6.372   3.136  0.2320 -0.0739  0.1405
 2227TIP3    H128172   2.622   6.294   3.189 -1.7336  0.8701  0.9189
 2227TIP3    H228173   2.608   6.445   3.187 -0.6685  0.9956 -1.8328
 2228TIP3   OH228174   3.908   1.959   1.826  0.6878 -0.4207  0.4415
 2228TIP3    H128175   3.919   1.947   1.920 -1.0279 -1.7846  0.5057
 2228TIP3    H228176   3.907   2.054   1.814  0.4507 -0.2295  1.8504
 2229TIP3   OH228177   1.692   5.346  16.004 -0.1114 -0.2781  0.4851
 2229TIP3    H128178   1.680   5.282  15.934  1.6704  0.6104 -0.7080
 2229TIP3    H228179   1.786   5.364  16.005 -0.0765 -0.1568  3.0692
 2230TIP3   OH228180   0.576   3.395   5.767  0.1307  1.0809  0.1786
 2230TIP3    H128181   0.541   3.408   5.679 -1.1169 -0.0584  0.4829
 2230TIP3    H228182   0.671   3.396   5.756  0.0130 -1.1631 -1.5344
 2231TIP3   OH228183   4.057   5.678  12.208  0.2012  0.0365 -0.1281
 2231TIP3    H128184   4.054   5.633  12.124 -0.4298 -0.0667 -0.0514
 2231TIP3    H228185   3.994   5.632  12.263 -0.1030  0.7131  0.0994
 2232TIP3   OH228186   2.428   0.147   2.207  0.2337  0.2420  0.3041
 2232TIP3    H128187   2.396   0.142   2.117 -0.4892 -0.2715  0.5783
 2232TIP3    H228188   2.510   0.096   2.206  0.7809  1.1060 -0.2811
 2233TIP3   OH228189   6.020   0.518  13.921  0.4932 -0.2854 -0.2638
 2233TIP3    H128190   5.997   0.476  14.004 -0.1881  0.3630 -0.1115
 2233TIP3    H228191   6.017   0.447  13.856  1.5029 -0.8961  0.3239
 2234TIP3   OH228192   2.195   1.471  15.590 -0.0805 -0.5578 -0.0656
 2234TIP3    H128193   2.132   1.401  15.608 -0.1324 -0.2253  1.0817
 2234TIP3    H228194   2.209   1.467  15.495 -0.9736 -1.3562 -0.1695
 2235TIP3   OH228195   5.110   6.707  16.035  0.2549 -0.3046  0.0962
 2235TIP3    H128196   5.188   6.725  15.983  0.3883  1.5308  0.8433
 2235TIP3    H228197   5.142   6.703  16.125  0.2380 -4.6477  0.1094
 2236TIP3   OH228198   6.613   6.062  16.207  0.5398  0.1262  0.0928
 2236TIP3    H128199   6.561   6.010  16.145 -2.2009  2.5687  0.1023
 2236TIP3    H228200   6.551   6.084  16.277  2.3201  1.1790  1.4114
 2237TIP3   OH228201   1.270   2.654  14.076  0.3735  0.2467  0.3403
 2237TIP3    H128202   1.222   2.706  14.011 -2.9893 -1.2288  1.4526
 2237TIP3    H228203   1.321   2.592  14.024 -1.8300 -0.5493 -0.9870
 2238TIP3   OH228204   2.810   5.899   1.560 -0.1852  0.0590 -0.0237
 2238TIP3    H128205   2.766   5.956   1.623  0.8082  0.9907 -0.1551
 2238TIP3    H228206   2.900   5.930   1.558  0.1235 -0.8427 -0.8947
 2239TIP3   OH228207   3.007   0.605   0.388  0.1026 -0.0170  0.4293
 2239TIP3    H128208   3.094   0.611   0.428  0.3794 -0.5914 -0.0644
 2239TIP3    H228209   3.000   0.514   0.361 -2.1013 -0.9657  3.6613
 2240TIP3   OH228210   2.653   2.344  15.331  0.9553  0.6847  0.1224
 2240TIP3    H128211   2.639   2.285  15.257  1.9496  1.0774 -0.3967
 2240TIP3    H228212   2.711   2.295  15.390  4.5198  2.2315 -1.8095
 2241TIP3   OH228213   3.031   0.226  12.425  0.8362 -0.0242  0.0246
 2241TIP3    H128214   3.083   0.242  12.346  2.6784  0.0291  1.1925
 2241TIP3    H228215   3.033   0.309  12.472 -0.6368  0.0823 -0.0434
 2242TIP3   OH228216   1.807   6.018  15.158 -0.3478 -0.8432  0.1804
 2242TIP3    H128217   1.864   5.943  15.176  0.0822 -0.7196 -0.5901
 2242TIP3    H228218   1.815   6.073  15.235  1.3549 -0.3649 -0.2891
 2243TIP3   OH228219   2.556   5.120  11.688  0.0748 -0.0432 -0.7605
 2243TIP3    H128220   2.615   5.120  11.612  0.7227  1.3642 -0.2838
 2243TIP3    H228221   2.575   5.202  11.734  0.4860 -1.3471  1.5440
 2244TIP3   OH228222   1.945   1.918   0.728 -0.5071  0.0558 -0.1937
 2244TIP3    H128223   1.971   1.826   0.731  0.0374  0.2315  0.8268
 2244TIP3    H228224   1.977   1.955   0.810 -0.0896  1.3150 -0.8868
 2245TIP3   OH228225   2.459   1.439  14.813 -0.0038  0.0536 -0.0694
 2245TIP3    H128226   2.432   1.354  14.778  1.4065  0.0256 -1.2082
 2245TIP3    H228227   2.550   1.448  14.786 -0.5513  2.6260 -1.3562
 2246TIP3   OH228228   5.025   0.536  16.495  0.0039 -0.5125 -0.7939
 2246TIP3    H128229   5.085   0.600  16.532 -0.6260  0.4335 -1.3667
 2246TIP3    H228230   5.062   0.451  16.519 -0.1418  0.0465  1.6413
 2247TIP3   OH228231   4.179   1.635  16.020 -0.1851 -0.5840 -0.3341
 2247TIP3    H128232   4.191   1.650  16.114 -1.4628  0.9325 -0.3739
 2247TIP3    H228233   4.268   1.619  15.987  0.4994  0.5098  0.8677
 2248TIP3   OH228234   2.664   4.825   1.639  0.3598  0.3117 -0.1540
 2248TIP3    H128235   2.620   4.895   1.590  1.4314  0.8923 -0.3208
 2248TIP3    H228236   2.650   4.848   1.731 -1.6121 -0.7535 -0.1353
 2249TIP3   OH228237   2.129   5.423  13.324 -0.3462 -0.2070 -0.1504
 2249TIP3    H128238   2.138   5.328  13.328  0.5829 -0.1107  0.2970
 2249TIP3    H228239   2.107   5.441  13.233 -2.5160 -0.9943  0.1733
 2250TIP3   OH228240   3.874   1.709   2.626  0.5739  0.3178 -0.2932
 2250TIP3    H128241   3.813   1.658   2.680  0.7554  0.1474 -0.2521
 2250TIP3    H228242   3.817   1.757   2.565 -0.0089  3.3130  2.3127
 2251TIP3   OH228243   6.533   2.732  17.187 -0.3150  0.4260 -0.7828
 2251TIP3    H128244   6.462   2.783  17.147  0.2436  0.2568 -2.0030
 2251TIP3    H228245   6.602   2.731  17.122  0.5654  0.0114  0.1363
 2252TIP3   OH228246   3.985   6.062   1.391 -0.7199 -0.5841  0.2704
 2252TIP3    H128247   3.987   6.072   1.486  2.0000 -2.5007  0.5102
 2252TIP3    H228248   4.059   6.113   1.359 -2.7702  1.7433 -1.1528
 2253TIP3   OH228249   0.637   2.950  14.941  0.0745 -0.6268 -0.1698
 2253TIP3    H128250   0.659   3.040  14.920 -0.8158 -0.4548 -0.4185
 2253TIP3    H228251   0.629   2.948  15.037 -0.6329 -0.2617 -0.2176
 2254TIP3   OH228252   0.707   2.562   2.458 -0.0467 -0.2298 -0.4111
 2254TIP3    H128253   0.650   2.627   2.498 -0.5094 -0.5403 -0.5579
 2254TIP3    H228254   0.653   2.521   2.390  0.2946 -0.6415 -0.4407
 2255TIP3   OH228255   1.206   2.603  16.606 -0.1790 -0.1991  0.2014
 2255TIP3    H128256   1.240   2.692  16.607 -0.6973  0.0389  2.7838
 2255TIP3    H228257   1.242   2.562  16.685 -0.7136 -1.9872 -0.4179
 2256TIP3   OH228258   2.768   2.318  16.976  0.4485 -0.2375  0.0002
 2256TIP3    H128259   2.707   2.265  16.925  0.4408  0.2489 -0.5028
 2256TIP3    H228260   2.715   2.355  17.046 -0.0329  0.8788 -0.9338
 2257TIP3   OH228261   0.768   5.701   3.694 -0.5155 -0.3485 -0.3112
 2257TIP3    H128262   0.756   5.773   3.756 -0.4465  0.1537 -0.8710
 2257TIP3    H228263   0.742   5.738   3.609 -0.2398 -0.9051 -0.6439
 2258TIP3   OH228264   2.251   5.848   4.395 -0.4784 -0.1461  0.2669
 2258TIP3    H128265   2.197   5.925   4.380 -2.8139 -1.0473  2.9266
 2258TIP3    H228266   2.306   5.871   4.470 -0.3728 -0.6359  0.3467
 2259TIP3   OH228267   3.562   2.228  12.246 -0.1639 -0.3077 -0.4867
 2259TIP3    H128268   3.653   2.208  12.223  0.1445  0.7242 -0.1960
 2259TIP3    H228269   3.559   2.323  12.254 -1.3073 -0.3159 -0.6170
 2260TIP3   OH228270   0.034   6.002   2.272 -0.0309 -0.0078 -0.4776
 2260TIP3    H128271  -0.001   6.045   2.351  1.7648  0.6819 -0.0005
 2260TIP3    H228272   0.006   5.911   2.280 -0.9692  0.3308  0.3097
 2261TIP3   OH228273   6.513   1.089   5.739 -0.4696 -0.0987  0.3827
 2261TIP3    H128274   6.490   1.015   5.683 -2.4069  1.1482 -0.5965
 2261TIP3    H228275   6.466   1.073   5.821  0.6735 -0.8806  0.9048
 2262TIP3   OH228276   5.507   1.298   3.121  0.5031  0.2368  0.2263
 2262TIP3    H128277   5.550   1.213   3.112  0.6993  0.3331  0.2323
 2262TIP3    H228278   5.445   1.286   3.193  1.8773  0.6129  1.5518
 2263TIP3   OH228279   5.939   5.274  16.161  0.2078 -0.0586 -0.0894
 2263TIP3    H128280   5.872   5.206  16.157  0.8226 -0.6073 -2.2808
 2263TIP3    H228281   6.014   5.231  16.202 -0.6682  0.5411  2.3185
 2264TIP3   OH228282   4.586   2.504  12.644 -0.0667  0.0662 -0.0296
 2264TIP3    H128283   4.614   2.591  12.673  1.5132 -0.9201  1.6206
 2264TIP3    H228284   4.586   2.451  12.724  0.1219 -1.7251 -1.1651
 2265TIP3   OH228285   4.514   0.247   6.114  0.0288 -0.1546  0.1627
 2265TIP3    H128286   4.530   0.245   6.209 -0.0163  0.6130  0.1935
 2265TIP3    H228287   4.515   0.155   6.088  3.2218 -0.3102  0.3971
 2266TIP3   OH228288   6.701   0.085  14.383  0.1861  0.0902  0.7100
 2266TIP3    H128289   6.756   0.030  14.440  0.2162 -0.6117  0.0283
 2266TIP3    H228290   6.640   0.023  14.343  0.5596  0.4622 -0.4763
 2267TIP3   OH228291   0.369   3.577  13.536 -0.0970  0.1030  0.1827
 2267TIP3    H128292   0.371   3.593  13.630 -2.3259 -0.1790  0.3343
 2267TIP3    H228293   0.461   3.573  13.510  0.5550  1.1337  2.1652
 2268TIP3   OH228294   4.656   6.350  12.477 -0.3113 -0.6978  0.1513
 2268TIP3    H128295   4.660   6.363  12.382  1.2174 -1.6583  0.0514
 2268TIP3    H228296   4.564   6.358  12.498 -0.7556 -1.0283 -1.5044
 2269TIP3   OH228297   4.910   3.219   2.736  0.3914 -0.7115 -0.9814
 2269TIP3    H128298   4.824   3.250   2.763  0.7327  0.8207 -1.5642
 2269TIP3    H228299   4.947   3.179   2.815 -0.0705  0.4045 -0.1689
 2270TIP3   OH228300   1.289   0.831  12.929  0.8402 -0.0098 -0.1575
 2270TIP3    H128301   1.214   0.775  12.951 -0.2830  0.6437 -2.0458
 2270TIP3    H228302   1.307   0.879  13.009  1.2654 -2.3466  1.2608
 2271TIP3   OH228303   0.038   6.136  15.047  0.1975 -0.4757  0.5577
 2271TIP3    H128304  -0.033   6.199  15.060 -0.3045 -0.1774 -2.7309
 2271TIP3    H228305  -0.006   6.052  15.039  0.7279 -1.0886  3.2204
 2272TIP3   OH228306   1.090   1.660   1.283 -0.7598  0.1149 -0.4722
 2272TIP3    H128307   1.164   1.600   1.274  0.1216  0.8736  1.2697
 2272TIP3    H228308   1.013   1.603   1.277  0.0490 -1.2727  1.3094
 2273TIP3   OH228309   5.919   4.107  16.582  0.3682 -0.0221  0.2935
 2273TIP3    H128310   6.006   4.075  16.556 -0.3885  0.3455 -3.2292
 2273TIP3    H228311   5.937   4.191  16.624  1.7606  0.4726 -1.1388
 2274TIP3   OH228312   5.172   4.645   2.587 -0.0426 -0.0734 -0.2763
 2274TIP3    H128313   5.136   4.634   2.499 -1.8338 -0.0049  0.3971
 2274TIP3    H228314   5.192   4.738   2.594 -0.7591  0.0915 -0.3263
 2275TIP3   OH228315   4.844   4.605   1.514  0.7339  0.1012 -0.0032
 2275TIP3    H128316   4.856   4.674   1.579  1.2259  1.5097 -1.5288
 2275TIP3    H228317   4.908   4.538   1.537 -0.3295 -0.3070  2.0121
 2276TIP3   OH228318   4.272   1.101  15.636  0.3110 -0.0023  0.7671
 2276TIP3    H128319   4.182   1.114  15.665 -0.3033 -1.3229 -0.4390
 2276TIP3    H228320   4.280   1.157  15.559  1.0753  1.3789  1.7997
 2277TIP3   OH228321   5.999   3.880  11.717 -0.0117  0.7060  0.5304
 2277TIP3    H128322   5.909   3.862  11.743  0.1199  0.9245  1.1592
 2277TIP3    H228323   6.016   3.818  11.645 -0.2615 -0.2035  1.2312
 2278TIP3   OH228324   0.895   1.223  15.945  0.5063 -0.6924 -0.2266
 2278TIP3    H128325   0.846   1.306  15.948 -2.4030 -2.2057 -1.4315
 2278TIP3    H228326   0.876   1.181  16.028 -1.1102 -1.6582 -1.0291
 2279TIP3   OH228327   1.403   0.250   4.315  0.1788 -0.0984 -0.5064
 2279TIP3    H128328   1.462   0.225   4.244  1.2371 -0.0015  0.3051
 2279TIP3    H228329   1.445   0.327   4.354 -1.5573  1.2561 -1.2015
 2280TIP3   OH228330   3.977   3.500  16.761 -0.1811  0.0003 -0.1127
 2280TIP3    H128331   4.055   3.445  16.766  0.6618  1.1568 -0.0162
 2280TIP3    H228332   3.982   3.540  16.674 -0.4272  0.4175  0.0621
 2281TIP3   OH228333   0.741   0.568   5.970 -1.0359 -0.1165 -0.2901
 2281TIP3    H128334   0.652   0.541   5.949 -0.7529 -0.6802 -0.7858
 2281TIP3    H228335   0.732   0.661   5.994 -1.5405  0.2780 -1.8891
 2282TIP3   OH228336   4.152   4.503  12.211  0.2410 -0.3549 -0.0416
 2282TIP3    H128337   4.154   4.574  12.146 -2.4672  0.5322  0.7124
 2282TIP3    H228338   4.242   4.470  12.213  1.4081  2.4255 -1.1085
 2283TIP3   OH228339   6.596   4.288  15.700 -0.5468  0.4681  0.0121
 2283TIP3    H128340   6.660   4.358  15.716 -1.1463  0.7272  1.4605
 2283TIP3    H228341   6.544   4.319  15.626  1.3429 -0.0221 -1.6075
 2284TIP3   OH228342   5.051   0.349  12.202  0.3323  0.2786  0.3413
 2284TIP3    H128343   5.008   0.321  12.121  1.9175 -1.5974  0.0714
 2284TIP3    H228344   4.981   0.390  12.253 -0.8329  1.0409 -1.7198
 2285TIP3   OH228345   5.109   5.958  16.121  0.2582 -0.1954  0.0204
 2285TIP3    H128346   5.153   5.896  16.063  0.4402 -1.0127  1.0081
 2285TIP3    H228347   5.177   6.019  16.147  0.2781 -0.0904 -0.2793
 2286TIP3   OH228348   5.288   2.810   0.058  0.1811 -0.0126  0.4933
 2286TIP3    H128349   5.315   2.892   0.017 -1.1657  1.5022  2.4404
 2286TIP3    H228350   5.359   2.789   0.119  0.4703 -0.2200  0.0840
 2287TIP3   OH228351   2.347   0.081  16.202  0.0866 -0.2882 -0.0270
 2287TIP3    H128352   2.255   0.101  16.186  0.7200  0.7930 -3.0498
 2287TIP3    H228353   2.392   0.165  16.196  1.3100 -0.7973  1.3537
 2288TIP3   OH228354   2.850   1.458  15.453 -0.0473  0.0935  0.2660
 2288TIP3    H128355   2.924   1.436  15.396 -1.3293 -1.4518 -0.8850
 2288TIP3    H228356   2.848   1.387  15.517 -1.1746 -0.5259 -0.4116
 2289TIP3   OH228357   5.760   5.110   5.551 -0.0522 -0.2264 -0.3702
 2289TIP3    H128358   5.834   5.100   5.491  0.9007 -1.2081  0.9091
 2289TIP3    H228359   5.770   5.198   5.587  0.9462 -0.6128  0.3362
 2290TIP3   OH228360   5.629   4.328   2.586  0.2391  0.5682  0.4599
 2290TIP3    H128361   5.680   4.385   2.643 -0.7833 -0.0006  2.0279
 2290TIP3    H228362   5.563   4.385   2.546  0.2546  0.7757  0.7360
 2291TIP3   OH228363   1.199   0.084  12.670 -0.0327  0.0163  0.6015
 2291TIP3    H128364   1.119   0.055  12.625 -0.2348  1.6331 -0.1474
 2291TIP3    H228365   1.261   0.100  12.599  1.0850 -1.4752  1.1954
 2292TIP3   OH228366   2.042   1.498   5.360 -0.3113  0.7440 -0.0512
 2292TIP3    H128367   1.964   1.526   5.311 -0.1562  1.4031  0.0638
 2292TIP3    H228368   2.116   1.526   5.305 -0.1175 -1.9563 -1.3364
 2293TIP3   OH228369   4.290   1.171  16.971  0.0776 -0.3058 -0.2210
 2293TIP3    H128370   4.357   1.139  17.030 -1.8461 -0.4521  2.0487
 2293TIP3    H228371   4.286   1.265  16.986  1.0453  0.0257 -1.8009
 2294TIP3   OH228372   4.255   6.470  15.990 -0.6308  0.0978  0.2407
 2294TIP3    H128373   4.215   6.548  15.950 -2.3745 -0.3772  0.9907
 2294TIP3    H228374   4.343   6.499  16.013 -1.1699  1.8140  0.3498
 2295TIP3   OH228375   3.115   3.170  12.777 -0.4945 -0.0972 -0.0219
 2295TIP3    H128376   3.110   3.162  12.682  0.9730  0.1942 -0.1491
 2295TIP3    H228377   3.206   3.194  12.794 -0.3678 -1.5128  1.5518
 2296TIP3   OH228378   3.304   2.986  16.391  0.1930  0.0566 -0.1745
 2296TIP3    H128379   3.388   3.031  16.389  0.7200 -0.8485  0.9559
 2296TIP3    H228380   3.240   3.056  16.375  1.1437  0.7372 -1.1378
 2297TIP3   OH228381   0.753   6.184  15.623 -0.3336  0.1031  0.3560
 2297TIP3    H128382   0.809   6.161  15.696 -1.8294 -0.5124  1.3578
 2297TIP3    H228383   0.803   6.160  15.545  0.2281 -1.7599  1.2418
 2298TIP3   OH228384   2.586   1.422  14.107 -0.4308 -0.0974 -0.1607
 2298TIP3    H128385   2.584   1.426  14.203 -0.1250 -0.8582 -0.1151
 2298TIP3    H228386   2.679   1.411  14.086  0.1298  4.0035 -0.7439
 2299TIP3   OH228387   0.203   0.572   2.016 -0.1202  0.2848 -0.2898
 2299TIP3    H128388   0.278   0.583   2.075 -0.2783 -0.6626  0.1004
 2299TIP3    H228389   0.238   0.595   1.929  0.4820  0.3667 -0.0326
 2300TIP3   OH228390   2.101   3.387   5.524 -0.2657  0.6066  0.3889
 2300TIP3    H128391   2.028   3.382   5.463 -0.0533 -0.3716  0.1896
 2300TIP3    H228392   2.069   3.347   5.604  0.5700 -1.6285 -0.2824
 2301TIP3   OH228393   3.141   6.221  12.134  0.0195  0.2546  0.0692
 2301TIP3    H128394   3.224   6.227  12.181 -1.1837  3.4354  2.1184
 2301TIP3    H228395   3.081   6.179  12.195 -0.5062  0.3947 -0.3350
 2302TIP3   OH228396   5.130   2.378  11.705 -0.1404  0.3854  0.9636
 2302TIP3    H128397   5.193   2.312  11.736  0.7549  1.0840  0.6558
 2302TIP3    H228398   5.102   2.423  11.785  0.4707  0.6979  1.0050
 2303TIP3   OH228399   1.065   0.629   3.646 -0.0729 -0.0496 -0.2807
 2303TIP3    H128400   1.122   0.671   3.710  0.9917  1.1662 -1.9391
 2303TIP3    H228401   0.997   0.695   3.628 -0.0181 -0.1408 -0.8356
 2304TIP3   OH228402   0.441   3.158   1.475  0.6723 -0.4344 -0.7650
 2304TIP3    H128403   0.452   3.200   1.389 -0.2730  0.5053 -0.4427
 2304TIP3    H228404   0.393   3.077   1.456  0.7661 -0.4003 -1.1602
 2305TIP3   OH228405   0.173   1.196  15.159 -0.2946  0.1891 -0.2068
 2305TIP3    H128406   0.219   1.270  15.200  0.4991 -0.5936  0.3407
 2305TIP3    H228407   0.170   1.129  15.226  1.1423 -1.1731 -1.4226
 2306TIP3   OH228408   1.368   3.346  15.057  0.1930  0.5236  0.1522
 2306TIP3    H128409   1.456   3.331  15.093  0.0033  0.6990  0.7061
 2306TIP3    H228410   1.328   3.407  15.118 -0.5934 -0.1612  0.3446
 2307TIP3   OH228411   0.708   2.329   0.568 -0.5030  0.0234  0.0367
 2307TIP3    H128412   0.691   2.422   0.551 -0.4663 -0.3719 -2.6194
 2307TIP3    H228413   0.786   2.329   0.625  0.1537  1.6240 -0.7970
 2308TIP3   OH228414   5.617   2.321  15.394 -0.0020  1.0231  0.4935
 2308TIP3    H128415   5.533   2.366  15.401 -1.8358 -1.5760 -2.1314
 2308TIP3    H228416   5.611   2.249  15.456 -0.8867 -0.6352 -1.4155
 2309TIP3   OH228417   2.799   6.126   1.928 -0.3245 -0.6716  0.1519
 2309TIP3    H128418   2.735   6.173   1.982  1.9181 -0.1832  2.6539
 2309TIP3    H228419   2.841   6.195   1.876 -0.0133 -0.5398  0.5648
 2310TIP3   OH228420   6.304   4.427   3.690  0.1259 -0.4498  0.3361
 2310TIP3    H128421   6.286   4.445   3.598 -2.2571  2.2390  1.1437
 2310TIP3    H228422   6.399   4.418   3.695  0.3491 -0.2961 -2.3009
 2311TIP3   OH228423   0.503   3.962  15.513 -0.1595 -0.3583 -0.2937
 2311TIP3    H128424   0.458   3.962  15.428  0.2438 -1.3116 -0.5273
 2311TIP3    H228425   0.440   3.922  15.573 -0.5629  0.6002 -0.0674
 2312TIP3   OH228426   5.334   4.612  13.581  0.7018  0.1746  0.4417
 2312TIP3    H128427   5.314   4.641  13.492  0.6040 -0.4981  0.2336
 2312TIP3    H228428   5.327   4.516  13.577 -1.3996  0.2238  1.6828
 2313TIP3   OH228429   6.737   6.487   4.832  0.2593  0.0618  0.2108
 2313TIP3    H128430   6.688   6.427   4.887  0.1605 -0.0985 -0.0483
 2313TIP3    H228431   6.825   6.449   4.827 -0.0671 -0.5941 -0.7510
 2314TIP3   OH228432   6.789   3.257   0.238 -0.1349  0.2109 -0.7835
 2314TIP3    H128433   6.818   3.166   0.229  0.3842  0.1198  1.2905
 2314TIP3    H228434   6.698   3.257   0.209 -0.0869 -0.9373 -0.9702
 2315TIP3   OH228435   3.305   0.803  11.193  0.0269  0.1644 -0.0412
 2315TIP3    H128436   3.388   0.758  11.184 -0.1213 -0.3244  0.8849
 2315TIP3    H228437   3.278   0.823  11.104  0.3705 -1.0895 -0.4403
 2316TIP3   OH228438   0.036   1.950   0.112  0.1162  0.5729 -0.0993
 2316TIP3    H128439   0.045   1.866   0.157  0.7667  1.2194  1.0309
 2316TIP3    H228440  -0.054   1.952   0.081 -0.4107  0.1341  1.3026
 2317TIP3   OH228441   0.991   0.900  12.401  0.4185 -0.3859 -0.7180
 2317TIP3    H128442   1.073   0.946  12.421 -0.3275  0.0200  1.6739
 2317TIP3    H228443   0.927   0.970  12.392  0.1536 -0.7479 -1.8999
 2318TIP3   OH228444   1.261   3.681  12.940  0.3483 -0.0661 -0.0532
 2318TIP3    H128445   1.199   3.749  12.966  0.6848 -0.6251  2.5330
 2318TIP3    H228446   1.308   3.718  12.866 -1.4529  1.2914 -0.5985
 2319TIP3   OH228447   0.773   1.429  13.881  0.1244  0.4285  0.1486
 2319TIP3    H128448   0.743   1.380  13.804 -0.4193 -0.0984  0.6924
 2319TIP3    H228449   0.712   1.503  13.887 -0.7331 -0.3223  0.9113
 2320TIP3   OH228450   2.056   2.434  16.574  0.6749 -0.0547  0.3683
 2320TIP3    H128451   2.080   2.416  16.483 -3.1654  1.1869 -1.0985
 2320TIP3    H228452   2.054   2.530  16.579 -1.1756 -0.0920  1.0615
 2321TIP3   OH228453   1.079   5.520  12.601 -0.4810  0.6623 -0.1748
 2321TIP3    H128454   1.010   5.587  12.601 -0.1389  1.1111  2.2647
 2321TIP3    H228455   1.159   5.569  12.583 -0.5048  0.4923 -0.7794
 2322TIP3   OH228456   1.011   2.245   5.021 -0.0980 -0.6764  0.0893
 2322TIP3    H128457   1.105   2.240   5.005  0.1720 -1.1693  1.6394
 2322TIP3    H228458   0.973   2.260   4.935  1.4247 -0.0138 -0.5005
 2323TIP3   OH228459   2.745   0.931   2.755 -0.0419  0.2302 -0.4373
 2323TIP3    H128460   2.690   0.968   2.686 -1.3306 -3.1426 -1.4302
 2323TIP3    H228461   2.725   0.983   2.833 -1.9933  1.3015 -1.5815
 2324TIP3   OH228462   3.267   3.275   3.162  0.1277  0.5705  0.0028
 2324TIP3    H128463   3.195   3.217   3.141  1.8865 -1.2490 -1.3682
 2324TIP3    H228464   3.243   3.314   3.247 -0.3246 -3.6950  2.0963
 2325TIP3   OH228465   5.922   4.669  12.747  0.0705 -0.1558  0.4172
 2325TIP3    H128466   5.913   4.578  12.716  0.5766 -0.5693  1.4347
 2325TIP3    H228467   5.996   4.704  12.697 -0.9098  0.1153 -0.8840
 2326TIP3   OH228468   6.362   0.838   5.184 -0.0219 -0.4817 -0.0607
 2326TIP3    H128469   6.393   0.926   5.208  1.4128 -0.6940 -1.0013
 2326TIP3    H228470   6.334   0.848   5.093 -0.5484 -0.8315  0.0669
 2327TIP3   OH228471   3.040   3.784   3.480 -0.3497 -0.3659 -0.2410
 2327TIP3    H128472   2.957   3.810   3.520 -0.3136 -0.2805 -0.2224
 2327TIP3    H228473   3.026   3.799   3.386  0.5293  2.1423 -0.0409
 2328TIP3   OH228474   4.649   5.748  13.909 -0.4017  0.0019  0.1450
 2328TIP3    H128475   4.561   5.781  13.927 -1.4346 -1.6763 -1.3815
 2328TIP3    H228476   4.695   5.822  13.869 -2.1581  0.1042 -1.8571
 2329TIP3   OH228477   5.082   6.606   3.599 -0.0607  0.2530 -0.3159
 2329TIP3    H128478   5.154   6.574   3.543  0.8735  0.4259  0.7414
 2329TIP3    H228479   5.016   6.637   3.538  0.5746 -0.3297 -1.3309
 2330TIP3   OH228480   1.518   3.683   4.279 -0.2336  0.0878  0.1715
 2330TIP3    H128481   1.489   3.593   4.265  1.0716 -0.7388  2.1767
 2330TIP3    H228482   1.493   3.702   4.370  1.0691  1.0721  0.3601
 2331TIP3   OH228483   6.403   2.654   2.638  0.2358 -0.1926 -0.0831
 2331TIP3    H128484   6.443   2.611   2.714 -1.7433  0.0301  1.1740
 2331TIP3    H228485   6.331   2.706   2.676  0.0882  1.0752 -1.9764
 2332TIP3   OH228486   2.294   3.430   2.945 -0.2052 -0.4702  0.3726
 2332TIP3    H128487   2.217   3.406   2.893 -0.0269  0.3028 -0.2690
 2332TIP3    H228488   2.362   3.448   2.879  0.2926 -0.3667  0.9096
 2333TIP3   OH228489   5.358   3.021  13.594 -0.1127 -0.2578  0.2068
 2333TIP3    H128490   5.407   3.063  13.523  1.8236 -0.1549  1.5300
 2333TIP3    H228491   5.329   3.094  13.649 -1.1398 -0.3736 -0.1541
 2334TIP3   OH228492   3.468   0.727   5.932 -0.3743 -0.0388  0.6015
 2334TIP3    H128493   3.398   0.661   5.934  0.0311 -0.5052 -0.0630
 2334TIP3    H228494   3.431   0.800   5.883  0.2058 -1.0435 -1.4560
 2335TIP3   OH228495   5.390   5.600   3.390 -0.3110  0.2886  0.7108
 2335TIP3    H128496   5.369   5.524   3.444 -0.2257  1.3311  2.2799
 2335TIP3    H228497   5.459   5.646   3.438 -1.5738  2.2929  0.7450
 2336TIP3   OH228498   1.439   5.449   4.971  0.2818 -0.2205 -0.4230
 2336TIP3    H128499   1.523   5.449   5.017  0.6030  0.0653 -0.9983
 2336TIP3    H228500   1.442   5.528   4.917 -0.5648  0.0573 -0.0758
 2337TIP3   OH228501   3.224   6.504   1.544  0.3309  0.0787 -0.5755
 2337TIP3    H128502   3.201   6.591   1.514 -0.2079 -0.2664 -1.1785
 2337TIP3    H228503   3.320   6.501   1.537  0.3882  0.7482 -0.1716
 2338TIP3   OH228504   3.786   2.667   2.744 -0.1567  0.4094 -0.1107
 2338TIP3    H128505   3.792   2.718   2.825 -0.8777  2.0299 -1.0423
 2338TIP3    H228506   3.845   2.712   2.684  0.1566 -0.6203 -0.5847
 2339TIP3   OH228507   2.504   1.464   4.616  0.1286 -0.2683  0.2761
 2339TIP3    H128508   2.584   1.437   4.571 -0.9247 -1.3647 -1.0609
 2339TIP3    H228509   2.534   1.516   4.691  2.1968 -2.6575  1.2538
 2340TIP3   OH228510   4.022   3.142  13.935 -0.0121  0.0448  0.1781
 2340TIP3    H128511   3.933   3.109  13.923 -0.3658  0.8609  0.4830
 2340TIP3    H228512   4.069   3.069  13.976 -0.1663 -0.8857 -1.2425
 2341TIP3   OH228513   5.232   2.877   4.439 -0.1601 -0.1459  0.5208
 2341TIP3    H128514   5.203   2.821   4.511  1.4267 -1.5373  0.1379
 2341TIP3    H228515   5.319   2.844   4.416 -1.0612 -0.5577 -2.8224
 2342TIP3   OH228516   5.640   5.028   3.685  0.8125 -0.0834  0.0800
 2342TIP3    H128517   5.596   5.102   3.727 -2.3276 -1.6985 -0.0615
 2342TIP3    H228518   5.643   5.051   3.592 -0.0019 -0.0293  0.0578
 2343TIP3   OH228519   5.686   1.818   0.226  0.1029 -0.1375  0.0766
 2343TIP3    H128520   5.703   1.820   0.320 -0.1477 -0.1418  0.1223
 2343TIP3    H228521   5.624   1.889   0.211  0.4532  0.1242 -0.1499
 2344TIP3   OH228522   6.384   6.676   4.631  0.3168  0.3503 -0.4444
 2344TIP3    H128523   6.321   6.682   4.703  1.1812 -2.7410  0.7308
 2344TIP3    H228524   6.334   6.644   4.557 -0.2132  1.7769 -0.7387
 2345TIP3   OH228525   4.964   4.921   3.921 -0.2600 -0.2566  0.0671
 2345TIP3    H128526   5.032   4.954   3.863 -0.3448 -0.2988 -0.0560
 2345TIP3    H228527   4.905   4.871   3.864 -0.7910  0.3759  0.0465
 2346TIP3   OH228528   0.148   6.685   5.061 -0.4372 -0.0122 -0.4221
 2346TIP3    H128529   0.226   6.632   5.079  0.8155  1.6754 -0.6313
 2346TIP3    H228530   0.077   6.638   5.104  0.8040 -1.2428  0.3842
 2347TIP3   OH228531   1.243   1.522  16.045  0.3208  0.1236  0.2713
 2347TIP3    H128532   1.330   1.540  16.009  1.9123 -3.7774  1.5769
 2347TIP3    H228533   1.242   1.567  16.129  1.0932  0.1911  0.2548
 2348TIP3   OH228534   6.687   4.602  16.446  0.1653 -0.0142  0.0905
 2348TIP3    H128535   6.717   4.685  16.408 -1.7529  0.2941 -0.8490
 2348TIP3    H228536   6.767   4.562  16.482  1.5620  1.0544 -1.6671
 2349TIP3   OH228537   0.553   0.492   5.066 -0.3844 -0.1254  0.4103
 2349TIP3    H128538   0.545   0.489   5.161 -2.9111  1.4345  0.3576
 2349TIP3    H228539   0.503   0.417   5.035 -0.7890  0.1744  0.3201
 2350TIP3   OH228540   6.606   1.751   4.500 -0.7022  0.1860  0.2040
 2350TIP3    H128541   6.669   1.679   4.507  0.6129  1.3172  0.5025
 2350TIP3    H228542   6.575   1.746   4.410  1.6305  1.0077 -0.7198
 2351TIP3   OH228543   1.976   6.227  12.673 -0.0739 -0.1414  0.2517
 2351TIP3    H128544   1.964   6.312  12.716  1.9794  0.1959  0.2527
 2351TIP3    H228545   1.960   6.245  12.580 -0.7142 -0.0111  0.3825
 2352TIP3   OH228546   1.663   1.835   3.783  0.2711 -0.4413 -0.3859
 2352TIP3    H128547   1.651   1.911   3.840  1.3557 -0.2235 -0.4339
 2352TIP3    H228548   1.707   1.770   3.839 -1.1147 -1.2515 -0.1867
 2353TIP3   OH228549   3.071   2.249  14.155 -0.0704  0.0783 -0.9602
 2353TIP3    H128550   3.062   2.158  14.182 -1.0275 -0.0793 -1.7588
 2353TIP3    H228551   3.012   2.297  14.213  1.5316  0.4178  0.4535
 2354TIP3   OH228552   6.351   0.505  12.251 -0.2241 -0.0921  0.6367
 2354TIP3    H128553   6.261   0.511  12.283  0.3875  1.7537  2.1994
 2354TIP3    H228554   6.395   0.582  12.288  1.2424  0.8497 -2.6595
 2355TIP3   OH228555   2.730   0.746  16.310 -0.2469  0.3544  0.2975
 2355TIP3    H128556   2.664   0.770  16.245 -0.7474  0.1205  0.7171
 2355TIP3    H228557   2.722   0.651  16.317  0.5710  0.2475 -0.1164
 2356TIP3   OH228558   5.906   1.128  16.959 -0.0934  0.2974  0.3980
 2356TIP3    H128559   5.859   1.120  16.876 -1.2502  1.8991  0.8440
 2356TIP3    H228560   5.929   1.039  16.982 -1.9799 -0.4437 -0.3994
 2357TIP3   OH228561   4.889   1.605   0.337  0.3080 -0.2078 -0.3450
 2357TIP3    H128562   4.855   1.516   0.334  0.0314 -0.1324  0.2815
 2357TIP3    H228563   4.974   1.597   0.379  0.1936 -0.1519 -0.1023
 2358TIP3   OH228564   2.602   0.474   2.959 -0.0391  1.0692 -0.0898
 2358TIP3    H128565   2.683   0.524   2.950 -0.2881  1.3625 -0.7519
 2358TIP3    H228566   2.601   0.417   2.883 -0.1007  0.5386  0.3021
 2359TIP3   OH228567   4.386   5.712  15.172  0.7948 -0.6414 -0.3027
 2359TIP3    H128568   4.339   5.738  15.092  1.1915  0.1237 -0.3003
 2359TIP3    H228569   4.349   5.768  15.240  1.8773  0.1589 -0.3482
 2360TIP3   OH228570   1.497   4.560   2.578 -0.3786  0.7071  0.3554
 2360TIP3    H128571   1.570   4.503   2.553 -0.9359 -1.3656  3.0425
 2360TIP3    H228572   1.527   4.604   2.657 -2.1413 -0.6638  1.8860
 2361TIP3   OH228573   5.648   0.640   4.134 -0.3015 -0.4220  0.2208
 2361TIP3    H128574   5.712   0.668   4.068 -1.7843  1.8057 -0.3862
 2361TIP3    H228575   5.627   0.720   4.183 -1.8158 -1.3104  1.1100
 2362TIP3   OH228576   6.013   4.441   2.718 -0.6946  0.1238 -0.3114
 2362TIP3    H128577   5.981   4.352   2.730 -1.4827  0.4478  0.1180
 2362TIP3    H228578   6.090   4.432   2.661 -1.2714 -0.7295 -0.9789
 2363TIP3   OH228579   3.596   2.769   4.829 -0.3453 -0.0596 -0.4798
 2363TIP3    H128580   3.638   2.850   4.857  1.2141 -1.3010  0.9606
 2363TIP3    H228581   3.516   2.764   4.881  0.3862 -0.2252  0.6658
 2364TIP3   OH228582   3.477   6.602  14.129  0.3039  0.8834  1.0571
 2364TIP3    H128583   3.491   6.693  14.156  1.0945  0.6344  1.5200
 2364TIP3    H228584   3.450   6.557  14.209  0.4808  0.5954  0.9548
 2365TIP3   OH228585   0.754   5.830   5.859  0.3344  0.0346 -0.0736
 2365TIP3    H128586   0.675   5.811   5.911  0.4903 -1.9727 -0.4599
 2365TIP3    H228587   0.821   5.852   5.924 -0.0606 -0.1474  0.4063
 2366TIP3   OH228588   5.827   1.984   6.239 -0.6698  0.1991 -0.1933
 2366TIP3    H128589   5.750   2.027   6.200 -0.9869 -0.6837 -0.5763
 2366TIP3    H228590   5.894   2.051   6.239 -2.0400  1.6956  2.1593
 2367TIP3   OH228591   5.351   2.547  12.392 -0.1752  0.3336 -0.3516
 2367TIP3    H128592   5.272   2.517  12.346  0.7656 -1.6355 -0.8071
 2367TIP3    H228593   5.384   2.469  12.436  1.5419  1.1026 -0.2029
 2368TIP3   OH228594   3.759   3.823   0.170  0.3992  0.4764  0.2818
 2368TIP3    H128595   3.784   3.766   0.242 -1.0836 -0.6157 -0.0298
 2368TIP3    H228596   3.764   3.912   0.207  0.4709 -0.0124  1.4837
 2369TIP3   OH228597   2.694   3.941   1.309 -0.9816 -0.3049 -0.7689
 2369TIP3    H128598   2.669   4.026   1.344  1.4553 -0.2706  1.1088
 2369TIP3    H228599   2.701   3.955   1.214 -0.1873  1.7155 -0.4441
 2370TIP3   OH228600   0.256   2.690  11.642 -0.3722 -0.2951 -0.0116
 2370TIP3    H128601   0.190   2.644  11.591 -0.0810  0.5015 -1.1328
 2370TIP3    H228602   0.333   2.692  11.586 -0.4304  1.6842 -0.0902
 2371TIP3   OH228603   2.882   2.092  16.428  0.2385  0.1028 -0.1989
 2371TIP3    H128604   2.933   2.119  16.352  0.0379 -2.4629 -1.3477
 2371TIP3    H228605   2.948   2.080  16.497  0.7856 -0.1425 -0.7510
 2372TIP3   OH228606   4.080   3.261   1.467 -0.4596  0.4676 -0.4316
 2372TIP3    H128607   4.074   3.357   1.477 -1.9863  0.3263  0.4774
 2372TIP3    H228608   4.135   3.233   1.540 -0.8845  0.5879 -0.0538
 2373TIP3   OH228609   4.067   6.785   3.287 -0.0970 -0.2662 -0.3883
 2373TIP3    H128610   4.027   6.702   3.262  0.6588 -0.9819  0.6693
 2373TIP3    H228611   4.047   6.794   3.381  0.0501  0.6187 -0.4349
 2374TIP3   OH228612   4.728   3.179   0.079  0.5674  0.3233  0.0356
 2374TIP3    H128613   4.808   3.174   0.132  1.2525 -0.7152 -1.0396
 2374TIP3    H228614   4.681   3.099   0.099  0.9391 -0.1888 -1.0444
 2375TIP3   OH228615   6.668   4.018   2.388 -0.4103 -0.2875 -0.2014
 2375TIP3    H128616   6.598   4.053   2.333  0.0183 -0.4690 -0.8763
 2375TIP3    H228617   6.623   3.973   2.459 -0.9732 -0.3299 -0.5834
 2376TIP3   OH228618   5.792   3.055   5.799 -0.0305 -0.2268 -0.2264
 2376TIP3    H128619   5.814   3.146   5.815  0.9287 -0.4057 -0.4698
 2376TIP3    H228620   5.875   3.007   5.811 -0.5807 -1.0991  0.2014
 2377TIP3   OH228621   5.580   6.024  15.657 -0.7070  0.1004  0.4729
 2377TIP3    H128622   5.501   6.057  15.698 -1.4894  0.3090 -1.0976
 2377TIP3    H228623   5.652   6.063  15.706 -1.5906  0.8809  1.1787
 2378TIP3   OH228624   6.568   4.319  11.409 -0.3543  0.0506 -0.0882
 2378TIP3    H128625   6.553   4.355  11.322  0.2205 -2.0635 -1.1088
 2378TIP3    H228626   6.483   4.285  11.437  0.2222 -3.1713 -1.7571
 2379TIP3   OH228627   2.774   6.220   0.125  0.0113 -0.2774  0.1444
 2379TIP3    H128628   2.765   6.269   0.043  1.8443 -0.6960 -0.3324
 2379TIP3    H228629   2.834   6.149   0.105 -3.1159 -3.3356  0.5982
 2380TIP3   OH228630   0.037   3.727  12.143 -0.1569 -0.3504 -0.2714
 2380TIP3    H128631  -0.032   3.672  12.107 -0.6717 -0.3361  0.6436
 2380TIP3    H228632   0.036   3.806  12.089 -0.1460 -0.7814 -0.9107
 2381TIP3   OH228633   1.927   3.763  17.003  0.3274 -0.0688 -0.2752
 2381TIP3    H128634   1.965   3.724  16.925 -2.0839 -2.3639 -0.4588
 2381TIP3    H228635   1.988   3.740  17.073  1.6488  0.5451 -1.1811
 2382TIP3   OH228636   1.877   5.380   6.622 -0.0635  0.6962  0.2603
 2382TIP3    H128637   1.972   5.373   6.615 -0.0379  1.3834 -0.0864
 2382TIP3    H228638   1.846   5.289   6.619  0.5632  0.4862  0.1111
 2383TIP3   OH228639   3.222   3.617   3.590 -0.1952  0.1257 -0.1840
 2383TIP3    H128640   3.151   3.671   3.554 -0.4857 -0.5918 -0.7040
 2383TIP3    H228641   3.192   3.596   3.679 -1.3306 -1.3472 -0.8732
 2384TIP3   OH228642   2.011   3.026   3.518 -0.3346 -0.0234  0.4780
 2384TIP3    H128643   1.927   3.069   3.504 -1.2613 -1.8530  0.1172
 2384TIP3    H228644   2.034   2.988   3.433  2.8841  3.6532 -0.5802
 2385TIP3   OH228645   3.810   3.985  16.468  0.9017  0.1957 -0.3366
 2385TIP3    H128646   3.797   4.064  16.521  2.4289 -0.0827  0.5128
 2385TIP3    H228647   3.766   3.915  16.516  2.1492 -0.0262  0.5261
 2386TIP3   OH228648   3.905   0.217   2.777  0.1422 -0.4113 -0.1466
 2386TIP3    H128649   3.975   0.183   2.833 -0.5432 -1.1175  0.3018
 2386TIP3    H228650   3.857   0.278   2.833 -1.0207 -1.7006  0.3334
 2387TIP3   OH228651   4.538   5.736  11.156  0.2164 -0.1180  0.1750
 2387TIP3    H128652   4.543   5.831  11.142 -0.0078  0.2248  2.1823
 2387TIP3    H228653   4.627   5.705  11.136  0.6941  0.7276  0.8987
 2388TIP3   OH228654   1.223   4.450  11.229 -0.5238 -0.0074 -0.0720
 2388TIP3    H128655   1.274   4.528  11.253  0.1069 -0.7082  0.9709
 2388TIP3    H228656   1.156   4.444  11.297 -0.1606 -0.7308  0.2326
 2389TIP3   OH228657   0.130   1.544  16.038 -0.0581  0.2307 -0.2181
 2389TIP3    H128658   0.149   1.613  16.102 -1.2565  0.7850 -0.4402
 2389TIP3    H228659   0.074   1.482  16.085  1.4732 -0.9308  0.1574
 2390TIP3   OH228660   5.081   3.997  14.166  0.8628  0.5089  1.0277
 2390TIP3    H128661   5.089   4.053  14.089 -0.3141 -1.4536 -0.6223
 2390TIP3    H228662   4.998   3.951  14.154  1.4595 -1.1108  2.6183
 2391TIP3   OH228663   2.747   2.832   4.546  0.2283 -0.0433 -0.1329
 2391TIP3    H128664   2.751   2.860   4.638 -0.4262 -0.3007 -0.0186
 2391TIP3    H228665   2.721   2.910   4.498  0.8126  0.1546 -0.1340
 2392TIP3   OH228666   5.606   3.994  10.992 -0.2294 -0.3860  0.1844
 2392TIP3    H128667   5.534   4.031  11.043 -0.8687  0.5808 -1.3671
 2392TIP3    H228668   5.576   3.998  10.901  0.6215 -2.6370 -0.2609
 2393TIP3   OH228669   6.130   0.772   3.010 -0.1101 -0.8942  0.3557
 2393TIP3    H128670   6.133   0.755   3.104 -1.0244 -0.8043  0.4069
 2393TIP3    H228671   6.130   0.685   2.970 -1.3597 -0.9723  0.5015
 2394TIP3   OH228672   4.510   3.026  11.022  0.0559 -0.1231 -0.4028
 2394TIP3    H128673   4.599   2.993  11.003  0.1652 -0.8103  1.1521
 2394TIP3    H228674   4.473   3.045  10.936  1.5285 -0.3263 -1.1148
 2395TIP3   OH228675   1.702   4.584  14.910 -0.1945 -0.7183  0.2276
 2395TIP3    H128676   1.755   4.642  14.965 -0.5146  0.6270 -0.8377
 2395TIP3    H228677   1.731   4.496  14.934  0.2405 -0.1517  1.9585
 2396TIP3   OH228678   2.404   3.736  11.942 -0.3517  0.0348  0.4129
 2396TIP3    H128679   2.435   3.652  11.975  0.5028  0.9183  1.9815
 2396TIP3    H228680   2.483   3.787  11.926 -0.8517  0.5039 -0.7067
 2397TIP3   OH228681   0.308   2.077   2.942 -0.0470 -0.4322 -0.3220
 2397TIP3    H128682   0.336   2.041   2.858  1.7130 -0.8068  0.3703
 2397TIP3    H228683   0.386   2.071   2.998 -0.4435  2.0416  0.6210
 2398TIP3   OH228684   1.648   5.427  13.992  0.3339 -0.0184  0.3883
 2398TIP3    H128685   1.723   5.480  13.966  0.6940 -0.2954  0.8369
 2398TIP3    H228686   1.681   5.337  13.995  0.2742 -0.0177  1.6322
 2399TIP3   OH228687   0.049   2.033   6.221 -0.1813 -0.6686 -0.2589
 2399TIP3    H128688   0.129   1.995   6.186 -1.5102 -1.1287 -3.1024
 2399TIP3    H228689  -0.006   1.958   6.243 -0.3402 -0.3698  0.3817
 2400TIP3   OH228690   1.401   2.323  14.852 -0.2028 -0.4389  0.4105
 2400TIP3    H128691   1.419   2.253  14.790  1.1764 -1.3905  1.8061
 2400TIP3    H228692   1.348   2.283  14.921  0.9282 -0.2613  1.4256
 2401TIP3   OH228693   5.491   0.883   0.649 -0.0228 -0.0767  0.3599
 2401TIP3    H128694   5.489   0.792   0.618  1.1119 -1.8104  4.5680
 2401TIP3    H228695   5.431   0.930   0.592 -0.8369 -3.5017 -1.8981
 2402TIP3   OH228696   4.712   4.054  16.556 -0.4112  0.6003  1.0389
 2402TIP3    H128697   4.788   4.007  16.521 -0.8477  0.6443 -0.0036
 2402TIP3    H228698   4.667   3.989  16.610 -0.9595 -0.1777 -0.3094
 2403TIP3   OH228699   1.637   3.853  12.077 -0.4818 -0.0836  0.0254
 2403TIP3    H128700   1.583   3.929  12.100 -1.0093 -0.0380 -1.2771
 2403TIP3    H228701   1.727   3.885  12.081 -0.7132  0.7416 -0.8711
 2404TIP3   OH228702   6.454   1.191  13.424  0.0524 -0.0332  0.4480
 2404TIP3    H128703   6.513   1.245  13.477  1.3732 -1.8926  0.9419
 2404TIP3    H228704   6.370   1.196  13.471  1.0418 -1.1654  2.4765
 2405TIP3   OH228705   0.408   3.001  15.986 -0.0863  0.0388  0.0709
 2405TIP3    H128706   0.358   2.940  15.932  0.2642  0.0153 -0.2338
 2405TIP3    H228707   0.342   3.056  16.028 -0.3491  0.3631 -0.7459
 2406TIP3   OH228708   2.038   0.080  11.982  0.7278 -0.0899 -0.1820
 2406TIP3    H128709   1.951   0.046  11.962  0.7442  0.2657 -0.8709
 2406TIP3    H228710   2.084   0.005  12.020  0.8674 -0.9681 -1.9633
 2407TIP3   OH228711   4.386   4.948  14.760  0.3142  0.1857 -0.1454
 2407TIP3    H128712   4.478   4.932  14.739  0.6606  1.7942  0.0129
 2407TIP3    H228713   4.388   5.017  14.827 -1.0134  0.9545 -0.8429
 2408TIP3   OH228714   4.560   6.472  14.518  0.3120 -0.1145  0.2099
 2408TIP3    H128715   4.642   6.503  14.556  1.1034 -2.7301  0.8093
 2408TIP3    H228716   4.503   6.454  14.593  0.7867 -2.3928  0.0894
 2409TIP3   OH228717   2.518   5.456  15.716 -0.5997  0.5737 -0.6441
 2409TIP3    H128718   2.424   5.438  15.725 -0.7869  0.3313 -2.6075
 2409TIP3    H228719   2.560   5.373  15.735 -0.9722  0.0086 -2.1682
 2410TIP3   OH228720   0.593   4.011  16.071 -0.1221 -0.4879 -0.1208
 2410TIP3    H128721   0.671   4.067  16.065 -1.4264  1.2355 -3.8291
 2410TIP3    H228722   0.602   3.949  16.000 -2.0912 -0.2539 -0.6290
 2411TIP3   OH228723   5.220   0.456  13.564 -0.0065  0.5433 -0.6216
 2411TIP3    H128724   5.235   0.411  13.647  2.0813 -0.4062 -1.4584
 2411TIP3    H228725   5.259   0.543  13.577  1.3724  0.0043 -0.9287
 2412TIP3   OH228726   6.412   3.515  15.895  0.7461  0.1720  0.2354
 2412TIP3    H128727   6.437   3.607  15.886  1.2169 -0.1212 -1.8753
 2412TIP3    H228728   6.419   3.498  15.989  0.7243  2.2586  0.6622
 2413TIP3   OH228729   5.625   3.617  15.792  0.0207  0.3425 -0.3962
 2413TIP3    H128730   5.613   3.594  15.700  1.1710  0.5721 -0.6260
 2413TIP3    H228731   5.706   3.669  15.793 -0.3854  0.9815  0.6455
 2414TIP3   OH228732   3.369   6.685   3.880 -0.4260  0.0060  0.4019
 2414TIP3    H128733   3.400   6.773   3.861 -2.5965  0.2574 -2.6905
 2414TIP3    H228734   3.357   6.645   3.794  0.3834 -3.3283  1.6908
 2415TIP3   OH228735   1.298   5.332  10.739 -0.3596 -0.1040  0.6294
 2415TIP3    H128736   1.288   5.401  10.674 -1.2130 -0.8935 -0.0997
 2415TIP3    H228737   1.320   5.254  10.689 -2.4649 -1.0641  1.0885
 2416TIP3   OH228738   5.765   2.296  13.051 -0.3596  0.4519  0.0088
 2416TIP3    H128739   5.711   2.269  12.977 -1.4137  0.9448  0.5683
 2416TIP3    H228740   5.790   2.214  13.094  0.7022  0.1277 -1.1632
 2417TIP3   OH228741   5.298   3.312  16.488 -0.4550 -0.0114  0.0954
 2417TIP3    H128742   5.369   3.260  16.451 -0.9004  0.2155 -1.1232
 2417TIP3    H228743   5.226   3.304  16.425 -0.8464  1.3283  0.3339
 2418TIP3   OH228744   1.715   0.158  12.935 -0.2227  0.3390 -0.2557
 2418TIP3    H128745   1.658   0.229  12.904 -0.7060  0.2122  0.3244
 2418TIP3    H228746   1.658   0.081  12.939  0.0391  0.1604  0.1108
 2419TIP3   OH228747   3.658   0.001  13.017  0.3589 -0.2779  0.5163
 2419TIP3    H128748   3.737  -0.025  12.969  0.3253  0.1144  0.2387
 2419TIP3    H228749   3.612  -0.081  13.034  0.4745 -0.4433  0.0474
 2420TIP3   OH228750   1.602   2.018   3.979 -0.4304 -0.0635  0.3001
 2420TIP3    H128751   1.555   2.026   4.062 -2.8283  1.2665 -1.0996
 2420TIP3    H228752   1.647   2.102   3.968 -0.3291 -0.1409  0.1157
 2421TIP3   OH228753   4.006   0.152  14.815 -0.3579  0.1109  0.1308
 2421TIP3    H128754   3.970   0.115  14.734  0.1422 -1.3503  0.5538
 2421TIP3    H228755   4.100   0.160  14.798 -0.2894  0.0407  0.4889
 2422TIP3   OH228756   6.305   2.192   6.229 -0.1588 -0.3608 -0.3000
 2422TIP3    H128757   6.399   2.205   6.219  0.0406 -0.0871  1.4886
 2422TIP3    H228758   6.265   2.235   6.154  1.0852  0.5913 -0.4275
 2423TIP3   OH228759   4.573   2.106  14.249  0.0140 -0.7459 -0.3103
 2423TIP3    H128760   4.567   2.101  14.344  0.0332  0.9782 -0.1976
 2423TIP3    H228761   4.505   2.168  14.223 -0.5807 -1.8432 -1.5202
 2424TIP3   OH228762   1.384   4.015  13.105  0.3287  0.0485  0.0800
 2424TIP3    H128763   1.457   3.985  13.158 -0.0595  1.1107  1.2606
 2424TIP3    H228764   1.323   3.941  13.102  0.5953 -0.1939  0.6849
 2425TIP3   OH228765   4.600   6.440  14.230 -0.3243 -0.0181  0.5591
 2425TIP3    H128766   4.640   6.370  14.282 -0.6830  0.0939  0.9911
 2425TIP3    H228767   4.662   6.455  14.159 -0.8980 -1.7815 -0.3861
 2426TIP3   OH228768   1.143   1.186   1.965 -0.2835 -0.4619 -0.2673
 2426TIP3    H128769   1.102   1.250   1.907  1.6258 -0.1465 -1.3640
 2426TIP3    H228770   1.199   1.134   1.907 -1.0387 -2.5273  0.7465
 2427TIP3   OH228771   2.026   0.056   4.032  0.3188 -0.1531  0.2470
 2427TIP3    H128772   2.019   0.150   4.016 -0.5089 -0.4091 -1.0204
 2427TIP3    H228773   2.001   0.046   4.124  0.6876  0.8836  0.4789
 2428TIP3   OH228774   0.595   3.211  12.975 -0.0646  0.0235  0.1624
 2428TIP3    H128775   0.649   3.158  12.916 -0.7132 -0.0271 -0.3920
 2428TIP3    H228776   0.577   3.153  13.049  0.8745  0.1354  0.4927
 2429TIP3   OH228777   1.748   6.370  16.010 -0.0862  0.5659 -0.2987
 2429TIP3    H128778   1.758   6.394  16.102 -0.9253  0.8966 -0.2820
 2429TIP3    H228779   1.684   6.299  16.010  0.0336  0.4578 -0.6102
 2430TIP3   OH228780   2.567   4.149   3.542  0.3336 -0.5167  0.4390
 2430TIP3    H128781   2.597   4.123   3.629  0.2115  0.1756  0.6957
 2430TIP3    H228782   2.648   4.159   3.491  0.6985  2.1029  1.3350
 2431TIP3   OH228783   5.619   6.398   3.004  0.0808 -0.5589  0.6655
 2431TIP3    H128784   5.618   6.424   2.912 -0.1194 -1.4226  0.4179
 2431TIP3    H228785   5.626   6.303   3.002  2.7203 -0.4618  1.5594
 2432TIP3   OH228786   2.100   0.287  16.910  0.3110 -0.3854 -0.0579
 2432TIP3    H128787   2.170   0.330  16.959  0.2687  1.2884 -1.3839
 2432TIP3    H228788   2.123   0.194  16.912  1.1405 -0.1890  1.7262
 2433TIP3   OH228789   3.427   4.429   6.071  0.2449  0.2736 -0.4152
 2433TIP3    H128790   3.476   4.430   5.989  0.4192 -1.6405 -0.3756
 2433TIP3    H228791   3.476   4.489   6.128  0.8671  0.6263 -1.2935
 2434TIP3   OH228792   2.674   6.803  12.134 -0.1349  0.1814  0.2484
 2434TIP3    H128793   2.698   6.841  12.219 -2.3499  0.9242  0.6154
 2434TIP3    H228794   2.611   6.865  12.098 -1.0789 -1.3494 -0.8284
 2435TIP3   OH228795   1.663   3.543   2.774 -0.5071  0.3346  0.2629
 2435TIP3    H128796   1.673   3.636   2.797  1.4896  0.2755 -0.1753
 2435TIP3    H228797   1.702   3.536   2.686  1.9587 -1.3681  1.3894
 2436TIP3   OH228798   1.046   5.916   3.863  0.3445 -0.0667  0.0713
 2436TIP3    H128799   1.069   5.983   3.798  3.0682  0.9922  1.9740
 2436TIP3    H228800   1.128   5.870   3.880 -0.5676 -1.1068  1.8983
 2437TIP3   OH228801   1.043   2.786   2.643 -0.2314 -0.0997 -0.4892
 2437TIP3    H128802   1.112   2.840   2.605  0.1939  1.0248  1.6828
 2437TIP3    H228803   1.090   2.722   2.697 -0.8279  0.0982  0.2940
 2438TIP3   OH228804   3.687   6.545   4.437 -0.7464  0.2222 -0.3463
 2438TIP3    H128805   3.662   6.487   4.509  2.6854 -1.3142 -0.1801
 2438TIP3    H228806   3.663   6.496   4.358 -1.7509  0.5510 -0.2599
 2439TIP3   OH228807   6.434   0.257  12.368 -0.3475 -0.3299 -0.0948
 2439TIP3    H128808   6.344   0.230  12.382 -0.0715 -0.6523  1.1512
 2439TIP3    H228809   6.429   0.327  12.302 -1.7414  1.2526  1.5878
 2440TIP3   OH228810   0.195   4.718   4.610  0.2479  0.8559  0.0380
 2440TIP3    H128811   0.141   4.647   4.574  2.3876 -0.7216 -0.2274
 2440TIP3    H228812   0.171   4.795   4.558 -0.5328 -0.1783 -1.1889
 2441TIP3   OH228813   1.912   6.336   3.856  0.7190 -0.3651 -0.2871
 2441TIP3    H128814   1.966   6.414   3.875  0.3960 -0.3112  0.4530
 2441TIP3    H228815   1.835   6.347   3.911  1.4204 -2.0342  1.1458
 2442TIP3   OH228816   4.470   0.696   1.022 -0.0518  0.4671  0.5433
 2442TIP3    H128817   4.537   0.667   1.084  0.4312  1.2636  0.3989
 2442TIP3    H228818   4.471   0.791   1.027 -0.7936  0.5069  0.1311
 2443TIP3   OH228819   1.383   1.905   6.462  0.2861  0.5096  0.0644
 2443TIP3    H128820   1.364   1.965   6.389  0.6067 -0.2259 -0.6313
 2443TIP3    H228821   1.473   1.925   6.486  0.4473  0.1942 -0.2758
 2444TIP3   OH228822   1.410   5.125  12.835  0.3770 -0.2610  0.2033
 2444TIP3    H128823   1.494   5.090  12.864 -0.1819 -0.8524  1.1402
 2444TIP3    H228824   1.402   5.209  12.880  1.0952  0.4697 -0.9860
 2445TIP3   OH228825   5.262   5.115  15.789 -0.1997  0.6631  0.0726
 2445TIP3    H128826   5.217   5.139  15.708 -0.2433 -0.8700 -0.3882
 2445TIP3    H228827   5.273   5.198  15.836 -0.5607  1.5188 -1.2973
 2446TIP3   OH228828   1.960   3.606  14.616 -0.1054  0.2475 -0.1603
 2446TIP3    H128829   1.907   3.543  14.666  0.1405 -0.5002 -0.8143
 2446TIP3    H228830   1.898   3.646  14.555 -0.1960  0.3997  0.0308
 2447TIP3   OH228831   5.167   5.431  17.185  0.1213  0.3072 -0.2414
 2447TIP3    H128832   5.071   5.425  17.183 -0.0397  2.0571  0.5668
 2447TIP3    H228833   5.194   5.413  17.095 -0.9783  0.1155 -0.5568
 2448TIP3   OH228834   2.354   2.329   1.916 -0.2891 -0.0333 -0.0505
 2448TIP3    H128835   2.275   2.306   1.965 -0.0413  2.6469  1.8459
 2448TIP3    H228836   2.425   2.282   1.960  0.0369  2.8706  2.9480
 2449TIP3   OH228837   0.067   3.418   4.881  0.1466 -0.1036  0.2712
 2449TIP3    H128838   0.151   3.395   4.842 -1.0445 -2.3643 -1.2537
 2449TIP3    H228839   0.082   3.417   4.975  2.1033  0.9402  0.0024
 2450TIP3   OH228840   0.029   3.151  16.517 -0.0293  0.3848  0.1556
 2450TIP3    H128841  -0.009   3.224  16.566 -1.1696  0.4218 -0.7467
 2450TIP3    H228842   0.043   3.083  16.582 -2.2287  0.1517  0.4689
 2451TIP3   OH228843   4.699   0.471   0.825  0.5138 -0.3961  0.0664
 2451TIP3    H128844   4.784   0.507   0.798 -0.0241  0.4728 -0.5043
 2451TIP3    H228845   4.721   0.406   0.892  1.7034 -0.8247 -0.7017
 2452TIP3   OH228846   0.362   0.404   6.510  0.7700  0.2024  0.1491
 2452TIP3    H128847   0.274   0.439   6.524  0.6622  0.0320 -0.0995
 2452TIP3    H228848   0.373   0.342   6.582  0.4382 -0.2460 -0.1796
 2453TIP3   OH228849   3.950   5.077   4.580  0.1908  0.3716  0.5986
 2453TIP3    H128850   3.908   5.033   4.506 -1.6956  1.0777  1.1913
 2453TIP3    H228851   3.933   5.020   4.654 -0.4104  1.0305  0.9818
 2454TIP3   OH228852   2.238   1.125   1.480  0.2947 -0.1235 -0.2664
 2454TIP3    H128853   2.253   1.177   1.559  0.4033 -1.3838  0.5816
 2454TIP3    H228854   2.259   1.035   1.507 -2.4664 -1.0448 -0.8735
 2455TIP3   OH228855   2.587   4.296  15.305  0.4029  0.1477  0.5333
 2455TIP3    H128856   2.639   4.240  15.247  0.4775 -0.3129  1.0331
 2455TIP3    H228857   2.651   4.354  15.346  0.0125  2.7186 -2.2197
 2456TIP3   OH228858   6.219   3.207   1.884 -0.2512 -0.0613 -0.6128
 2456TIP3    H128859   6.296   3.162   1.920 -0.0805  1.0287  0.4579
 2456TIP3    H228860   6.146   3.172   1.934  0.1076  2.3396  1.8819
 2457TIP3   OH228861   1.849   1.039  13.279 -0.0555  0.1888  0.0463
 2457TIP3    H128862   1.755   1.023  13.287 -0.2577  0.9134 -0.7825
 2457TIP3    H228863   1.862   1.126  13.316  0.2901  0.0978  0.1446
 2458TIP3   OH228864   0.855   1.022  17.150 -0.1593  0.5811 -0.4585
 2458TIP3    H128865   0.798   0.946  17.157 -1.4542  1.6145  1.3409
 2458TIP3    H228866   0.798   1.096  17.170  1.7428  1.7017  1.2541
 2459TIP3   OH228867   2.169   0.486  11.493  0.1074  0.2331 -0.3467
 2459TIP3    H128868   2.165   0.569  11.446 -1.7174 -0.2997 -1.2450
 2459TIP3    H228869   2.246   0.442  11.458 -1.2124 -0.1702 -3.0072
 2460TIP3   OH228870   2.458   4.743   2.038 -0.4125  0.6500  0.3047
 2460TIP3    H128871   2.455   4.780   2.126  1.2361  2.2381 -0.2421
 2460TIP3    H228872   2.540   4.693   2.037 -0.8110 -0.0090 -0.1155
 2461TIP3   OH228873   4.162   2.400  14.881  0.0520  0.6405 -0.2047
 2461TIP3    H128874   4.257   2.391  14.884  0.0146 -1.1785 -2.3423
 2461TIP3    H228875   4.129   2.311  14.877 -1.8473  1.2016  1.4282
 2462TIP3   OH228876   3.620   5.563  13.688  0.2823  0.2265  0.0719
 2462TIP3    H128877   3.683   5.549  13.618 -0.4898  0.0957 -0.6139
 2462TIP3    H228878   3.608   5.658  13.691  0.8102  0.2843  0.4806
 2463TIP3   OH228879   5.257   5.286  12.023 -0.3254 -0.3550  0.1935
 2463TIP3    H128880   5.221   5.252  12.106 -2.6678 -0.2672 -0.7017
 2463TIP3    H228881   5.329   5.226  12.002  1.3863  0.5098  2.9987
 2464TIP3   OH228882   6.456   0.699  12.445  0.1942  0.0710 -0.0790
 2464TIP3    H128883   6.523   0.715  12.511 -0.8795 -0.2892  1.1303
 2464TIP3    H228884   6.419   0.786  12.427  0.5390  0.1795 -0.2858
 2465TIP3   OH228885   0.256   3.678  12.770  0.0277 -0.0420 -0.0589
 2465TIP3    H128886   0.228   3.731  12.695  1.1225  0.4153 -0.1600
 2465TIP3    H228887   0.347   3.656  12.751 -0.5826 -2.6423 -0.4051
 2466TIP3   OH228888   1.665   6.464   3.968  0.0797 -0.1810 -0.1267
 2466TIP3    H128889   1.581   6.497   3.999  0.1745  0.2500 -0.3187
 2466TIP3    H228890   1.724   6.540   3.972 -0.1729  0.2069 -2.3710
 2467TIP3   OH228891   5.403   2.016   1.028  0.5700  0.2302  0.4150
 2467TIP3    H128892   5.362   2.009   1.114 -1.1084  0.5073 -0.3223
 2467TIP3    H228893   5.485   2.063   1.044  0.6531 -0.3829  1.9514
 2468TIP3   OH228894   0.098   2.436   4.357  0.2890 -1.1453  0.2267
 2468TIP3    H128895   0.095   2.412   4.450  0.3384 -0.5684  0.3804
 2468TIP3    H228896   0.157   2.371   4.317  1.1565 -0.7391  0.8074
 2469TIP3   OH228897   0.993   1.350   0.381 -0.5207  0.4576  0.6568
 2469TIP3    H128898   0.944   1.396   0.450  0.7533 -0.0636  1.9508
 2469TIP3    H228899   1.084   1.376   0.395 -0.1934  0.0590 -0.6341
 2470TIP3   OH228900   3.012   4.211  13.161  0.1502 -0.3137 -0.4185
 2470TIP3    H128901   3.001   4.117  13.142  0.0887 -0.2929 -0.4880
 2470TIP3    H228902   3.019   4.252  13.075  0.3448 -0.2743 -0.3825
 2471TIP3   OH228903   2.043   2.761  12.120  0.2925  0.3825  0.1013
 2471TIP3    H128904   1.957   2.748  12.159 -0.2471  0.5299 -1.0071
 2471TIP3    H228905   2.026   2.805  12.037  0.9440 -3.6857 -2.4853
 2472TIP3   OH228906   1.529   2.196   2.726 -0.1737  0.1477 -0.1731
 2472TIP3    H128907   1.470   2.269   2.707 -0.7269 -0.0679  0.6337
 2472TIP3    H228908   1.610   2.216   2.679 -0.3999  1.1603 -0.1393
 2473TIP3   OH228909   4.063   0.123  15.476  0.2288  0.3188 -0.1993
 2473TIP3    H128910   4.128   0.132  15.407 -1.3429 -0.5290 -1.8857
 2473TIP3    H228911   4.089   0.044  15.523 -0.9145 -1.5857 -2.5225
 2474TIP3   OH228912   1.558   4.885  15.576 -0.1678  0.0270 -0.3328
 2474TIP3    H128913   1.564   4.925  15.490  0.4944 -0.9513 -0.7518
 2474TIP3    H228914   1.466   4.894  15.601 -0.1428  1.2900 -0.6520
 2475TIP3   OH228915   6.749   5.896   3.903  0.6002 -0.7469  0.1064
 2475TIP3    H128916   6.797   5.824   3.862  1.0708 -1.4019  1.7396
 2475TIP3    H228917   6.760   5.882   3.997 -0.1883  0.8690  0.4749
 2476TIP3   OH228918   0.998   5.770  11.042 -0.3510  0.1705 -0.3162
 2476TIP3    H128919   1.039   5.856  11.033 -2.3986  1.1379 -1.0088
 2476TIP3    H228920   1.065   5.708  11.013  1.2173  1.4895  0.3360
 2477TIP3   OH228921   2.748   2.650   0.661  0.0299  0.3191 -0.3641
 2477TIP3    H128922   2.780   2.619   0.745 -1.1679  0.5268  0.1805
 2477TIP3    H228923   2.661   2.687   0.679  0.2484  1.4787 -1.4633
 2478TIP3   OH228924   3.095   1.314   0.177 -0.0173  0.4210 -0.6388
 2478TIP3    H128925   3.121   1.394   0.132 -4.3186  2.4895  0.0320
 2478TIP3    H228926   3.057   1.259   0.108 -0.4792  0.6465 -0.5702
 2479TIP3   OH228927   0.285   2.941   2.080  0.1964  0.3036 -0.6887
 2479TIP3    H128928   0.226   2.952   2.154  0.1840  0.2342 -0.6877
 2479TIP3    H228929   0.327   2.856   2.094  1.3618  0.9712  0.0528
 2480TIP3   OH228930   6.282   3.674  15.473 -0.1237  0.1319  0.2580
 2480TIP3    H128931   6.325   3.670  15.388 -0.9730 -0.9743 -0.1491
 2480TIP3    H228932   6.340   3.727  15.528 -0.3446  2.3054 -1.4579
 2481TIP3   OH228933   6.745   0.170  14.045  0.5497 -0.4110 -0.0711
 2481TIP3    H128934   6.701   0.107  13.987  0.5268 -0.7350  0.2978
 2481TIP3    H228935   6.736   0.133  14.132  0.5432  0.1044  0.1486
 2482TIP3   OH228936   2.287   1.508   1.328 -0.2520 -0.1970 -0.0181
 2482TIP3    H128937   2.220   1.469   1.273 -1.0033 -1.2831  1.5991
 2482TIP3    H228938   2.242   1.581   1.372 -0.3008 -0.7186  0.8149
 2483TIP3   OH228939   0.458   5.060  14.185 -0.3497 -0.8442  0.0527
 2483TIP3    H128940   0.541   5.044  14.231 -0.0162 -2.8019 -1.1347
 2483TIP3    H228941   0.453   5.155  14.178  0.4407 -0.5407  2.5214
 2484TIP3   OH228942   3.802   5.851  12.675  0.2642  0.0158  0.2357
 2484TIP3    H128943   3.839   5.765  12.656 -0.8694 -0.6516  0.9351
 2484TIP3    H228944   3.815   5.901  12.594 -0.5946 -1.3698 -0.8151
 2485TIP3   OH228945   6.059   4.142  11.499 -0.0967 -0.1433 -0.4044
 2485TIP3    H128946   6.081   4.192  11.421  1.2088 -1.9528 -1.2498
 2485TIP3    H228947   6.138   4.091  11.519 -0.1586  0.6672  2.4584
 2486TIP3   OH228948   5.169   4.843  14.024 -0.0739 -0.0429 -0.4084
 2486TIP3    H128949   5.211   4.867  13.941 -0.7686  0.4415 -0.6281
 2486TIP3    H228950   5.198   4.753  14.040 -0.0977 -0.2156 -1.2875
 2487TIP3   OH228951   1.350   3.407  13.880 -0.0974 -0.1385 -0.2376
 2487TIP3    H128952   1.275   3.466  13.867 -0.5878 -0.5773  0.4941
 2487TIP3    H228953   1.369   3.415  13.974  0.1517 -0.7599 -0.2349
 2488TIP3   OH228954   2.173   0.958  11.319 -0.0641 -0.4671  0.2603
 2488TIP3    H128955   2.213   0.930  11.236  0.1583 -1.4482  0.6885
 2488TIP3    H228956   2.099   1.012  11.292  0.8107  0.3693 -0.5609
 2489TIP3   OH228957   4.756   6.529  12.827  0.0784 -0.0389 -0.0559
 2489TIP3    H128958   4.764   6.574  12.743 -0.2774 -1.3094 -0.8055
 2489TIP3    H228959   4.845   6.505  12.851  0.1118 -0.3353 -0.4654
 2490TIP3   OH228960   5.290   2.744   3.476  0.2991  0.0678  0.5246
 2490TIP3    H128961   5.329   2.803   3.541 -1.8551  1.3474  0.7497
 2490TIP3    H228962   5.245   2.678   3.528  0.8501 -0.5214  0.2732
 2491TIP3   OH228963   0.286   3.871   0.506 -0.3124  0.1006  0.2040
 2491TIP3    H128964   0.200   3.830   0.501 -0.7903  1.0704  0.3408
 2491TIP3    H228965   0.272   3.951   0.556  0.5972  0.4608 -0.0978
 2492TIP3   OH228966   4.059   4.076   1.412 -0.5179  0.2330  0.0928
 2492TIP3    H128967   4.131   4.067   1.348 -0.9680  0.8183 -0.5075
 2492TIP3    H228968   3.992   4.015   1.380  1.1159 -3.3923  2.7863
 2493TIP3   OH228969   4.527   5.145  14.928 -0.0170  0.2286 -0.2850
 2493TIP3    H128970   4.493   5.213  14.869 -0.5543  0.0660 -0.1709
 2493TIP3    H228971   4.612   5.178  14.956  0.2020  0.3456 -1.0830
 2494TIP3   OH228972   3.048   2.965  14.936 -0.2845  0.4372 -0.0796
 2494TIP3    H128973   3.069   2.943  14.845 -1.0140 -0.0798 -0.1370
 2494TIP3    H228974   3.097   2.902  14.988 -1.2593 -0.4462 -0.1941
 2495TIP3   OH228975   5.873   3.238  11.169  0.3462 -0.6054 -0.0275
 2495TIP3    H128976   5.898   3.190  11.247  1.3983 -0.4709 -0.2730
 2495TIP3    H228977   5.810   3.304  11.200  0.8722 -0.4508  0.7214
 2496TIP3   OH228978   1.662   1.139   6.059  0.6618 -0.5288 -0.3160
 2496TIP3    H128979   1.684   1.211   6.118  2.3844 -1.0606 -0.2509
 2496TIP3    H228980   1.677   1.060   6.111 -0.4569 -0.9785 -0.6321
 2497TIP3   OH228981   4.915   5.546   4.235  0.5173 -0.2032  0.5592
 2497TIP3    H128982   4.825   5.514   4.238  0.5128 -0.3777 -0.8398
 2497TIP3    H228983   4.960   5.495   4.302 -0.3764 -0.2614  1.1321
 2498TIP3   OH228984   5.393   3.563  11.960 -0.0683  0.1458 -0.2053
 2498TIP3    H128985   5.357   3.540  11.874  0.8416 -2.5534  0.0619
 2498TIP3    H228986   5.426   3.653  11.948 -0.6346  0.1248 -2.4457
 2499TIP3   OH228987   5.101   0.116  12.908  0.4231  0.1811  0.0356
 2499TIP3    H128988   5.131   0.188  12.854  1.1898  0.4371  0.7740
 2499TIP3    H228989   5.095   0.041  12.848  2.4580  0.1517 -0.1946
 2500TIP3   OH228990   3.152   4.360   1.580  0.0671 -0.1089  0.2459
 2500TIP3    H128991   3.183   4.313   1.503  0.3619 -0.8509  0.8078
 2500TIP3    H228992   3.217   4.342   1.647 -0.4301  0.1505  0.8056
 2501TIP3   OH228993   3.877   1.681   0.243 -0.1942 -0.6235 -0.2249
 2501TIP3    H128994   3.864   1.754   0.182  0.2458 -1.0755 -0.8748
 2501TIP3    H228995   3.967   1.652   0.226 -0.5934 -1.7530 -0.4500
 2502TIP3   OH228996   3.891   5.027  13.472 -0.6331  0.5278 -0.2595
 2502TIP3    H128997   3.913   4.935  13.483 -2.1074 -0.0208 -1.4412
 2502TIP3    H228998   3.960   5.062  13.415 -0.4601 -0.0278 -0.3950
 2503TIP3   OH228999   2.896   6.342  16.088 -0.3434 -0.5204 -0.1819
 2503TIP3    H129000   2.889   6.288  16.009 -1.1658 -0.5941 -0.0698
 2503TIP3    H229001   2.828   6.409  16.077  0.3842  0.2385 -0.1229
 2504TIP3   OH229002   2.581   3.635  13.619  1.4600  0.5307  0.2581
 2504TIP3    H129003   2.493   3.610  13.591  0.6160  1.7245  1.6847
 2504TIP3    H229004   2.594   3.723  13.583  1.6038  0.8155  0.9837
 2505TIP3   OH229005   1.209   3.561   2.835 -0.5354  0.1003 -0.5474
 2505TIP3    H129006   1.296   3.600   2.839  0.8224 -2.8442  1.8115
 2505TIP3    H229007   1.151   3.629   2.870  1.1787  1.2383  0.2072
 2506TIP3   OH229008   2.328   4.114   2.478 -0.6850 -0.3615 -0.7046
 2506TIP3    H129009   2.292   4.087   2.562 -2.7041  0.9739 -1.0692
 2506TIP3    H229010   2.379   4.193   2.499 -0.3557 -0.5905 -0.6205
 2507TIP3   OH229011   2.206   5.400  13.593  0.7791 -0.3039  0.0039
 2507TIP3    H129012   2.151   5.335  13.636  1.2105 -0.6513  0.0329
 2507TIP3    H229013   2.177   5.399  13.501  0.9939 -0.7632 -0.0623
 2508TIP3   OH229014   3.924   2.563   3.440  0.0187 -0.1262 -0.2019
 2508TIP3    H129015   3.897   2.489   3.494 -1.9311  0.5816 -0.0844
 2508TIP3    H229016   3.976   2.618   3.499 -0.4521 -0.3079  0.3969
 2509TIP3   OH229017   0.912   6.170   6.531 -0.1541  0.0494  0.4171
 2509TIP3    H129018   0.932   6.263   6.521 -1.7164  0.2905 -0.9233
 2509TIP3    H229019   0.851   6.167   6.605  2.1724 -0.3218  2.4415
 2510TIP3   OH229020   0.711   3.850   3.752  0.1604  0.2794  0.0923
 2510TIP3    H129021   0.690   3.934   3.793  0.4272  0.0204  0.7756
 2510TIP3    H229022   0.773   3.809   3.812  1.3475  0.3151 -1.0678
 2511TIP3   OH229023   5.207   6.323   6.711 -0.5252 -0.1349  0.0121
 2511TIP3    H129024   5.116   6.294   6.700 -0.7168  0.8547 -1.2079
 2511TIP3    H229025   5.211   6.407   6.667  1.3580 -0.8636 -1.3409
 2512TIP3   OH229026   2.824   5.437  12.788 -0.0632  0.0800  0.3554
 2512TIP3    H129027   2.822   5.342  12.778 -2.2149 -0.2067  2.4730
 2512TIP3    H229028   2.814   5.451  12.882 -0.9353  2.4150 -0.0196
 2513TIP3   OH229029   3.150   5.590   0.007 -0.4404 -0.3783  0.1330
 2513TIP3    H129030   3.145   5.626   0.095 -1.1254 -0.3465  0.0903
 2513TIP3    H229031   3.095   5.647  -0.046 -1.6871 -1.5519  0.1003
 2514TIP3   OH229032   2.527   0.980   2.577 -0.0733 -0.0117 -0.1650
 2514TIP3    H129033   2.442   0.937   2.574 -1.0480  1.8280 -0.5136
 2514TIP3    H229034   2.556   0.983   2.485  0.3106 -0.5187 -0.0633
 2515TIP3   OH229035   6.616   0.889   0.995  0.2283 -0.3075  0.9518
 2515TIP3    H129036   6.618   0.979   0.962  0.8758 -0.2630  1.0809
 2515TIP3    H229037   6.528   0.857   0.975  0.5155 -0.2102 -0.6087
 2516TIP3   OH229038   4.395   0.735   3.303  0.1827  0.0303  0.3535
 2516TIP3    H129039   4.435   0.816   3.336 -0.1732  0.2637  0.2203
 2516TIP3    H229040   4.385   0.751   3.209 -0.3902  0.0499  0.4146
 2517TIP3   OH229041   2.617   1.925  14.208  0.3544  0.1415 -0.4214
 2517TIP3    H129042   2.665   2.007  14.222 -1.9782  1.1921  2.6749
 2517TIP3    H229043   2.672   1.858  14.249  1.7866  0.2772 -2.0382
 2518TIP3   OH229044   5.399   3.332  17.188  0.4661 -0.0495 -0.4375
 2518TIP3    H129045   5.421   3.353  17.279  0.8548  0.9200 -0.7345
 2518TIP3    H229046   5.325   3.273  17.194  0.1434  0.4301  0.5105
 2519TIP3   OH229047   3.708   4.889  16.145  0.1222  0.8151 -0.1967
 2519TIP3    H129048   3.800   4.905  16.165  0.1165 -1.0814  1.7593
 2519TIP3    H229049   3.660   4.930  16.217 -0.3170 -0.9058  0.5412
 2520TIP3   OH229050   1.836   1.159  12.444 -0.1182  0.5796 -0.3173
 2520TIP3    H129051   1.771   1.089  12.443  0.3938  0.0143  1.5383
 2520TIP3    H229052   1.787   1.239  12.424 -0.9429 -0.1178 -1.1491
 2521TIP3   OH229053   4.268   0.742  11.617 -0.0392 -0.3012  0.2025
 2521TIP3    H129054   4.202   0.715  11.553 -0.4530  1.7359 -0.3014
 2521TIP3    H229055   4.220   0.749  11.700 -0.2426  0.2308  0.0420
 2522TIP3   OH229056   5.649   2.302  15.984 -0.2375 -1.3679  0.6606
 2522TIP3    H129057   5.732   2.255  15.982  0.1566 -0.6672  0.3100
 2522TIP3    H229058   5.583   2.233  15.990  0.2442 -2.0655 -1.2481
 2523TIP3   OH229059   6.268   6.319  11.481  0.3458 -0.2705  0.5543
 2523TIP3    H129060   6.195   6.373  11.513  1.1937 -0.5099  3.0936
 2523TIP3    H229061   6.234   6.278  11.401 -1.3968  1.5763  0.2624
 2524TIP3   OH229062   2.617   1.386   3.305 -0.2833 -0.0060 -0.6477
 2524TIP3    H129063   2.638   1.334   3.382 -0.2390  3.0390  1.5613
 2524TIP3    H229064   2.701   1.398   3.260  0.1443  0.1486  0.1708
 2525TIP3   OH229065   2.686   3.673   4.322  0.6803  0.2859 -0.2180
 2525TIP3    H129066   2.711   3.665   4.414 -0.8045  0.6418  0.2445
 2525TIP3    H229067   2.591   3.688   4.324  0.9095  2.4031 -1.6856
 2526TIP3   OH229068   4.159   3.241  15.815  0.1957 -0.8793 -0.5657
 2526TIP3    H129069   4.231   3.184  15.789 -0.2602 -1.7390  0.0165
 2526TIP3    H229070   4.156   3.234  15.911  1.9376  2.3332 -0.1099
 2527TIP3   OH229071   5.715   0.596  12.350  0.4051 -0.1514 -0.0663
 2527TIP3    H129072   5.665   0.660  12.400  0.1302  0.1205 -0.6767
 2527TIP3    H229073   5.764   0.647  12.286 -1.5005 -0.6387 -2.0423
 2528TIP3   OH229074   2.248   1.168  11.550  0.4391  0.2027 -0.1769
 2528TIP3    H129075   2.254   1.115  11.629 -1.5338  1.8701  1.1949
 2528TIP3    H229076   2.237   1.105  11.479  1.5858 -1.3085  0.9252
 2529TIP3   OH229077   1.959   6.099  11.539  0.4452  0.0933  0.3496
 2529TIP3    H129078   1.911   6.152  11.603  2.7399  1.5505  1.0055
 2529TIP3    H229079   1.997   6.163  11.479  0.1735 -1.1146 -1.1788
 2530TIP3   OH229080   6.179   4.887   3.995  0.2404  0.2216  0.3092
 2530TIP3    H129081   6.184   4.810   3.938  0.7210  0.2149  0.3598
 2530TIP3    H229082   6.270   4.905   4.019  0.0698  0.4137  0.8211
 2531TIP3   OH229083   4.654   4.870  14.706 -0.3001 -0.1279  0.2226
 2531TIP3    H129084   4.710   4.793  14.712 -0.5167 -0.3567 -0.5983
 2531TIP3    H229085   4.712   4.944  14.723  0.3061 -0.3466 -0.8154
 2532TIP3   OH229086   2.203   2.592   0.475 -0.2802  0.2519  0.4802
 2532TIP3    H129087   2.145   2.531   0.521  0.3619 -0.3599  0.4933
 2532TIP3    H229088   2.186   2.576   0.382  0.9456 -1.0073  0.4545
 2533TIP3   OH229089   2.023   0.426  12.554  0.1135  0.2056  0.2782
 2533TIP3    H129090   2.019   0.500  12.493  1.5893  0.2291  0.1651
 2533TIP3    H229091   2.011   0.465  12.641 -1.4616  0.2425  0.0746
 2534TIP3   OH229092   0.468   1.349   4.298  0.2653  0.3670  0.1331
 2534TIP3    H129093   0.452   1.426   4.351  1.1223  0.6982 -0.0649
 2534TIP3    H229094   0.524   1.380   4.227  0.7144 -0.4536  0.1120
 2535TIP3   OH229095   5.375   2.512  10.461  0.0560  0.1834  0.7156
 2535TIP3    H129096   5.410   2.594  10.497  1.2189  0.3281 -0.6764
 2535TIP3    H229097   5.320   2.540  10.387  1.4871 -0.3209 -0.5797
 2536TIP3   OH229098   2.184   1.947   4.011 -0.2002  0.1538 -0.6681
 2536TIP3    H129099   2.154   2.038   4.013  0.5207  0.5115 -3.0621
 2536TIP3    H229100   2.158   1.916   3.924 -2.1742 -2.6001  0.7465
 2537TIP3   OH229101   4.890   2.254  11.135  0.2388  0.4312 -0.0929
 2537TIP3    H129102   4.823   2.267  11.202 -0.4572  0.9147 -0.8529
 2537TIP3    H229103   4.949   2.188  11.172 -2.4094 -2.5013 -0.6444
 2538TIP3   OH229104   3.941   1.680  14.515 -0.4225 -0.4275  0.4099
 2538TIP3    H129105   3.896   1.613  14.565 -1.9357  0.2690  0.0301
 2538TIP3    H229106   4.025   1.640  14.491 -0.5870 -1.5461  1.6086
 2539TIP3   OH229107   2.250   0.021   2.526 -0.1305 -0.3938 -0.5573
 2539TIP3    H129108   2.327  -0.026   2.559 -1.0910 -0.9882  0.9737
 2539TIP3    H229109   2.204  -0.044   2.472 -0.2979 -0.5117 -0.2770
 2540TIP3   OH229110   6.047   4.488  13.403  0.3686 -0.1958  0.1411
 2540TIP3    H129111   6.011   4.547  13.336  0.6468 -1.3977 -1.1028
 2540TIP3    H229112   5.985   4.495  13.476 -0.4035  0.5177 -0.5571
 2541TIP3   OH229113   5.075   5.218   5.132 -0.2708  0.4210 -0.1300
 2541TIP3    H129114   4.980   5.215   5.124 -0.2074  1.4036 -1.4938
 2541TIP3    H229115   5.094   5.308   5.160  0.2437  0.1119  0.5505
 2542TIP3   OH229116   6.584   2.819  12.627 -1.0201 -0.2326  0.1263
 2542TIP3    H129117   6.617   2.867  12.551  1.6641 -1.9099  0.1057
 2542TIP3    H229118   6.607   2.873  12.702 -0.3283 -0.3043 -0.0342
 2543TIP3   OH229119   6.313   4.904  10.991  0.7053 -0.4845 -0.1738
 2543TIP3    H129120   6.237   4.913  11.048  1.2881 -0.5563  0.6300
 2543TIP3    H229121   6.318   4.987  10.944  1.5295  0.4974  1.5423
 2544TIP3   OH229122   3.241   5.506  14.177 -0.2861  0.3290 -0.1629
 2544TIP3    H129123   3.194   5.453  14.113  0.7148 -0.2870 -0.3984
 2544TIP3    H229124   3.265   5.445  14.247 -0.9572  0.9020  0.5986
 2545TIP3   OH229125   3.187   1.034   0.244 -0.4263  0.3299  0.3603
 2545TIP3    H129126   3.164   0.988   0.164 -1.5667  0.0782  0.8047
 2545TIP3    H229127   3.171   1.126   0.224 -0.4522  0.2931  0.2089
 2546TIP3   OH229128   5.514   5.536   2.056 -0.3796 -0.0857  0.1246
 2546TIP3    H129129   5.494   5.618   2.101  1.0749  1.7538 -2.2976
 2546TIP3    H229130   5.574   5.562   1.985 -1.4412 -2.9265 -1.9983
 2547TIP3   OH229131   3.049   1.487   4.494  0.2087  0.6201  0.2301
 2547TIP3    H129132   3.142   1.510   4.496  0.6928 -0.9457 -1.4712
 2547TIP3    H229133   3.024   1.495   4.401 -1.0699  0.0260  0.4969
 2548TIP3   OH229134   0.649   4.217   1.007 -0.2460 -0.2356  0.1496
 2548TIP3    H129135   0.568   4.172   0.981 -0.0031 -0.0940 -0.8982
 2548TIP3    H229136   0.651   4.296   0.954  0.8150 -0.4730 -0.1779
 2549TIP3   OH229137   5.080   0.174   4.961 -0.4848  0.0904  0.8956
 2549TIP3    H129138   5.171   0.189   4.987 -0.4559  1.2681  0.1987
 2549TIP3    H229139   5.079   0.193   4.867 -1.4934  0.3189  0.9452
 2550TIP3   OH229140   6.174   3.883  16.487 -0.1285  0.3239  0.3711
 2550TIP3    H129141   6.217   3.846  16.564 -1.7529  1.9434  2.1602
 2550TIP3    H229142   6.106   3.819  16.464 -0.4591  0.4191  1.0743
 2551TIP3   OH229143   4.532   1.879  10.747  0.2257 -1.1478  0.1852
 2551TIP3    H129144   4.442   1.849  10.737  0.2595 -0.6454 -2.2740
 2551TIP3    H229145   4.546   1.881  10.842 -1.9079 -2.4510  0.6042
 2552TIP3   OH229146   2.174   3.177  12.995  0.1045  0.9831 -0.1790
 2552TIP3    H129147   2.088   3.136  12.987  0.3520  0.7528 -2.3180
 2552TIP3    H229148   2.168   3.231  13.074 -2.0224  1.0531 -0.3317
 2553TIP3   OH229149   0.519   5.889  11.056 -0.4499 -0.0096 -0.2613
 2553TIP3    H129150   0.462   5.853  10.989 -1.1334  1.2863 -0.4109
 2553TIP3    H229151   0.479   5.973  11.079  1.0749  0.6612  0.0553
 2554TIP3   OH229152   3.462   0.122   0.326 -0.2679 -0.5387 -0.6488
 2554TIP3    H129153   3.521   0.086   0.261  0.0158  0.4080 -0.9212
 2554TIP3    H229154   3.501   0.097   0.410  1.3446  1.3102 -0.7904
 2555TIP3   OH229155   2.417   0.367   0.640 -0.1150 -0.2848 -0.2434
 2555TIP3    H129156   2.340   0.402   0.684  0.9360 -0.6717  2.0382
 2555TIP3    H229157   2.488   0.376   0.704  1.0877 -2.7351 -1.1079
 2556TIP3   OH229158   1.585   1.256  15.009 -0.3502  0.1591  0.2358
 2556TIP3    H129159   1.610   1.301  14.928 -0.2890  0.7020  0.5505
 2556TIP3    H229160   1.646   1.183  15.016  1.2885  1.5347  1.0574
 2557TIP3   OH229161   5.170   1.294  12.272 -0.4142  0.4674  0.0612
 2557TIP3    H129162   5.217   1.368  12.233 -0.4319  1.0418  1.0886
 2557TIP3    H229163   5.078   1.315  12.257 -0.4086  0.4419 -0.0120
 2558TIP3   OH229164   4.426   2.068  12.981 -0.4248 -0.3873 -0.1992
 2558TIP3    H129165   4.415   2.111  13.066 -0.0310  1.2374 -0.9346
 2558TIP3    H229166   4.470   1.986  13.001 -2.5961 -1.2465  1.4344
 2559TIP3   OH229167   2.783   1.999  10.609  0.7982  0.6751  0.2356
 2559TIP3    H129168   2.782   2.094  10.595  1.6595  0.5697 -0.7065
 2559TIP3    H229169   2.692   1.972  10.597  0.8658  1.1300 -1.6053
 2560TIP3   OH229170   4.685   0.772   0.284  0.3420  0.1285 -0.0317
 2560TIP3    H129171   4.763   0.732   0.246  1.7986  1.1072  1.7151
 2560TIP3    H229172   4.692   0.754   0.378 -1.1307  0.9057  0.2614
 2561TIP3   OH229173   0.612   5.042  17.061  0.0496  0.2176  0.2823
 2561TIP3    H129174   0.661   5.074  16.985  0.1158  1.9839  1.0251
 2561TIP3    H229175   0.532   5.095  17.062 -1.4304 -1.8631 -0.2751
 2562TIP3   OH229176   1.540   0.758   0.059  0.2666  0.0581  0.3509
 2562TIP3    H129177   1.541   0.672   0.019  0.2892 -0.2411  0.9809
 2562TIP3    H229178   1.500   0.815  -0.007 -0.6156 -0.6096  0.2930
 2563TIP3   OH229179   2.809   2.406  11.860 -0.7342  0.0187  0.4132
 2563TIP3    H129180   2.900   2.426  11.880 -0.7882 -0.1198  0.8060
 2563TIP3    H229181   2.813   2.334  11.797 -0.5889 -1.1940  1.7764
 2564TIP3   OH229182   3.396   3.577   1.091  0.1100  0.7709  0.0916
 2564TIP3    H129183   3.482   3.539   1.070 -0.3593  0.8582 -2.3438
 2564TIP3    H229184   3.346   3.504   1.127  0.8734  0.4660  0.5698
 2565TIP3   OH229185   0.346   3.804   3.938 -0.4930 -0.5182 -0.7101
 2565TIP3    H129186   0.367   3.869   4.005  1.1822  0.3357 -1.9916
 2565TIP3    H229187   0.343   3.853   3.857 -1.8256 -1.6482 -1.3843
 2566TIP3   OH229188   2.066   0.000  13.400  0.8280 -0.1926 -0.0779
 2566TIP3    H129189   2.047   0.084  13.358 -0.8450  0.1676  1.2814
 2566TIP3    H229190   2.045  -0.066  13.334 -0.9614  0.3739 -0.1035
 2567TIP3   OH229191   2.998   3.404   0.785 -0.2212 -0.8365  0.9819
 2567TIP3    H129192   2.912   3.409   0.743 -0.0516 -0.3133  0.6810
 2567TIP3    H229193   2.994   3.471   0.853  0.7868  0.9684 -0.6358
 2568TIP3   OH229194   1.730   0.987   5.581  0.3123  0.1714  0.0926
 2568TIP3    H129195   1.768   0.923   5.642  2.3220  0.9310 -0.2975
 2568TIP3    H229196   1.672   1.040   5.635  0.8155 -0.1897  1.0134
 2569TIP3   OH229197   0.425   3.936  12.936  0.4576  0.3795 -1.0736
 2569TIP3    H129198   0.500   3.951  12.994 -0.8310 -0.0389  0.7930
 2569TIP3    H229199   0.367   4.011  12.951  0.8045  1.1417 -3.1287
 2570TIP3   OH229200   5.658   2.233  10.995  0.5990  0.5006 -0.4156
 2570TIP3    H129201   5.688   2.241  10.904 -2.0066 -0.6394 -1.5034
 2570TIP3    H229202   5.608   2.151  10.996 -1.5323  1.7140  1.3846
 2571TIP3   OH229203   3.555   1.151   5.322  0.0937 -0.2514  0.0657
 2571TIP3    H129204   3.625   1.102   5.279  0.6916  1.3255 -0.8714
 2571TIP3    H229205   3.576   1.243   5.304 -1.1904  0.3465  1.3910
 2572TIP3   OH229206   1.650   6.455   0.160 -0.5731  0.2903 -0.0880
 2572TIP3    H129207   1.580   6.495   0.108 -0.9574 -0.4094 -0.1193
 2572TIP3    H229208   1.647   6.362   0.137  1.7327  0.5350 -1.6747
 2573TIP3   OH229209   5.614   6.023   0.454 -0.4191 -0.2435  0.4460
 2573TIP3    H129210   5.692   5.989   0.409 -0.9177 -1.7421  0.6711
 2573TIP3    H229211   5.648   6.057   0.537  0.6526  3.3434 -1.2698
 2574TIP3   OH229212   0.595   5.062  14.886 -0.2855 -0.3347 -0.0508
 2574TIP3    H129213   0.599   4.993  14.820 -1.3727 -0.5244  0.0655
 2574TIP3    H229214   0.516   5.111  14.864 -0.3886 -0.0992  0.8269
 2575TIP3   OH229215   5.259   3.109   0.110 -0.0880  0.4062 -0.2338
 2575TIP3    H129216   5.333   3.137   0.164 -0.2658 -1.4087  1.0569
 2575TIP3    H229217   5.183   3.118   0.168 -1.1038  3.0214 -1.7898
 2576TIP3   OH229218   4.681   3.254   3.060 -0.5972 -0.1018  0.2043
 2576TIP3    H129219   4.642   3.322   3.006 -1.4321  1.0791  2.1746
 2576TIP3    H229220   4.775   3.260   3.043 -0.7443  0.9342 -0.3100
 2577TIP3   OH229221   4.606   4.724  14.460  0.0550 -0.8341 -0.1342
 2577TIP3    H129222   4.550   4.758  14.390  0.2400 -2.5035 -1.1312
 2577TIP3    H229223   4.604   4.793  14.527 -0.3742  0.6858 -1.6197
 2578TIP3   OH229224   3.428   2.785  11.825 -0.3178  0.0519 -0.0984
 2578TIP3    H129225   3.362   2.831  11.876  0.4297 -0.5972  1.5343
 2578TIP3    H229226   3.507   2.839  11.832 -0.2201 -0.0108 -0.6368
 2579TIP3   OH229227   0.446   2.208   2.364  0.4643  0.4441  0.4591
 2579TIP3    H129228   0.473   2.157   2.288 -0.3005  0.6742  0.0184
 2579TIP3    H229229   0.474   2.157   2.439 -0.3638 -0.6887  0.0241
 2580TIP3   OH229230   4.697   0.762  17.167 -0.4815  0.3409  0.8458
 2580TIP3    H129231   4.621   0.801  17.124  1.7941  3.1615 -1.0147
 2580TIP3    H229232   4.731   0.832  17.225  2.0193  0.1683 -0.2578
 2581TIP3   OH229233   0.974   6.831   5.402 -0.2065  0.3520  0.2740
 2581TIP3    H129234   0.882   6.839   5.428 -0.2487  0.7454  0.0114
 2581TIP3    H229235   0.982   6.886   5.324 -0.1219 -0.9412 -0.6672
 2582TIP3   OH229236   4.185   3.299  12.085 -0.1256  0.1980  0.2224
 2582TIP3    H129237   4.279   3.280  12.085  0.1394  1.2981  1.7479
 2582TIP3    H229238   4.176   3.375  12.143 -2.1169 -0.7404  1.2584
 2583TIP3   OH229239   2.175   1.233  13.451 -0.2820 -0.3261 -0.1052
 2583TIP3    H129240   2.260   1.189  13.443  0.1819  0.7492 -1.7265
 2583TIP3    H229241   2.157   1.235  13.545  3.1816  2.4723  0.7077
 2584TIP3   OH229242   1.570   1.708   4.068  0.2615  0.4272 -0.2154
 2584TIP3    H129243   1.570   1.625   4.021  1.5225 -1.8648  3.4393
 2584TIP3    H229244   1.660   1.741   4.059  0.3772  0.2206  0.1494
 2585TIP3   OH229245   0.568   0.028   5.792  0.2049  0.0333  0.1907
 2585TIP3    H129246   0.558   0.015   5.886 -0.2989  0.9469  0.2764
 2585TIP3    H229247   0.484   0.066   5.764  0.1982 -0.6032 -0.6981
 2586TIP3   OH229248   4.688   5.291   5.400  0.3750 -0.4539  0.2618
 2586TIP3    H129249   4.695   5.373   5.448  2.8000 -0.7860  0.6283
 2586TIP3    H229250   4.609   5.249   5.434 -0.4787  1.3666  0.6034
 2587TIP3   OH229251   4.078   2.339  13.392  0.1994  0.0512 -0.0240
 2587TIP3    H129252   4.057   2.431  13.407  0.6831  0.0843  0.4819
 2587TIP3    H229253   4.163   2.326  13.435  0.0131 -0.6974  0.1363
 2588TIP3   OH229254   6.540   0.232  13.551  0.3060 -0.5274 -0.2910
 2588TIP3    H129255   6.562   0.278  13.633 -2.0579 -1.0091  0.6941
 2588TIP3    H229256   6.620   0.184  13.529  1.1267 -0.1083  1.5312
 2589TIP3   OH229257   4.132   4.033  10.999 -0.0245 -0.1037  0.0208
 2589TIP3    H129258   4.118   4.038  10.905 -0.3153 -1.3737 -0.0176
 2589TIP3    H229259   4.117   3.941  11.021  1.5104 -0.1326  1.0732
 2590TIP3   OH229260   5.455   3.174   3.769 -0.3446 -0.1702  0.2123
 2590TIP3    H129261   5.453   3.232   3.845  0.6538  0.7933 -0.4571
 2590TIP3    H229262   5.547   3.152   3.759 -0.6850 -1.7553  0.3315
 2591TIP3   OH229263   1.148   2.002   2.152 -0.2576 -0.1639  0.5044
 2591TIP3    H129264   1.236   1.979   2.121 -0.2435 -1.4380  1.4399
 2591TIP3    H229265   1.164   2.067   2.221 -0.0118 -0.7219  0.9809
 2592TIP3   OH229266   6.401   1.823  13.487  0.2504  0.0088  0.0175
 2592TIP3    H129267   6.463   1.895  13.481 -0.7903  0.9882  0.7741
 2592TIP3    H229268   6.334   1.843  13.422  0.0441 -0.3666  0.1094
 2593TIP3   OH229269   0.389   0.755  16.723 -0.4447 -0.1602 -0.4633
 2593TIP3    H129270   0.436   0.672  16.722  1.0750  0.5972  1.2324
 2593TIP3    H229271   0.332   0.749  16.801 -0.1447  0.4675 -0.1927
 2594TIP3   OH229272   6.510   6.423  17.041 -0.1275  0.1209  0.0850
 2594TIP3    H129273   6.444   6.492  17.047 -0.9166 -0.6146  0.1631
 2594TIP3    H229274   6.523   6.394  17.131 -0.4658 -0.4341 -0.0435
 2595TIP3   OH229275   5.609   0.532  15.278 -0.5561  0.2924 -0.1468
 2595TIP3    H129276   5.691   0.483  15.277 -1.3030 -1.0411 -2.7186
 2595TIP3    H229277   5.618   0.596  15.208 -0.5206  2.4160  1.6733
 2596TIP3   OH229278   1.212   5.198  16.700  0.1023  0.1148 -0.1502
 2596TIP3    H129279   1.145   5.252  16.743  0.6946  0.5484  0.2492
 2596TIP3    H229280   1.223   5.238  16.614 -0.5644 -0.3139 -0.4419
 2597TIP3   OH229281   2.369   0.411   6.437  0.0510  0.2262  0.1636
 2597TIP3    H129282   2.431   0.349   6.399  1.0427  0.5597  1.1760
 2597TIP3    H229283   2.381   0.402   6.532 -2.6696 -0.9113  0.5082
 2598TIP3   OH229284   2.863   2.332   4.770  0.6568 -0.5254  0.2583
 2598TIP3    H129285   2.828   2.256   4.816  0.4891 -1.4430 -1.3464
 2598TIP3    H229286   2.934   2.363   4.827 -1.4485  0.2726  2.6475
 2599TIP3   OH229287   2.676   3.064  13.887 -0.2464  0.3386  0.1388
 2599TIP3    H129288   2.676   3.141  13.830 -0.2452 -1.2204 -2.0916
 2599TIP3    H229289   2.631   3.093  13.967 -0.7381  2.4797 -0.8589
 2600TIP3   OH229290   1.900   1.554   4.895 -0.2666  0.1906 -0.0884
 2600TIP3    H129291   1.958   1.609   4.842  0.2695 -0.7191 -0.4841
 2600TIP3    H229292   1.958   1.509   4.956 -0.9420  1.6318  1.6969
 2601TIP3   OH229293   1.647   1.866  10.689 -0.1768 -0.2297  0.4710
 2601TIP3    H129294   1.719   1.901  10.636 -0.0996 -0.9794  0.0695
 2601TIP3    H229295   1.665   1.898  10.777 -0.6301  1.5435 -0.0242
 2602TIP3   OH229296   1.829   3.064  16.649 -0.2680  0.4837  0.1727
 2602TIP3    H129297   1.837   3.110  16.566 -2.1396 -1.4184 -1.1705
 2602TIP3    H229298   1.780   3.123  16.706 -0.3757  1.1527 -0.6081
 2603TIP3   OH229299   4.271   5.028   0.072 -0.0209 -0.3176  0.1940
 2603TIP3    H129300   4.245   5.118   0.051 -0.3577 -0.7191 -1.2809
 2603TIP3    H229301   4.365   5.026   0.054  0.2123 -0.0001  1.2868
 2604TIP3   OH229302   1.687   3.324  11.007 -0.1491  0.6350 -0.1694
 2604TIP3    H129303   1.637   3.388  11.058 -0.2583  0.4231 -0.0142
 2604TIP3    H229304   1.623   3.258  10.981  0.4210 -0.7522  1.7898
 2605TIP3   OH229305   5.518   4.829   2.727  0.5255  0.0014 -0.3181
 2605TIP3    H129306   5.444   4.882   2.699  1.2419  0.3775 -1.5656
 2605TIP3    H229307   5.594   4.887   2.720  0.9645 -0.3858  0.8923
 2606TIP3   OH229308   3.763   4.234  12.274  0.2358 -0.6951 -0.5605
 2606TIP3    H129309   3.850   4.219  12.237  0.0691 -1.6447 -0.5718
 2606TIP3    H229310   3.709   4.164  12.239  0.1301 -1.8027  1.6815
 2607TIP3   OH229311   1.500   2.652  16.725  0.0608 -0.0230 -0.6394
 2607TIP3    H129312   1.504   2.557  16.715 -1.6362 -0.2462  0.4468
 2607TIP3    H229313   1.592   2.679  16.727  0.6573 -1.9096  1.2941
 2608TIP3   OH229314   1.976   4.871  12.089 -0.3250  0.2607  0.3167
 2608TIP3    H129315   1.969   4.962  12.057 -1.1671 -0.1645 -0.7863
 2608TIP3    H229316   1.895   4.858  12.139 -0.1331  0.1654  0.5981
 2609TIP3   OH229317   0.134   5.614   3.965  0.0827 -0.3501  0.0393
 2609TIP3    H129318   0.207   5.666   3.932  0.1145 -1.4610 -1.7819
 2609TIP3    H229319   0.128   5.638   4.057  0.1170  2.8041 -0.6619
 2610TIP3   OH229320   4.607   5.595  16.696 -0.6804 -0.4075  0.9588
 2610TIP3    H129321   4.589   5.511  16.739 -1.2792 -1.1046 -0.5739
 2610TIP3    H229322   4.576   5.661  16.759 -0.0265 -1.3038  2.2734
 2611TIP3   OH229323   4.407   6.118   3.243 -0.2086 -0.3535  0.3158
 2611TIP3    H129324   4.471   6.047   3.240 -0.0568 -0.1877 -0.9708
 2611TIP3    H229325   4.356   6.107   3.162 -0.5232  0.6815  0.3658
 2612TIP3   OH229326   5.770   6.138   4.892 -0.6790 -0.1240 -0.6018
 2612TIP3    H129327   5.715   6.186   4.954 -0.0903 -0.8573  0.5218
 2612TIP3    H229328   5.852   6.188   4.889 -0.7406 -0.0341 -0.8843
 2613TIP3   OH229329   0.699   6.377   1.913  0.0523 -0.2330 -0.3822
 2613TIP3    H129330   0.617   6.383   1.864  0.2413 -0.1338 -0.6898
 2613TIP3    H229331   0.677   6.326   1.991 -0.0935 -0.9791 -0.9032
 2614TIP3   OH229332   4.602   3.997   2.256  0.3246 -0.8503 -0.1150
 2614TIP3    H129333   4.685   3.963   2.223  1.6569  3.3035 -1.7560
 2614TIP3    H229334   4.618   4.013   2.349  0.1387 -3.0669  0.3433
 2615TIP3   OH229335   1.361   6.028   2.683 -0.1000 -0.0218 -0.1760
 2615TIP3    H129336   1.331   6.107   2.638 -1.3659 -1.0416 -1.1960
 2615TIP3    H229337   1.343   6.045   2.776 -0.9507  0.6423 -0.4569
 2616TIP3   OH229338   2.999   5.348  11.453  0.2065 -0.4031  0.4260
 2616TIP3    H129339   3.035   5.342  11.364  1.3301 -1.0221  0.9041
 2616TIP3    H229340   2.993   5.442  11.470 -1.7865 -0.2089 -0.9714
 2617TIP3   OH229341   3.215   3.857  16.151  0.0216  0.1902  0.4268
 2617TIP3    H129342   3.226   3.777  16.204  2.4749  1.2916  1.7440
 2617TIP3    H229343   3.156   3.911  16.203 -1.1659 -0.4927 -0.1809
 2618TIP3   OH229344   4.579   3.946  14.336 -0.1449  0.3626  0.0187
 2618TIP3    H129345   4.629   4.025  14.357 -0.7516  0.7035  0.2021
 2618TIP3    H229346   4.487   3.972  14.344 -0.3560 -0.3438  0.0154
 2619TIP3   OH229347   5.674   3.104  10.818 -0.3968 -0.5945  0.3991
 2619TIP3    H129348   5.691   3.020  10.861  1.6956 -0.8113 -0.7208
 2619TIP3    H229349   5.628   3.081  10.738  1.6062 -0.9097 -0.7239
 2620TIP3   OH229350   2.495   5.215   2.300 -0.4074  0.5010  0.3089
 2620TIP3    H129351   2.564   5.163   2.341 -1.1251  1.1618  2.4908
 2620TIP3    H229352   2.415   5.187   2.344 -1.3761  0.6521 -1.2867
 2621TIP3   OH229353   3.200   0.910   3.234  0.1557  0.3058  0.3121
 2621TIP3    H129354   3.208   0.888   3.141 -0.4124  0.5604  0.2012
 2621TIP3    H229355   3.264   0.854   3.277 -0.8044 -1.0993 -0.0296
 2622TIP3   OH229356   3.961   1.482  15.873  0.3986 -0.0689  0.1571
 2622TIP3    H129357   4.032   1.536  15.908  0.4380  0.1541 -0.2636
 2622TIP3    H229358   3.979   1.394  15.907 -0.2400  0.3788  1.6971
 2623TIP3   OH229359   2.639   3.216   0.882 -0.0005 -0.5635 -0.6589
 2623TIP3    H129360   2.698   3.286   0.855  1.2724 -1.6978 -0.9128
 2623TIP3    H229361   2.593   3.192   0.802 -2.4593  1.7272 -0.0853
 2624TIP3   OH229362   1.827   4.736   5.803 -0.0384 -0.7547 -0.2988
 2624TIP3    H129363   1.774   4.764   5.729 -0.7913 -0.5280  0.3150
 2624TIP3    H229364   1.916   4.734   5.769 -0.0070  1.7410 -0.5869
 2625TIP3   OH229365   5.840   1.078  13.378  0.5529 -0.1436 -0.2165
 2625TIP3    H129366   5.806   1.142  13.315 -1.8040 -1.4622 -0.4235
 2625TIP3    H229367   5.865   1.130  13.454 -0.0748  1.1426 -0.8533
 2626TIP3   OH229368   4.290   4.943   6.133 -0.1549  0.2193 -0.0247
 2626TIP3    H129369   4.339   4.950   6.051 -2.0577 -1.8590 -1.4345
 2626TIP3    H229370   4.257   5.032   6.148 -1.0118  0.3669 -2.3495
 2627TIP3   OH229371   3.707   6.511   3.275 -0.4267 -0.7922 -0.1094
 2627TIP3    H129372   3.630   6.552   3.313 -0.0131  0.5773 -0.7012
 2627TIP3    H229373   3.697   6.524   3.180  0.7604 -0.1606 -0.1660
 2628TIP3   OH229374   0.743   4.088   1.395 -0.1232  0.1547  0.3157
 2628TIP3    H129375   0.817   4.030   1.411 -0.9866 -1.0203  0.1953
 2628TIP3    H229376   0.747   4.107   1.301  0.1979  0.3375  0.3672
 2629TIP3   OH229377   3.933   2.495   0.593  0.7221 -0.1962 -0.2636
 2629TIP3    H129378   3.864   2.461   0.535  0.1612  0.3692  0.0550
 2629TIP3    H229379   4.012   2.496   0.538 -0.0340  1.4127 -1.4075
 2630TIP3   OH229380   3.121   5.625  16.582 -0.1939 -0.0544 -0.1484
 2630TIP3    H129381   3.055   5.642  16.514 -0.6716  0.7382  0.4970
 2630TIP3    H229382   3.105   5.692  16.648  0.6869 -0.4158  0.4481
 2631TIP3   OH229383   1.781   5.384  12.774 -0.2302  0.2101 -0.0481
 2631TIP3    H129384   1.875   5.380  12.760 -0.3318  2.1380 -1.7848
 2631TIP3    H229385   1.749   5.297  12.750  1.0127 -0.2298 -0.1666
 2632TIP3   OH229386   5.086   3.362  12.133  0.5383 -0.2336 -0.3747
 2632TIP3    H129387   5.167   3.403  12.160  0.5109 -0.7080  0.4639
 2632TIP3    H229388   5.106   3.322  12.048  0.6296  1.2659 -1.0859
 2633TIP3   OH229389   0.271   1.171  11.058 -0.0496  0.0230 -0.3122
 2633TIP3    H129390   0.265   1.181  10.963 -0.9238 -1.7216 -0.4769
 2633TIP3    H229391   0.187   1.202  11.091  0.0503  0.1357 -0.1666
 2634TIP3   OH229392   0.979   0.109   3.839  0.0461  0.3767 -0.2631
 2634TIP3    H129393   1.022   0.171   3.780  0.3274 -0.0802 -0.5439
 2634TIP3    H229394   0.985   0.024   3.795 -0.9825  0.2632 -0.2164
 2635TIP3   OH229395   3.967   5.312   1.873  0.0818  0.0574 -0.0648
 2635TIP3    H129396   3.960   5.235   1.929  0.4836  0.4505  0.5434
 2635TIP3    H229397   3.882   5.355   1.881  0.6782  1.0371  1.6604
 2636TIP3   OH229398   4.795   3.146   6.290 -0.0346  0.8201 -0.2395
 2636TIP3    H129399   4.769   3.133   6.199  0.0930  1.3824 -0.3573
 2636TIP3    H229400   4.813   3.057   6.322 -0.1099  0.6153 -0.7494
 2637TIP3   OH229401   3.157   3.232   2.461  0.1248 -0.0800  0.1418
 2637TIP3    H129402   3.180   3.253   2.551  0.1219  1.5051 -0.1961
 2637TIP3    H229403   3.122   3.313   2.425 -3.0210 -1.5287 -0.3527
 2638TIP3   OH229404   2.146   1.792   0.277 -0.1135 -0.3183 -0.2568
 2638TIP3    H129405   2.187   1.753   0.200 -0.3568  0.7784 -0.9750
 2638TIP3    H229406   2.132   1.719   0.337 -0.0157 -1.2136 -1.2898
 2639TIP3   OH229407   0.845   5.775   3.192 -0.0020 -0.2480 -0.5856
 2639TIP3    H129408   0.883   5.755   3.106  1.1760 -0.1264 -0.1108
 2639TIP3    H229409   0.901   5.728   3.254 -0.3947  0.2664  0.1679
 2640TIP3   OH229410   0.225   6.809   2.521  0.3019  0.1033 -0.3007
 2640TIP3    H129411   0.226   6.747   2.448 -0.1502  1.0242 -1.1051
 2640TIP3    H229412   0.300   6.865   2.506 -0.1286  0.6625 -0.3877
 2641TIP3   OH229413   0.094   3.859  13.153 -0.0287 -0.7963 -1.0579
 2641TIP3    H129414   0.126   3.896  13.235 -1.8166  1.3444 -1.2387
 2641TIP3    H229415   0.034   3.789  13.179 -1.9027  0.9613 -0.3814
 2642TIP3   OH229416   4.049   3.093   2.339  0.2629 -0.2759  0.4277
 2642TIP3    H129417   3.992   3.092   2.262  0.2472  0.6428  0.4243
 2642TIP3    H229418   3.989   3.105   2.413  0.1115 -2.5413  0.7597
 2643TIP3   OH229419   6.662   2.195  13.579 -0.2197 -0.3173  0.2872
 2643TIP3    H129420   6.584   2.149  13.546 -1.0307  0.4993  0.9992
 2643TIP3    H229421   6.660   2.280  13.535  1.4527 -1.0056 -1.2673
 2644TIP3   OH229422   2.732   0.244  10.893  0.0355 -0.0944 -0.3129
 2644TIP3    H129423   2.823   0.213  10.891 -0.1523 -0.9328  1.7972
 2644TIP3    H229424   2.682   0.172  10.856 -0.0890 -1.2378  1.8937
 2645TIP3   OH229425   3.909   2.984  13.352 -0.8879 -0.0266 -0.2098
 2645TIP3    H129426   3.914   3.029  13.436  1.1652  0.3216 -0.4632
 2645TIP3    H229427   3.836   2.923  13.361 -0.3408 -0.4101  2.0360
 2646TIP3   OH229428   5.523   3.120  12.871  0.2205  0.6094  0.5779
 2646TIP3    H129429   5.481   3.083  12.949 -1.3265  0.0486 -0.4612
 2646TIP3    H229430   5.617   3.119  12.891 -0.2347  2.8030  3.3781
 2647TIP3   OH229431   3.275   1.897   0.448  0.2743  0.1728  0.2513
 2647TIP3    H129432   3.335   1.824   0.430 -0.8679 -0.4105 -1.4187
 2647TIP3    H229433   3.314   1.942   0.522  0.3722 -2.8780  2.2140
 2648TIP3   OH229434   6.668   3.954   0.952 -0.2877  0.5297  0.3421
 2648TIP3    H129435   6.635   3.995   0.873  1.0951 -0.3717 -0.7517
 2648TIP3    H229436   6.731   4.017   0.987 -1.3550  1.2063  1.1192
 2649TIP3   OH229437   4.480   6.297   5.903 -0.3391 -0.0964 -0.1304
 2649TIP3    H129438   4.484   6.203   5.922 -0.9694 -1.0479 -3.8085
 2649TIP3    H229439   4.391   6.311   5.872  0.0136  1.5347 -0.4812
 2650TIP3   OH229440   3.208   1.497   5.142  0.3242 -0.2073  0.3420
 2650TIP3    H129441   3.228   1.455   5.058 -2.1538 -1.8210  0.4572
 2650TIP3    H229442   3.117   1.525   5.134  0.7599  1.8073  1.6830
 2651TIP3   OH229443   2.573   1.771   2.734 -0.2327 -0.4067  0.0305
 2651TIP3    H129444   2.633   1.733   2.670  0.0078 -0.3459  0.2161
 2651TIP3    H229445   2.517   1.699   2.761  0.8702 -0.8851  1.1279
 2652TIP3   OH229446   2.110   4.866   3.023  0.0055 -0.0765  0.6737
 2652TIP3    H129447   2.024   4.884   2.986 -0.4402 -0.9746  1.2336
 2652TIP3    H229448   2.094   4.851   3.116  0.8025  0.0022  0.8329
 2653TIP3   OH229449   5.089   6.304  14.866 -0.0131 -0.3896 -0.3597
 2653TIP3    H129450   5.105   6.361  14.791 -1.5177 -0.4038 -0.7063
 2653TIP3    H229451   5.116   6.356  14.942  0.4296  0.0511 -0.8091
 2654TIP3   OH229452   5.069   4.768  13.027 -0.3764 -0.2405  0.6234
 2654TIP3    H129453   5.047   4.781  13.119  0.3762  1.8685  0.5529
 2654TIP3    H229454   5.162   4.791  13.021 -0.6449  0.5993 -0.8252
 2655TIP3   OH229455   1.779   3.894   3.115  0.4318  0.4416  0.5382
 2655TIP3    H129456   1.795   3.921   3.025  1.2742  1.4766  0.9766
 2655TIP3    H229457   1.727   3.966   3.153  0.4550  0.2253  0.9908
 2656TIP3   OH229458   1.634   6.581   0.415 -0.3469  0.9282 -0.3298
 2656TIP3    H129459   1.645   6.517   0.344  0.0871  1.6133 -0.8975
 2656TIP3    H229460   1.543   6.610   0.408 -1.1352 -0.9900  1.1312
 2657TIP3   OH229461   0.868   1.848  12.044  0.1781 -0.3038 -0.0360
 2657TIP3    H129462   0.884   1.941  12.058  0.8599 -0.6349  1.6618
 2657TIP3    H229463   0.867   1.837  11.949 -2.2168  1.7878 -0.3441
 2658TIP3   OH229464   4.110   2.760   6.558  0.2871  0.2366  0.0828
 2658TIP3    H129465   4.067   2.719   6.483 -1.2738  1.4404  0.2489
 2658TIP3    H229466   4.168   2.826   6.519  0.4522 -0.0041 -0.0854
 2659TIP3   OH229467   0.721   3.262   1.468  0.4043 -0.3519 -0.1638
 2659TIP3    H129468   0.715   3.168   1.453 -1.8250 -0.3221  0.1885
 2659TIP3    H229469   0.801   3.289   1.422  0.8199 -2.3182 -0.6829
 2660TIP3   OH229470   0.561   1.133   2.082 -0.1309 -0.2288  0.1904
 2660TIP3    H129471   0.519   1.130   1.996 -1.3382  1.1073  0.6996
 2660TIP3    H229472   0.596   1.045   2.095 -2.5666 -1.3581 -0.3730
 2661TIP3   OH229473   2.569   4.965   1.926 -0.7036 -0.2357  0.4486
 2661TIP3    H129474   2.506   5.037   1.926 -0.8037 -0.3069  1.5254
 2661TIP3    H229475   2.519   4.890   1.959  0.2355  0.0207  2.6301
 2662TIP3   OH229476   0.320   6.132  12.923 -0.6681  0.0596 -0.1171
 2662TIP3    H129477   0.242   6.093  12.961  0.2200 -0.1768  1.5490
 2662TIP3    H229478   0.380   6.143  12.996  1.1324 -0.3751 -1.4423
 2663TIP3   OH229479   5.964   1.471  14.068  0.9863  0.4128 -0.1732
 2663TIP3    H129480   6.051   1.431  14.070  0.8811  0.0806 -1.4683
 2663TIP3    H229481   5.953   1.501  13.978 -0.9262 -1.0960 -0.5121
 2664TIP3   OH229482   6.166   2.034   0.392  0.0539  0.0385 -0.3244
 2664TIP3    H129483   6.155   1.969   0.460  0.9347 -0.3999 -0.5811
 2664TIP3    H229484   6.229   1.995   0.331 -0.2494  0.6715 -1.0619
 2665TIP3   OH229485   4.181   6.489  12.471  0.4280  0.4058  0.0307
 2665TIP3    H129486   4.121   6.444  12.530  1.0930  0.3737  0.6913
 2665TIP3    H229487   4.254   6.428  12.460  0.5420  0.6198 -0.4262
 2666TIP3   OH229488   2.852   6.773   4.911  0.0191 -0.5588 -0.2840
 2666TIP3    H129489   2.934   6.811   4.878  0.5688 -1.2487  0.2522
 2666TIP3    H229490   2.867   6.761   5.005 -0.5465 -1.0749 -0.2562
 2667TIP3   OH229491   2.159   2.559  12.843  0.0838 -0.0409  0.3632
 2667TIP3    H129492   2.158   2.545  12.938 -0.8187 -3.0101 -0.0014
 2667TIP3    H229493   2.067   2.571  12.820  0.1109 -1.0216 -0.3109
 2668TIP3   OH229494   2.763   2.453   1.732 -0.1895  0.0871  0.3644
 2668TIP3    H129495   2.854   2.426   1.722  0.0514  0.9913  0.0199
 2668TIP3    H229496   2.757   2.535   1.684 -1.0968  0.2245  0.6947
 2669TIP3   OH229497   1.596   5.023   1.680  0.2781  0.2517  0.0904
 2669TIP3    H129498   1.635   5.070   1.606  2.3950 -0.2566  0.8347
 2669TIP3    H229499   1.536   5.086   1.719  2.0773  1.9442  0.2909
 2670TIP3   OH229500   0.342   2.550  12.259 -0.7303  0.1463 -0.4559
 2670TIP3    H129501   0.380   2.636  12.242 -0.7921  0.2443 -0.1225
 2670TIP3    H229502   0.377   2.493  12.191  0.3645  0.1262  0.1163
 2671TIP3   OH229503   3.461   4.442  14.541  0.1962 -0.6309  0.0847
 2671TIP3    H129504   3.415   4.391  14.474  1.2471 -0.0517 -1.1463
 2671TIP3    H229505   3.398   4.507  14.570 -0.0132 -0.2865 -1.0712
 2672TIP3   OH229506   2.569   5.977  14.786  0.0531  0.3367 -0.1608
 2672TIP3    H129507   2.510   5.968  14.711 -0.8778  1.3974  0.4064
 2672TIP3    H229508   2.656   5.986  14.747 -0.3394  0.2486 -1.0813
 2673TIP3   OH229509   2.899   6.022   5.865  0.1988 -0.2705 -0.2548
 2673TIP3    H129510   2.935   5.939   5.835 -0.5071 -1.3966  1.7879
 2673TIP3    H229511   2.965   6.057   5.924  0.3953  0.5493 -0.9345
 2674TIP3   OH229512   4.957   5.988  16.585 -0.5097  0.8878  0.4346
 2674TIP3    H129513   4.939   6.011  16.494  0.3594  0.7940  0.2246
 2674TIP3    H229514   4.898   5.915  16.604  0.7394 -0.4792 -0.7240
 2675TIP3   OH229515   4.774   1.674   4.454  0.1493  0.0298  0.3445
 2675TIP3    H129516   4.712   1.738   4.418  2.2559  3.0195  1.6032
 2675TIP3    H229517   4.764   1.682   4.549  0.2004 -1.9155  0.5540
 2676TIP3   OH229518   1.180   4.234  17.175 -0.1522 -0.6511  0.0237
 2676TIP3    H129519   1.125   4.271  17.107  1.8294 -0.4507 -1.5341
 2676TIP3    H229520   1.257   4.201  17.129  1.7201  0.3596  2.2497
 2677TIP3   OH229521   3.948   0.778  10.990  0.3457 -0.0503  0.3958
 2677TIP3    H129522   4.039   0.783  10.961  0.5073 -1.3922  0.5696
 2677TIP3    H229523   3.899   0.752  10.911  0.4182 -1.2211  0.7099
 2678TIP3   OH229524   5.810   5.106  13.235 -0.0208  0.6795 -0.4673
 2678TIP3    H129525   5.769   5.099  13.321  0.8190 -1.2138 -0.1505
 2678TIP3    H229526   5.748   5.063  13.176  1.6194 -2.8841  0.1335
 2679TIP3   OH229527   3.711   1.081   3.445 -0.1473  0.4002 -0.0767
 2679TIP3    H129528   3.732   1.020   3.515 -1.5154  0.6154  0.5509
 2679TIP3    H229529   3.750   1.043   3.367 -0.8897 -1.2350  0.3169
 2680TIP3   OH229530   6.266   0.650   2.502  0.1134 -0.4962 -0.9652
 2680TIP3    H129531   6.318   0.723   2.536 -0.7936 -0.0835 -0.4204
 2680TIP3    H229532   6.267   0.585   2.573  1.3111 -1.2380 -1.6305
 2681TIP3   OH229533   4.903   4.117  15.508  0.0014 -0.1104  0.4923
 2681TIP3    H129534   4.998   4.123  15.503 -0.0515  0.1110 -0.6015
 2681TIP3    H229535   4.886   4.077  15.593  1.0436  0.2972  0.9121
 2682TIP3   OH229536   1.240   2.316  13.637 -0.2826  0.4141  0.5168
 2682TIP3    H129537   1.303   2.276  13.696  0.0002 -1.7554 -1.1285
 2682TIP3    H229538   1.154   2.293  13.674 -0.1312 -2.0500 -0.4976
 2683TIP3   OH229539   5.024   2.590   1.459  0.7524  0.0363 -0.5991
 2683TIP3    H129540   5.047   2.631   1.542 -2.7077 -1.8888  1.5589
 2683TIP3    H229541   4.946   2.638   1.430 -0.2948 -1.6319 -0.6916
 2684TIP3   OH229542   6.824   3.742  11.273 -0.3224 -0.6797  0.1953
 2684TIP3    H129543   6.913   3.734  11.306 -0.4012 -0.5660  0.4340
 2684TIP3    H229544   6.789   3.652  11.276  0.7043 -1.2471 -2.5310
 2685TIP3   OH229545   6.555   2.190   0.522 -0.3986  0.4811 -0.2485
 2685TIP3    H129546   6.616   2.261   0.505  1.6600 -1.2799 -0.7445
 2685TIP3    H229547   6.563   2.173   0.616 -2.2057  1.9539  0.2297
 2686TIP3   OH229548   0.447   6.675  15.283  0.6399 -0.4662  0.2615
 2686TIP3    H129549   0.380   6.712  15.224  1.2378 -2.0218 -1.5138
 2686TIP3    H229550   0.451   6.736  15.356  0.7058  2.3079 -1.8762
 2687TIP3   OH229551   4.867   0.550   2.937  0.0431  0.1015 -0.0752
 2687TIP3    H129552   4.822   0.589   3.012 -1.1063  2.1450 -1.6828
 2687TIP3    H229553   4.958   0.577   2.946 -0.3079  1.3049  0.0345
 2688TIP3   OH229554   4.332   5.290   1.615 -0.2562  0.6906  0.1041
 2688TIP3    H129555   4.336   5.363   1.676 -0.7862 -0.4830  1.5985
 2688TIP3    H229556   4.331   5.212   1.670  1.8982 -0.5691 -1.4566
 2689TIP3   OH229557   1.493   5.582   0.017  0.0041 -0.0560 -0.1761
 2689TIP3    H129558   1.480   5.674  -0.007  1.1566  0.7486  2.0197
 2689TIP3    H229559   1.432   5.568   0.089  2.4910  0.2416  2.1461
 2690TIP3   OH229560   5.800   3.086  12.932  0.1302 -0.3137  0.5081
 2690TIP3    H129561   5.860   3.152  12.898 -0.0521 -0.7384 -0.6890
 2690TIP3    H229562   5.847   3.046  13.005  1.1763 -0.4339 -0.2125
 2691TIP3   OH229563   5.769   5.289   5.142  0.1518  0.0773 -0.4181
 2691TIP3    H129564   5.699   5.225   5.157 -0.2574  0.7379  0.5936
 2691TIP3    H229565   5.833   5.241   5.090 -0.2103 -1.1234  0.1821
 2692TIP3   OH229566   0.587   1.793  16.838 -0.3754 -0.1637  0.4696
 2692TIP3    H129567   0.662   1.742  16.806  0.4447  1.2230  0.1247
 2692TIP3    H229568   0.624   1.850  16.906 -0.8921  1.2878 -0.4412
 2693TIP3   OH229569   6.226   2.265   3.843  0.0533 -0.0099  0.5306
 2693TIP3    H129570   6.241   2.340   3.900  1.0774 -0.9761  1.5938
 2693TIP3    H229571   6.223   2.190   3.902 -0.9609 -0.8221 -0.5013
 2694TIP3   OH229572   3.138   3.870  12.754  0.4652 -0.1306  0.0882
 2694TIP3    H129573   3.188   3.791  12.732  0.7857  0.1283 -0.1370
 2694TIP3    H229574   3.048   3.840  12.762  0.7447 -0.7156  1.1252
 2695TIP3   OH229575   0.376   0.901  11.666  0.0083  0.6295  0.2700
 2695TIP3    H129576   0.392   0.807  11.663  2.5962  0.9890  0.3116
 2695TIP3    H229577   0.317   0.918  11.593 -1.0250 -1.0976  0.6719
 2696TIP3   OH229578   3.704   3.460  15.028 -0.3893 -0.2221 -0.2794
 2696TIP3    H129579   3.774   3.436  14.968  0.7932 -0.4345  1.1214
 2696TIP3    H229580   3.691   3.382  15.082  1.5648  1.1633  2.4845
 2697TIP3   OH229581   5.243   3.705   4.127 -0.0295  0.0989 -0.0233
 2697TIP3    H129582   5.258   3.799   4.130 -0.0130  0.0692  0.9097
 2697TIP3    H229583   5.331   3.667   4.121 -0.0309  0.1340 -0.2809
 2698TIP3   OH229584   6.285   3.051  10.975  0.0962 -0.0746  0.2494
 2698TIP3    H129585   6.365   3.089  10.938  1.1794 -1.3215  1.2235
 2698TIP3    H229586   6.274   2.969  10.928 -1.0670  0.4397 -0.4064
 2699TIP3   OH229587   5.096   6.063   2.473 -0.3398  0.3954 -0.4969
 2699TIP3    H129588   5.150   6.049   2.550 -2.1115 -2.0424  0.4439
 2699TIP3    H229589   5.012   6.093   2.508 -1.5816 -1.9312 -1.2698
 2700TIP3   OH229590   5.387   0.906   5.116  0.1798 -0.7270  0.2367
 2700TIP3    H129591   5.356   0.868   5.198 -1.9313  1.3885  0.5059
 2700TIP3    H229592   5.324   0.878   5.050  0.5811 -0.5625 -0.2243
 2701TIP3   OH229593   5.904   6.402   1.073 -0.3247 -0.5133 -0.0817
 2701TIP3    H129594   5.971   6.343   1.108 -0.4184 -0.0145  0.9673
 2701TIP3    H229595   5.853   6.428   1.149 -0.4542  0.7071 -0.5651
 2702TIP3   OH229596   3.815   4.783  15.084  0.0072  0.2589 -0.3020
 2702TIP3    H129597   3.746   4.753  15.144  0.3665 -0.3187 -0.1689
 2702TIP3    H229598   3.857   4.702  15.055 -0.7695  0.4504 -2.0892
 2703TIP3   OH229599   6.402   1.943   3.798 -0.5625  0.1211  0.2501
 2703TIP3    H129600   6.343   1.924   3.871  1.0105 -0.9042  1.3297
 2703TIP3    H229601   6.480   1.980   3.840  0.1225  0.1465 -0.9948
 2704TIP3   OH229602   6.542   6.583  15.027  0.5771  0.0573  0.4342
 2704TIP3    H129603   6.515   6.554  14.939  2.0096  0.2246 -0.0873
 2704TIP3    H229604   6.592   6.663  15.012  0.6476  0.2125  1.4304
 2705TIP3   OH229605   1.267   3.400   5.533 -0.2089  0.1777  0.5925
 2705TIP3    H129606   1.244   3.468   5.596  0.3830 -1.1023  2.2821
 2705TIP3    H229607   1.361   3.386   5.545  0.0457  0.2988 -1.0240
 2706TIP3   OH229608   6.485   2.643   0.356 -0.2165  0.2100  0.4477
 2706TIP3    H129609   6.567   2.663   0.311  0.0209 -3.0297 -0.8448
 2706TIP3    H229610   6.507   2.572   0.416 -1.9745 -0.5473  0.2706
 2707TIP3   OH229611   5.416   5.556   0.849 -0.3156 -0.3248 -0.0906
 2707TIP3    H129612   5.419   5.493   0.777  0.8153 -1.5175  0.9445
 2707TIP3    H229613   5.358   5.516   0.913 -1.9209  1.0837 -0.6063
 2708TIP3   OH229614   2.134   2.001   5.414 -0.2761  0.9887 -0.1916
 2708TIP3    H129615   2.079   1.937   5.370  1.0478  0.7245 -1.5320
 2708TIP3    H229616   2.158   1.959   5.497  1.7786 -0.9804 -1.6557
 2709TIP3   OH229617   2.236   6.467  13.541 -0.3231 -0.1469  0.0536
 2709TIP3    H129618   2.251   6.508  13.456  0.8073 -2.1344 -0.7859
 2709TIP3    H229619   2.144   6.484  13.561 -0.2285  1.6224 -0.8195
 2710TIP3   OH229620   4.914   2.832  10.226  0.7748 -0.5554  0.5260
 2710TIP3    H129621   4.974   2.888  10.177  1.4090  0.0903  1.9925
 2710TIP3    H229622   4.938   2.743  10.200  0.0886 -0.2214 -1.4456
 2711TIP3   OH229623   4.170   4.715   0.588  0.0779  0.0821 -0.3464
 2711TIP3    H129624   4.111   4.719   0.512  1.3725 -1.1008 -1.4586
 2711TIP3    H229625   4.221   4.635   0.575 -1.3065 -1.5781  3.0420
 2712TIP3   OH229626   4.261   4.574   3.628  0.7514 -0.2860 -0.1328
 2712TIP3    H129627   4.294   4.494   3.587 -1.3927 -1.0955 -0.3909
 2712TIP3    H229628   4.324   4.592   3.699  2.6943 -0.7023 -1.6562
 2713TIP3   OH229629   1.370   2.186  14.296  0.0044 -0.0920 -0.5250
 2713TIP3    H129630   1.404   2.249  14.360 -0.4864 -0.0640 -0.2854
 2713TIP3    H229631   1.275   2.191  14.307 -0.2146  1.2776 -2.5203
 2714TIP3   OH229632   0.257   2.588   5.002  0.1591  0.3826  0.1165
 2714TIP3    H129633   0.180   2.579   5.057  0.3778 -0.4930  0.2930
 2714TIP3    H229634   0.233   2.547   4.919  0.2521  0.5950 -0.0173
 2715TIP3   OH229635   1.833   4.552  11.090  0.1460  0.1231  0.3674
 2715TIP3    H129636   1.791   4.546  11.004  0.1954  1.2806  0.2481
 2715TIP3    H229637   1.924   4.574  11.070 -0.2064  2.0934  0.7295
 2716TIP3   OH229638   4.056   1.894   3.306 -1.3215 -0.3201  0.1127
 2716TIP3    H129639   4.021   1.909   3.218 -1.2409  0.7386  0.2512
 2716TIP3    H229640   3.999   1.945   3.363 -3.0219 -3.0374  1.0310
 2717TIP3   OH229641   0.971   5.175  16.905 -0.4609  0.6044 -0.2523
 2717TIP3    H129642   1.041   5.239  16.910 -0.4857  0.5966  0.2595
 2717TIP3    H229643   0.999   5.104  16.964  0.4592 -0.7408 -2.1798
 2718TIP3   OH229644   0.198   1.675  12.935 -0.2347  0.8391  0.1646
 2718TIP3    H129645   0.160   1.718  13.011 -0.9249  0.2464  0.1668
 2718TIP3    H229646   0.283   1.718  12.923 -0.3504  1.3035  0.9385
 2719TIP3   OH229647   6.316   3.542   5.248  0.5601  0.8309 -0.4328
 2719TIP3    H129648   6.243   3.601   5.270  0.9958  1.5265 -0.8255
 2719TIP3    H229649   6.393   3.585   5.284  0.7013 -0.3288  0.7459
 2720TIP3   OH229650   5.609   5.137   3.450  0.3023  0.0648  0.2951
 2720TIP3    H129651   5.683   5.186   3.416  0.5298 -0.7683 -0.4527
 2720TIP3    H229652   5.535   5.164   3.395  0.4989 -0.6548 -0.3511
 2721TIP3   OH229653   0.404   3.072  16.919  0.1456 -0.2671 -0.4969
 2721TIP3    H129654   0.410   3.121  16.837  0.2065  0.6601  0.0409
 2721TIP3    H229655   0.343   3.123  16.972 -0.7558 -1.4564 -0.3704
 2722TIP3   OH229656   1.652   4.086   0.498 -0.7702 -0.1293  0.1933
 2722TIP3    H129657   1.613   4.044   0.422 -1.4241  1.7961 -0.6105
 2722TIP3    H229658   1.734   4.123   0.464 -0.2683 -0.6282  0.8451
 2723TIP3   OH229659   3.799   5.201  15.150  0.3437 -0.3450 -0.3959
 2723TIP3    H129660   3.758   5.287  15.157  0.8066 -0.0900 -0.7927
 2723TIP3    H229661   3.867   5.212  15.084  0.0334 -1.1644 -0.8618
 2724TIP3   OH229662   6.698   5.569   3.960  0.5053 -0.1831 -0.0219
 2724TIP3    H129663   6.793   5.581   3.957  0.4087  0.4225 -1.0005
 2724TIP3    H229664   6.682   5.488   3.911  0.4337  0.2385 -0.6959
 2725TIP3   OH229665   5.300   1.120  10.762 -0.6852  0.3467 -0.2341
 2725TIP3    H129666   5.358   1.068  10.817  0.0447  1.5243  0.1408
 2725TIP3    H229667   5.233   1.058  10.733 -0.4894 -0.5444  1.1157
 2726TIP3   OH229668   4.594   6.443  15.212 -0.2718 -0.0873 -0.8081
 2726TIP3    H129669   4.680   6.402  15.220 -0.0895 -0.0222 -2.1545
 2726TIP3    H229670   4.532   6.374  15.238  0.1653 -0.2553 -0.2081
 2727TIP3   OH229671   1.526   5.730  16.045 -0.6173  0.0908  0.3109
 2727TIP3    H129672   1.539   5.664  16.113 -1.0808  0.6940  1.0045
 2727TIP3    H229673   1.542   5.683  15.963 -1.4042 -1.0097  0.7513
 2728TIP3   OH229674   0.341   5.422   5.223 -0.1938  0.1558  0.4042
 2728TIP3    H129675   0.307   5.338   5.254 -2.6904  0.6016 -0.8705
 2728TIP3    H229676   0.420   5.437   5.276  0.1355 -2.7750  0.9145
 2729TIP3   OH229677   3.776   5.474   2.582 -0.0183 -0.6946  0.0933
 2729TIP3    H129678   3.693   5.459   2.626 -0.1469 -0.1856  0.0253
 2729TIP3    H229679   3.824   5.533   2.640 -0.4710  0.5619 -0.7708
 2730TIP3   OH229680   3.259   6.192  13.892 -0.6308 -0.1997 -0.4104
 2730TIP3    H129681   3.217   6.247  13.825 -1.7458 -0.4944  0.0238
 2730TIP3    H229682   3.277   6.252  13.965  2.3437  0.5594 -1.6215
 2731TIP3   OH229683   1.592   3.453  11.869 -0.0631  0.0740  0.7495
 2731TIP3    H129684   1.546   3.478  11.949 -1.7302  0.1877 -0.2214
 2731TIP3    H229685   1.606   3.536  11.822  0.8713  0.0013  0.8670
 2732TIP3   OH229686   2.064   2.080  14.195  0.6956 -0.1589 -0.0897
 2732TIP3    H129687   2.145   2.031  14.184  0.3621 -0.6010 -0.5831
 2732TIP3    H229688   2.066   2.145  14.125  0.3235 -0.5842 -0.4979
 2733TIP3   OH229689   5.712   5.598   0.130  0.7033  0.7510  0.0948
 2733TIP3    H129690   5.711   5.667   0.064 -0.5827 -0.5662 -1.3466
 2733TIP3    H229691   5.641   5.621   0.190 -0.2354  0.2975 -0.8252
 2734TIP3   OH229692   3.042   4.733   4.541 -0.4750  0.0273 -0.1727
 2734TIP3    H129693   2.963   4.786   4.544  0.4086  1.5243 -1.5212
 2734TIP3    H229694   3.091   4.758   4.619 -1.6047 -1.4630  1.0784
 2735TIP3   OH229695   5.402   4.424  15.105 -0.5597  0.3434  0.5052
 2735TIP3    H129696   5.429   4.455  15.191  0.0736  0.5096  0.2546
 2735TIP3    H229697   5.461   4.350  15.087 -0.6407  0.3543  0.1867
 2736TIP3   OH229698   2.339   5.295   1.365  0.2244  0.5397 -0.5737
 2736TIP3    H129699   2.322   5.389   1.371  3.3090  1.2639 -1.3600
 2736TIP3    H229700   2.324   5.273   1.273 -0.4401  0.2513 -0.4025
 2737TIP3   OH229701   2.540   3.574   5.337  0.1374 -0.0779 -0.2620
 2737TIP3    H129702   2.566   3.483   5.329 -0.1612 -0.1351 -0.6565
 2737TIP3    H229703   2.465   3.573   5.396 -0.1066 -0.1384 -0.5692
 2738TIP3   OH229704   3.223   6.799  10.850  0.6144 -0.1786  0.5001
 2738TIP3    H129705   3.227   6.878  10.796 -0.8059  0.1982  0.8852
 2738TIP3    H229706   3.193   6.730  10.791 -0.1248  0.0449  0.6038
 2739TIP3   OH229707   5.448   4.903   3.512  0.5914  0.1074  1.0090
 2739TIP3    H129708   5.484   4.897   3.423  0.4586  1.7344  0.8271
 2739TIP3    H229709   5.524   4.916   3.568  0.6911 -1.0755  1.1786
 2740TIP3   OH229710   2.876   4.428  14.893 -0.3321 -0.2552  0.7263
 2740TIP3    H129711   2.818   4.496  14.926 -1.6343 -2.4120  3.3032
 2740TIP3    H229712   2.825   4.385  14.824 -1.4348 -1.3505  2.1398
 2741TIP3   OH229713   0.597   6.167   2.123 -0.3557 -0.2058 -0.1900
 2741TIP3    H129714   0.607   6.082   2.081 -0.7804 -0.1721 -0.3596
 2741TIP3    H229715   0.503   6.180   2.130 -0.3276 -0.7111  1.7606
 2742TIP3   OH229716   6.389   4.984  12.360  0.0760  0.2936 -0.2596
 2742TIP3    H129717   6.479   5.009  12.381  0.6666  0.4431 -2.7375
 2742TIP3    H229718   6.396   4.932  12.280 -2.1113  1.2208 -1.1301
 2743TIP3   OH229719   4.974   0.831   0.232 -0.1149 -0.2453 -0.1778
 2743TIP3    H129720   5.051   0.775   0.221 -0.0606 -0.3802  0.7916
 2743TIP3    H229721   4.975   0.855   0.325 -1.1253 -0.0713 -0.2013
 2744TIP3   OH229722   5.839   2.168   3.729 -0.3598 -0.5138  0.0034
 2744TIP3    H129723   5.794   2.223   3.792 -1.5312 -1.9893  0.5060
 2744TIP3    H229724   5.806   2.196   3.644 -1.1962 -0.6355  0.2776
 2745TIP3   OH229725   5.307   6.276   4.891 -0.2203  0.2668 -0.7209
 2745TIP3    H129726   5.318   6.222   4.813  2.0258  0.2403 -0.4489
 2745TIP3    H229727   5.235   6.235   4.940 -0.8972 -0.3641 -2.2052
 2746TIP3   OH229728   0.117   4.072  12.264 -0.4382 -0.3077 -0.0691
 2746TIP3    H129729   0.135   4.155  12.307 -0.1044 -0.7464  0.6719
 2746TIP3    H229730   0.042   4.036  12.312 -0.7979 -0.2797 -0.6065
 2747TIP3   OH229731   1.395   0.095   0.085 -0.5706 -0.1967 -0.1682
 2747TIP3    H129732   1.333   0.047   0.031 -0.8631 -1.1237  0.9700
 2747TIP3    H229733   1.420   0.034   0.154  0.5742  0.6214  0.1718
 2748TIP3   OH229734   6.154   2.493  12.185 -0.4156  0.0936 -0.0755
 2748TIP3    H129735   6.096   2.568  12.200  1.2109  1.5512 -0.6812
 2748TIP3    H229736   6.227   2.507  12.246 -0.8477 -1.9332  0.9862
 2749TIP3   OH229737   4.354   1.097   3.071 -0.2737  0.5269 -0.5696
 2749TIP3    H129738   4.331   1.190   3.080 -0.6122  0.4580 -0.6834
 2749TIP3    H229739   4.390   1.089   2.983  1.3639  0.8662  0.0399
 2750TIP3   OH229740   0.839   2.491   1.531  0.4707 -0.0177  0.1688
 2750TIP3    H129741   0.831   2.551   1.605 -0.4310 -0.4875  0.4719
 2750TIP3    H229742   0.765   2.431   1.541  1.6909 -1.5641  0.2250
 2751TIP3   OH229743   1.515   5.011   1.286 -0.1188 -0.4923  0.3447
 2751TIP3    H129744   1.446   4.972   1.232  0.8261  1.1292 -2.2132
 2751TIP3    H229745   1.467   5.065   1.349 -1.2262 -0.8899 -0.1158
 2752TIP3   OH229746   0.041   4.937   5.359  0.1509 -0.0765  0.5688
 2752TIP3    H129747  -0.032   4.883   5.327  1.4588 -1.3907 -0.3507
 2752TIP3    H229748   0.039   4.927   5.454  0.5595 -2.1153  0.4150
 2753TIP3   OH229749   4.551   1.354   0.436 -0.7040  0.8151  0.3151
 2753TIP3    H129750   4.457   1.346   0.452 -0.6382  0.8015  0.6907
 2753TIP3    H229751   4.579   1.428   0.490  0.1475 -1.3008  2.9988
 2754TIP3   OH229752   5.538   2.935   4.065  0.3939 -0.1121 -0.6444
 2754TIP3    H129753   5.544   2.954   3.972 -1.7107  1.9102 -0.4506
 2754TIP3    H229754   5.570   3.014   4.109  0.2771 -0.5868  0.3316
 2755TIP3   OH229755   0.918   4.820  12.882  0.2811 -0.3227 -0.4070
 2755TIP3    H129756   0.855   4.892  12.888  1.7612  0.8834  1.1533
 2755TIP3    H229757   0.970   4.840  12.804 -0.6927 -0.9153 -1.2474
 2756TIP3   OH229758   1.188   3.672  15.967  0.2265 -0.0906  0.0933
 2756TIP3    H129759   1.224   3.739  16.024 -1.0260  0.8888 -0.2198
 2756TIP3    H229760   1.203   3.704  15.878  1.0334 -0.9984 -0.1168
 2757TIP3   OH229761   6.551   2.181   0.174  0.4953  0.0731  0.1526
 2757TIP3    H129762   6.631   2.166   0.225  0.1305 -0.4530  0.5922
 2757TIP3    H229763   6.497   2.103   0.191  0.8296 -0.6780 -1.9694
 2758TIP3   OH229764   2.520   1.874   5.806  0.0443  0.1494 -0.3050
 2758TIP3    H129765   2.604   1.828   5.810  0.5906  0.7546 -2.8904
 2758TIP3    H229766   2.528   1.944   5.871  1.4110 -0.0243 -0.2605
 2759TIP3   OH229767   4.337   1.643   5.656  0.3146 -0.1922 -0.2333
 2759TIP3    H129768   4.300   1.718   5.610 -0.0728 -0.0342  0.3212
 2759TIP3    H229769   4.345   1.672   5.747  0.3796 -0.7459 -0.0567
 2760TIP3   OH229770   2.459   2.054  14.464 -0.9418 -0.3054  0.3960
 2760TIP3    H129771   2.535   2.000  14.442  0.9540  1.1732  2.7316
 2760TIP3    H229772   2.392   1.991  14.490  0.0202 -1.6276 -0.1797
 2761TIP3   OH229773   4.455   1.412   3.292 -0.1488 -0.4642 -0.1366
 2761TIP3    H129774   4.525   1.381   3.234  0.2984  2.2783 -1.2318
 2761TIP3    H229775   4.453   1.349   3.363  3.1704 -0.9402 -0.3064
 2762TIP3   OH229776   5.149   6.098  14.555  0.0521 -1.0273  0.3938
 2762TIP3    H129777   5.070   6.127  14.600 -0.5781 -1.5248 -0.3556
 2762TIP3    H229778   5.220   6.143  14.599 -0.7109 -0.0543  0.6608
 2763TIP3   OH229779   0.262   2.381   2.667  0.3742 -0.1795  0.2022
 2763TIP3    H129780   0.247   2.289   2.690 -1.9059  0.3690  1.1368
 2763TIP3    H229781   0.343   2.404   2.711 -0.5080 -0.9919  2.3856
 2764TIP3   OH229782   0.544   0.971  16.476 -0.2177  0.3155  0.4482
 2764TIP3    H129783   0.549   1.041  16.411  1.6445 -0.3534 -0.1705
 2764TIP3    H229784   0.488   1.007  16.545 -2.8384  0.7949 -1.7580
 2765TIP3   OH229785   2.051   2.635  16.905 -0.0737  0.1678  0.2416
 2765TIP3    H129786   1.998   2.711  16.929  1.0216  1.0901 -0.1791
 2765TIP3    H229787   1.989   2.572  16.869 -1.1844  0.3324  1.7879
 2766TIP3   OH229788   0.658   4.484   0.531  0.4724 -0.1328  0.2135
 2766TIP3    H129789   0.591   4.416   0.530 -0.9900  1.1355  2.3297
 2766TIP3    H229790   0.699   4.479   0.445 -0.5209 -2.7194 -0.1955
 2767TIP3   OH229791   0.226   3.067   0.346 -0.1579  0.0192  0.9358
 2767TIP3    H129792   0.174   3.022   0.413  0.6172 -1.7310  0.4171
 2767TIP3    H229793   0.238   3.002   0.277  3.1230  0.1243  1.2579
 2768TIP3   OH229794   6.606   0.813  13.714  0.2775  0.3586  0.4301
 2768TIP3    H129795   6.611   0.859  13.630  1.7915  0.3869  0.5191
 2768TIP3    H229796   6.585   0.722  13.691 -0.3970  0.5859  0.1092
 2769TIP3   OH229797   2.881   0.133   5.965 -0.6103 -0.1190 -0.4041
 2769TIP3    H129798   2.890   0.039   5.950 -1.9562 -0.5193  1.0786
 2769TIP3    H229799   2.815   0.141   6.034  0.7417  1.8195  0.7826
 2770TIP3   OH229800   5.406   0.575  15.959 -0.5423 -0.5210  0.6294
 2770TIP3    H129801   5.441   0.515  16.024 -0.4041 -0.8750  0.2295
 2770TIP3    H229802   5.448   0.550  15.877  0.4921  0.9290  0.6714
 2771TIP3   OH229803   0.046   3.778   3.586  0.0752  0.2061 -0.2476
 2771TIP3    H129804   0.005   3.698   3.552  0.7987 -0.2465 -0.0797
 2771TIP3    H229805  -0.016   3.810   3.652 -0.4207  0.0235 -0.6162
 2772TIP3   OH229806   4.199   3.950  12.833 -0.3899 -0.4138  0.2651
 2772TIP3    H129807   4.113   3.980  12.804  0.1205  0.1628 -0.7335
 2772TIP3    H229808   4.182   3.872  12.885 -1.6300  0.5496  1.3729
 2773TIP3   OH229809   0.387   3.000  16.605  0.0263  0.4118  0.4726
 2773TIP3    H129810   0.416   2.909  16.596 -1.5357 -0.0409 -0.2854
 2773TIP3    H229811   0.456   3.042  16.656  0.6746 -1.2489  1.0296
 2774TIP3   OH229812   4.887   4.405  13.705 -0.7716  0.0848 -0.1163
 2774TIP3    H129813   4.867   4.313  13.723 -2.6141  0.4140 -0.2183
 2774TIP3    H229814   4.802   4.444  13.685  0.0052  1.7656 -0.3146
 2775TIP3   OH229815   1.176   1.904  11.396 -0.0358  0.5635  0.4823
 2775TIP3    H129816   1.142   1.943  11.316 -1.0412 -2.1988 -0.5742
 2775TIP3    H229817   1.251   1.851  11.367 -1.7239 -2.2557  0.8459
 2776TIP3   OH229818   2.600   4.093   5.604  0.3070  0.7806  0.3843
 2776TIP3    H129819   2.523   4.037   5.606  0.6931  0.1604 -1.0101
 2776TIP3    H229820   2.570   4.174   5.563  0.5829  0.1830 -1.0581
 2777TIP3   OH229821   4.153   6.755   1.102  0.4502 -0.0239 -0.1523
 2777TIP3    H129822   4.192   6.761   1.015  0.7091 -0.1715 -0.0487
 2777TIP3    H229823   4.089   6.827   1.105  1.2753  0.7256 -0.0493
 2778TIP3   OH229824   3.627   4.231   2.785 -0.2959 -0.1694  0.2691
 2778TIP3    H129825   3.596   4.320   2.767  1.9130  0.5788 -0.0665
 2778TIP3    H229826   3.699   4.217   2.723 -0.7457 -2.3023  0.1496
 2779TIP3   OH229827   1.047   1.162  13.307  0.3515 -0.0300  0.4226
 2779TIP3    H129828   1.141   1.161  13.292  0.0057 -0.2241 -2.4715
 2779TIP3    H229829   1.026   1.072  13.331  0.6934 -0.6253 -1.3081
 2780TIP3   OH229830   5.611   5.828   5.679  0.3227 -0.2734  0.1753
 2780TIP3    H129831   5.665   5.889   5.630 -1.6918 -0.3777 -2.3708
 2780TIP3    H229832   5.623   5.853   5.771  1.3992  2.3698 -0.6046
 2781TIP3   OH229833   4.387   3.219  14.696 -0.4030 -0.7581  0.3547
 2781TIP3    H129834   4.316   3.155  14.705 -0.5041 -0.9582 -1.5486
 2781TIP3    H229835   4.451   3.192  14.763 -1.2435 -1.7502  0.7908
 2782TIP3   OH229836   4.569   5.743  15.756 -0.2204 -0.4445 -0.0032
 2782TIP3    H129837   4.623   5.664  15.755 -0.4591 -0.6487 -2.6603
 2782TIP3    H229838   4.631   5.816  15.753 -0.0519 -0.5577  0.5295
 2783TIP3   OH229839   1.675   0.766   4.542  0.7101 -0.3206 -0.1222
 2783TIP3    H129840   1.687   0.814   4.460 -1.0197 -0.8136 -0.7131
 2783TIP3    H229841   1.762   0.731   4.562  2.0843  2.9585  0.3364
 2784TIP3   OH229842   0.197   3.991   0.775  0.3166 -0.2028  0.4905
 2784TIP3    H129843   0.229   4.034   0.854  0.0973 -0.9784  1.0121
 2784TIP3    H229844   0.180   3.901   0.802 -1.2956 -0.0860 -0.0318
 2785TIP3   OH229845   4.550   1.272  16.540 -0.5754  0.2558 -0.1320
 2785TIP3    H129846   4.494   1.328  16.593  0.1380  0.2921  0.6141
 2785TIP3    H229847   4.635   1.315  16.541  0.0550 -0.9331  0.6576
 2786TIP3   OH229848   6.076   5.335   3.645  0.0913 -0.2210 -0.4907
 2786TIP3    H129849   5.989   5.327   3.683 -0.9965 -2.8056 -3.1247
 2786TIP3    H229850   6.119   5.252   3.665  1.7376  0.7049  0.0816
 2787TIP3   OH229851   1.907   5.158  12.947  0.0192  0.0514 -0.2220
 2787TIP3    H129852   1.967   5.230  12.928  0.1998 -0.4187 -1.5963
 2787TIP3    H229853   1.963   5.088  12.982  0.4267 -0.5894 -2.0243
 2788TIP3   OH229854   1.601   6.135  11.986  0.1656 -0.1112 -0.0123
 2788TIP3    H129855   1.562   6.173  11.908  0.5683 -1.8881 -1.1308
 2788TIP3    H229856   1.673   6.082  11.953 -0.9217 -2.5661  1.3273
 2789TIP3   OH229857   2.201   6.561  15.208 -0.4003 -0.0104  0.1005
 2789TIP3    H129858   2.247   6.477  15.198 -1.3257 -0.6553  1.1074
 2789TIP3    H229859   2.268   6.627  15.192  0.2572 -0.9271 -1.1333
 2790TIP3   OH229860   1.855   4.532  15.485 -0.5852  0.0686 -0.0746
 2790TIP3    H129861   1.760   4.538  15.488 -0.7420 -0.5349 -2.2143
 2790TIP3    H229862   1.876   4.525  15.392  1.6826  2.0141  0.1952
 2791TIP3   OH229863   2.236   1.549  10.961  0.5435  0.2515  0.0810
 2791TIP3    H129864   2.158   1.599  10.936  0.4138  0.4616  0.8974
 2791TIP3    H229865   2.238   1.475  10.899 -1.1370 -0.5914  0.9557
 2792TIP3   OH229866   2.233   0.938   0.342 -0.3595  0.1461 -0.6855
 2792TIP3    H129867   2.171   0.866   0.333  1.0533 -1.0515 -1.2760
 2792TIP3    H229868   2.279   0.940   0.258  2.5289 -1.0834  0.7390
 2793TIP3   OH229869   0.189   2.527  11.020 -0.4950 -0.3706  0.0648
 2793TIP3    H129870   0.171   2.608  10.972 -1.2827  0.7545  2.1059
 2793TIP3    H229871   0.143   2.459  10.970 -1.5960  0.7921 -0.5833
 2794TIP3   OH229872   2.261   3.232  11.275 -0.5980 -0.0158  0.5841
 2794TIP3    H129873   2.278   3.298  11.344  0.0709 -0.4439  0.8403
 2794TIP3    H229874   2.266   3.148  11.321 -0.8799 -0.2706  0.1485
 2795TIP3   OH229875   1.622   4.001  11.793  0.1921  0.7783 -0.3896
 2795TIP3    H129876   1.560   4.030  11.727  0.6082  0.8152 -0.7631
 2795TIP3    H229877   1.688   4.070  11.797  0.1340  0.8085  0.1108
 2796TIP3   OH229878   5.552   2.895   6.561 -0.1696  0.2156 -0.1162
 2796TIP3    H129879   5.627   2.927   6.612  0.8846 -0.3387 -1.2511
 2796TIP3    H229880   5.512   2.974   6.525  0.1493  0.4912  0.1252
 2797TIP3   OH229881   3.424   5.430  13.293  0.3527  0.0630  0.6910
 2797TIP3    H129882   3.481   5.434  13.216 -0.6985  0.5173 -0.0907
 2797TIP3    H229883   3.468   5.484  13.358  0.9546  0.1850  0.1977
 2798TIP3   OH229884   5.166   4.308   0.954 -0.3625 -0.2575  0.0984
 2798TIP3    H129885   5.177   4.244   0.884 -1.6303 -1.1683  0.6818
 2798TIP3    H229886   5.072   4.328   0.953 -0.9820 -2.4298  3.2942
 2799TIP3   OH229887   3.085   3.907  14.263 -0.4725  0.4409 -1.3545
 2799TIP3    H129888   3.170   3.869  14.287 -1.6117 -0.8016  1.0903
 2799TIP3    H229889   3.030   3.832  14.241 -2.4990  0.4982  2.6353
 2800TIP3   OH229890   1.221   4.944   4.105 -0.2564  0.1770  0.1941
 2800TIP3    H129891   1.210   4.994   4.186 -1.1452 -0.2913  0.3848
 2800TIP3    H229892   1.228   5.010   4.036  0.3030  0.5770  0.6304
 2801TIP3   OH229893   3.577   1.174  17.048 -0.4879 -0.2299 -0.0119
 2801TIP3    H129894   3.522   1.105  17.084  0.6077  0.0110  2.2516
 2801TIP3    H229895   3.521   1.218  16.983 -2.6854 -0.5184  1.5772
 2802TIP3   OH229896   5.831   5.357   2.851  0.1554 -0.5511  0.1134
 2802TIP3    H129897   5.906   5.407   2.882  1.8936 -1.8345 -1.7360
 2802TIP3    H229898   5.858   5.265   2.860 -2.4055 -1.2140  2.1590
 2803TIP3   OH229899   5.303   0.823   2.288  0.0494  0.0344 -0.8676
 2803TIP3    H129900   5.250   0.764   2.234  0.3449 -0.2508 -0.8466
 2803TIP3    H229901   5.242   0.893   2.313 -0.7623 -1.0564  0.4155
 2804TIP3   OH229902   2.278   5.005  15.282 -0.2907  0.0727 -0.2605
 2804TIP3    H129903   2.184   4.995  15.297 -0.6534 -1.1885 -2.7198
 2804TIP3    H229904   2.303   5.082  15.333 -2.7454  0.6954  0.1368
 2805TIP3   OH229905   1.261   4.366  14.401  0.3736 -0.4052 -0.4485
 2805TIP3    H129906   1.284   4.450  14.362  2.9170 -0.5349  0.5922
 2805TIP3    H229907   1.332   4.307  14.375 -0.7797 -1.9524 -0.2268
 2806TIP3   OH229908   4.835   2.525  13.496  0.9872  0.3146  0.5224
 2806TIP3    H129909   4.795   2.599  13.543  3.5774  2.2068 -0.0521
 2806TIP3    H229910   4.880   2.475  13.564 -1.5223 -1.4583  1.0675
 2807TIP3   OH229911   2.910   6.388   0.404  0.7371 -0.6214  0.1574
 2807TIP3    H129912   2.865   6.382   0.319 -0.9476  1.8085  0.7431
 2807TIP3    H229913   3.003   6.395   0.382  0.3933 -0.7485 -1.4475
 2808TIP3   OH229914   3.394   5.433   3.819 -0.1431  0.0098 -0.2143
 2808TIP3    H129915   3.365   5.343   3.824 -0.6182  0.1790  0.1107
 2808TIP3    H229916   3.453   5.444   3.895  1.3053 -0.5096 -1.2175
 2809TIP3   OH229917   3.788   5.217  11.999 -0.9062  0.1980  0.0618
 2809TIP3    H129918   3.827   5.186  11.917 -0.6684 -1.2175  0.6755
 2809TIP3    H229919   3.860   5.264  12.043 -0.5683 -0.3754  0.1370
 2810TIP3   OH229920   0.609   2.897   1.654 -0.2264  0.7079 -0.0266
 2810TIP3    H129921   0.621   2.905   1.749 -1.0222 -0.8329  0.2352
 2810TIP3    H229922   0.517   2.874   1.643  0.1464 -0.4316 -1.0641
 2811TIP3   OH229923   4.553   1.962  14.521 -0.0989  0.1225  0.2321
 2811TIP3    H129924   4.541   1.939  14.614 -2.6307  0.0847 -0.0122
 2811TIP3    H229925   4.616   1.898  14.488 -0.7212 -1.1926  1.4778
 2812TIP3   OH229926   0.387   2.018   1.164  0.4162  0.1848 -0.1317
 2812TIP3    H129927   0.466   2.053   1.121 -0.3998  1.4893 -0.6182
 2812TIP3    H229928   0.338   1.977   1.093  0.7098 -0.7902  0.2047
 2813TIP3   OH229929   4.364   3.259  15.119  0.2310 -0.0012  0.5273
 2813TIP3    H129930   4.446   3.237  15.074 -1.2722  1.3883 -3.2801
 2813TIP3    H229931   4.297   3.210  15.071 -1.5399  1.5829  1.2939
 2814TIP3   OH229932   5.359   0.223  12.603 -0.1566 -0.1404  0.3050
 2814TIP3    H129933   5.286   0.261  12.652 -0.2276  0.0935  0.0197
 2814TIP3    H229934   5.433   0.282  12.620 -0.4962  0.6723 -0.8857
 2815TIP3   OH229935   1.318   0.483  14.830 -0.0247  0.4295 -0.6850
 2815TIP3    H129936   1.359   0.499  14.745  1.4576 -1.0404 -0.2882
 2815TIP3    H229937   1.224   0.488  14.812  0.2732  0.8609 -2.2583
 2816TIP3   OH229938   6.529   2.354   6.217  0.0533  0.2621  0.5325
 2816TIP3    H129939   6.581   2.426   6.182  2.0677 -1.4143 -0.1070
 2816TIP3    H229940   6.446   2.395   6.242  1.2684  2.8761  0.6490
 2817TIP3   OH229941   2.846   5.353   3.624 -0.1821  0.3760  0.3439
 2817TIP3    H129942   2.752   5.356   3.644 -0.4442 -0.5188 -0.6584
 2817TIP3    H229943   2.863   5.437   3.580 -0.9722 -0.2730 -1.2762
 2818TIP3   OH229944   0.176   1.519   1.880  0.2055 -0.7965  0.2706
 2818TIP3    H129945   0.158   1.567   1.961 -0.4001  1.5614 -1.1641
 2818TIP3    H229946   0.105   1.455   1.874  1.1517 -2.1548  2.3552
 2819TIP3   OH229947   2.104   4.016   3.039 -0.1819  0.5408  0.1510
 2819TIP3    H129948   2.067   4.028   3.126 -0.2658  0.4802  0.1237
 2819TIP3    H229949   2.165   4.089   3.028 -0.2070  0.5751  0.2418
 2820TIP3   OH229950   2.466   0.353   3.860  0.2526 -0.5746  0.5405
 2820TIP3    H129951   2.502   0.307   3.784 -0.4998  0.6310 -0.5878
 2820TIP3    H229952   2.541   0.397   3.899  0.6537 -1.2323  0.5284
 2821TIP3   OH229953   6.341   6.615   6.496  0.0330 -0.0944 -0.3944
 2821TIP3    H129954   6.333   6.601   6.590  1.6386  0.7810 -0.0935
 2821TIP3    H229955   6.273   6.679   6.474 -0.5698 -0.5610  0.0942
 2822TIP3   OH229956   3.973   6.479  13.998 -0.0350 -0.2368  0.3900
 2822TIP3    H129957   3.955   6.405  13.939 -2.0482  1.0240 -0.6922
 2822TIP3    H229958   3.915   6.466  14.072  1.4745 -1.0551  1.4852
 2823TIP3   OH229959   5.480   6.769  12.247 -0.0567  0.6703  0.7836
 2823TIP3    H129960   5.503   6.689  12.294  1.2456  1.5925  1.8012
 2823TIP3    H229961   5.545   6.777  12.178 -0.3800  0.6991  0.4774
 2824TIP3   OH229962   0.936   5.231   1.540 -0.2288  0.5644 -0.3901
 2824TIP3    H129963   0.861   5.267   1.587  0.0231 -1.1840  1.5031
 2824TIP3    H229964   0.945   5.142   1.574  1.7656  0.1836 -1.7217
 2825TIP3   OH229965   4.071   0.225  16.134 -0.4011  0.3416  0.8936
 2825TIP3    H129966   4.131   0.290  16.170 -1.3572  0.5230  2.2322
 2825TIP3    H229967   3.990   0.238  16.183 -0.7515 -1.5857  0.8896
 2826TIP3   OH229968   0.591   5.349   0.389 -0.2794  0.0778 -0.0576
 2826TIP3    H129969   0.549   5.435   0.384 -1.9002 -0.7279 -1.3527
 2826TIP3    H229970   0.524   5.288   0.360  0.6996 -1.7033  1.2117
 2827TIP3   OH229971   1.157   3.806   2.664 -0.1009 -0.0101  0.0705
 2827TIP3    H129972   1.244   3.769   2.681 -0.7543 -2.1829 -0.9521
 2827TIP3    H229973   1.152   3.814   2.569 -0.7061  1.0011  0.1717
 2828TIP3   OH229974   0.632   5.773   2.575 -0.4515  0.0450  0.1703
 2828TIP3    H129975   0.596   5.757   2.662  1.8187 -0.4613  1.1024
 2828TIP3    H229976   0.727   5.779   2.590  0.0396 -0.5548 -2.3417
 2829TIP3   OH229977   1.769   4.811  11.744 -0.2997  0.1723  0.4045
 2829TIP3    H129978   1.708   4.786  11.814  1.5600  1.3085  2.5990
 2829TIP3    H229979   1.742   4.899  11.719  0.6861  0.9109  1.7894
 2830TIP3   OH229980   5.603   2.617  15.241  0.4324  0.6856 -0.6188
 2830TIP3    H129981   5.573   2.679  15.174 -2.6554  0.1931  0.1444
 2830TIP3    H229982   5.545   2.633  15.315 -0.7598 -3.2360 -0.4696
 2831TIP3   OH229983   4.161   5.522  15.092 -0.0830 -0.2000 -0.0385
 2831TIP3    H129984   4.188   5.598  15.041 -1.1347 -0.6571 -1.3253
 2831TIP3    H229985   4.243   5.488  15.130  0.9825 -0.6470 -2.5285
 2832TIP3   OH229986   0.805   5.579  12.573 -0.1021 -0.1164 -0.3055
 2832TIP3    H129987   0.768   5.655  12.529 -0.2715 -0.3376 -0.5506
 2832TIP3    H229988   0.782   5.505  12.516 -1.3893 -0.5680  0.7566
 2833TIP3   OH229989   4.252   5.559   4.655 -0.1288  0.1296 -0.2401
 2833TIP3    H129990   4.264   5.593   4.744 -2.8703  0.4670  0.0918
 2833TIP3    H229991   4.206   5.476   4.667 -0.7715  0.3058 -1.3096
 2834TIP3   OH229992   0.153   1.637   6.440 -0.7860  0.1279 -0.3511
 2834TIP3    H129993   0.068   1.680   6.451 -0.7129  0.2345 -0.1934
 2834TIP3    H229994   0.216   1.709   6.438 -0.8148  0.1522 -1.8149
 2835TIP3   OH229995   6.682   3.367  16.573 -0.4454 -0.3814  0.2977
 2835TIP3    H129996   6.611   3.306  16.593 -1.6023 -0.0231 -2.2310
 2835TIP3    H229997   6.646   3.422  16.502  1.3131  1.7980  0.9781
 2836TIP3   OH229998   1.829   2.389  16.275  0.3402  0.1453 -0.6716
 2836TIP3    H129999   1.787   2.455  16.331 -0.6983 -1.3220  0.3509
 2836TIP3    H230000   1.908   2.432  16.242 -1.1920  2.5041 -1.4857
 2837TIP3   OH230001   3.747   2.684  15.131 -0.0876 -0.6972 -0.2767
 2837TIP3    H130002   3.837   2.659  15.151 -0.7265 -1.5343  1.8523
 2837TIP3    H230003   3.724   2.749  15.198 -1.3180 -1.0664 -0.3083
 2838TIP3   OH230004   6.494   4.891   6.076 -0.5382 -0.2433 -0.0719
 2838TIP3    H130005   6.528   4.870   5.989  0.8476  0.5390  0.2602
 2838TIP3    H230006   6.528   4.978   6.095 -0.0563 -0.7684  1.6291
 2839TIP3   OH230007   0.870   5.261  12.333 -0.4151  0.2069  0.1116
 2839TIP3    H130008   0.882   5.182  12.281  0.1232  0.3418  0.0236
 2839TIP3    H230009   0.779   5.257  12.362  0.1273 -1.4967  1.7890
 2840TIP3   OH230010   6.247   2.337   1.314  0.0607  0.4050  0.2746
 2840TIP3    H130011   6.202   2.350   1.231  0.1885  0.5420  0.2272
 2840TIP3    H230012   6.177   2.326   1.378 -0.0935 -2.3197 -0.2450
 2841TIP3   OH230013   5.537   1.521   2.940  0.2026 -0.0158 -0.1372
 2841TIP3    H130014   5.629   1.546   2.935 -0.1374  1.1514 -1.0477
 2841TIP3    H230015   5.533   1.455   3.010  1.9334 -1.0682 -0.9729
 2842TIP3   OH230016   2.244   0.836  14.038  0.0537 -0.3904  0.0558
 2842TIP3    H130017   2.216   0.893  14.110 -0.9269 -1.7316  0.7857
 2842TIP3    H230018   2.270   0.897  13.968 -0.2216  0.9413  1.0636
 2843TIP3   OH230019   4.172   6.102   1.020  0.5883 -0.1097 -0.0205
 2843TIP3    H130020   4.257   6.103   0.974  0.4928 -0.3911 -0.2085
 2843TIP3    H230021   4.185   6.039   1.091  0.4306 -0.4219 -0.2634
 2844TIP3   OH230022   1.273   3.793   5.375 -0.5199  0.3152  0.1413
 2844TIP3    H130023   1.353   3.836   5.403 -1.3014  0.7543  1.8069
 2844TIP3    H230024   1.204   3.831   5.430 -1.9733  0.3391 -1.5881
 2845TIP3   OH230025   3.043   6.372   3.317 -0.0436 -0.9643 -0.2635
 2845TIP3    H130026   3.038   6.353   3.411 -2.8776  0.9371  0.1006
 2845TIP3    H230027   3.030   6.288   3.274 -0.7164 -1.5710  1.0650
 2846TIP3   OH230028   1.068   2.005  14.102 -0.5472  0.1691  0.4383
 2846TIP3    H130029   1.030   1.929  14.147 -0.1720 -0.1629  0.2010
 2846TIP3    H230030   1.095   1.971  14.016  0.3563  0.3710  0.6285
 2847TIP3   OH230031   5.120   1.608  17.102 -0.3099 -0.2266 -0.2650
 2847TIP3    H130032   5.166   1.535  17.145 -0.8756 -0.2503  0.3099
 2847TIP3    H230033   5.089   1.662  17.174  0.3782  0.7635 -0.7011
 2848TIP3   OH230034   3.929   1.819  15.597  0.2558 -0.1081  0.3376
 2848TIP3    H130035   3.878   1.747  15.561  0.8099  0.5120 -1.8357
 2848TIP3    H230036   4.012   1.779  15.623  0.2503 -0.3846 -0.0728
 2849TIP3   OH230037   2.430   5.934  14.284 -0.3409 -0.1357  0.2263
 2849TIP3    H130038   2.368   5.890  14.227 -0.6360 -0.4673  0.7865
 2849TIP3    H230039   2.434   6.024  14.252 -0.2008 -0.4096 -0.5506
 2850TIP3   OH230040   5.342   6.132  15.798  0.3226 -0.2725  0.4764
 2850TIP3    H130041   5.268   6.146  15.857 -0.0339 -1.3538  0.3120
 2850TIP3    H230042   5.375   6.220  15.780  0.3873  0.0849  2.1992
 2851TIP3   OH230043   4.324   0.984  16.778  0.4281  0.1570  0.3873
 2851TIP3    H130044   4.416   0.983  16.752  0.4626  1.2080  0.4178
 2851TIP3    H230045   4.316   1.063  16.831 -0.6041  0.3553 -0.0487
 2852TIP3   OH230046   2.525   1.850  12.521  0.7286 -0.3304 -0.3153
 2852TIP3    H130047   2.487   1.809  12.599  1.1335 -1.2009 -0.5592
 2852TIP3    H230048   2.617   1.822  12.522  0.7536 -0.2860 -1.0650
 2853TIP3   OH230049   2.244   4.563   1.006 -0.0638 -0.4011  0.3950
 2853TIP3    H130050   2.193   4.549   0.927 -1.2971 -1.0832  1.2803
 2853TIP3    H230051   2.333   4.537   0.982 -0.4823 -0.9311 -0.6551
 2854TIP3   OH230052   3.599   5.549  16.250 -0.2114 -0.2201  0.2005
 2854TIP3    H130053   3.616   5.570  16.342  0.2033  0.5043 -0.0314
 2854TIP3    H230054   3.515   5.503  16.251 -0.1915 -0.2511  0.9439
 2855TIP3   OH230055   1.723   1.089  11.105  1.0412 -0.0821  0.3025
 2855TIP3    H130056   1.685   1.009  11.067  0.2789  0.7863 -0.8217
 2855TIP3    H230057   1.648   1.135  11.143  0.7074  1.9928 -2.5494
 2856TIP3   OH230058   6.356   1.373   4.457 -0.0464  0.0647  0.0589
 2856TIP3    H130059   6.359   1.369   4.361  0.4329 -0.5833  0.0915
 2856TIP3    H230060   6.358   1.281   4.484 -0.8198  0.2254  0.6774
 2857TIP3   OH230061   6.117   0.292  16.040  0.5127 -0.2287 -0.1455
 2857TIP3    H130062   6.080   0.319  15.956  2.0851 -2.6717 -1.7533
 2857TIP3    H230063   6.166   0.212  16.020  2.0635 -0.1698  2.8679
 2858TIP3   OH230064   2.324   6.122  13.463 -0.1788  0.0066 -0.2141
 2858TIP3    H130065   2.406   6.077  13.444 -0.8762 -1.7682  0.7473
 2858TIP3    H230066   2.282   6.069  13.530 -1.1659  2.0180  0.8609
 2859TIP3   OH230067   0.438   4.550   1.146 -0.3173  0.4419  0.4332
 2859TIP3    H130068   0.462   4.637   1.114  2.5977 -0.5102 -0.2123
 2859TIP3    H230069   0.413   4.501   1.067 -1.0567  0.3879  0.6859
 2860TIP3   OH230070   4.807   4.730   3.480  0.6492 -0.0236  0.6194
 2860TIP3    H130071   4.892   4.717   3.522  0.1095 -0.6619  1.5484
 2860TIP3    H230072   4.784   4.645   3.444  0.7100  0.3139 -0.2445
 2861TIP3   OH230073   4.674   0.062  12.286 -0.4123 -0.3721  0.0164
 2861TIP3    H130074   4.580   0.044  12.293 -0.1833 -0.9015  3.0555
 2861TIP3    H230075   4.713  -0.025  12.277 -0.2015 -0.0940 -2.2602
 2862TIP3   OH230076   4.758   5.096  16.339 -0.3814 -0.1031 -0.4743
 2862TIP3    H130077   4.692   5.135  16.282  0.5146 -0.6859 -1.9783
 2862TIP3    H230078   4.841   5.109  16.292  0.4103 -0.5677  0.7327
 2863TIP3   OH230079   4.910   3.125  16.987  0.2719 -0.1819 -0.1067
 2863TIP3    H130080   4.877   3.050  16.938  3.1783 -2.0699  0.5381
 2863TIP3    H230081   4.838   3.149  17.045 -0.6642 -2.7814 -0.0400
 2864TIP3   OH230082   4.287   1.929  16.872 -0.6154  0.0490  0.4798
 2864TIP3    H130083   4.377   1.943  16.841 -0.5583  0.3469  0.7658
 2864TIP3    H230084   4.258   2.015  16.902 -1.2249  0.0794 -0.1860
 2865TIP3   OH230085   6.197   5.156  15.353  0.1801  0.4660  0.3408
 2865TIP3    H130086   6.210   5.251  15.347  1.8675  0.2291 -0.3364
 2865TIP3    H230087   6.221   5.123  15.267  0.5743 -0.6578  0.8564
 2866TIP3   OH230088   2.205   0.833   4.112  0.1162  0.6542  0.5874
 2866TIP3    H130089   2.295   0.858   4.131  0.4833 -0.5136  0.5016
 2866TIP3    H230090   2.211   0.780   4.033 -0.6906  0.8407  0.3898
 2867TIP3   OH230091   4.938   6.334  17.139  0.2444 -0.3028  0.1968
 2867TIP3    H130092   4.869   6.297  17.084  0.5958  0.1817 -0.5735
 2867TIP3    H230093   4.955   6.267  17.205  2.1563 -2.3692 -2.2067
 2868TIP3   OH230094   4.558   4.734   4.303  0.0673 -0.6318  0.2756
 2868TIP3    H130095   4.564   4.751   4.397 -1.2919 -0.8541  0.4263
 2868TIP3    H230096   4.642   4.763   4.267  1.1230 -1.7724  1.7370
 2869TIP3   OH230097   6.197   4.271   4.802  0.4386 -0.2744 -0.0615
 2869TIP3    H130098   6.164   4.346   4.851  1.4850  0.4428 -0.4273
 2869TIP3    H230099   6.134   4.259   4.731 -0.9426 -1.1528  1.2512
 2870TIP3   OH230100   5.452   3.499   1.384  0.2735 -0.7114  0.0591
 2870TIP3    H130101   5.404   3.518   1.465  0.7314 -1.6074  0.5578
 2870TIP3    H230102   5.425   3.410   1.361  2.6412 -1.8044  1.1048
 2871TIP3   OH230103   1.886   1.720  11.869 -0.0876 -0.1108  0.0143
 2871TIP3    H130104   1.878   1.809  11.905 -2.0101 -0.8681  1.6561
 2871TIP3    H230105   1.883   1.732  11.774 -2.7134  1.4403  0.1993
 2872TIP3   OH230106   5.377   3.354  15.122 -0.2748  0.2519 -0.0981
 2872TIP3    H130107   5.303   3.410  15.099 -0.3990  0.2604  0.3161
 2872TIP3    H230108   5.404   3.315  15.039 -0.4547  0.5975 -0.3237
 2873TIP3   OH230109   6.499   3.235   4.985  0.1561 -0.5022  0.2780
 2873TIP3    H130110   6.501   3.251   5.080 -0.9559 -1.3152  0.4717
 2873TIP3    H230111   6.491   3.322   4.946  0.9337 -0.1343  0.9098
 2874TIP3   OH230112   3.361   6.719   1.770 -0.4935 -0.2711  0.4467
 2874TIP3    H130113   3.367   6.624   1.762 -1.2419 -0.2391 -0.8208
 2874TIP3    H230114   3.267   6.738   1.769 -0.3346  0.5588 -0.5734
 2875TIP3   OH230115   0.276   3.462  11.069  0.6056 -0.0800 -0.0277
 2875TIP3    H130116   0.246   3.534  11.014 -0.8525 -0.2315  0.5383
 2875TIP3    H230117   0.233   3.384  11.033  0.8915 -0.4252  0.3679
 2876TIP3   OH230118   1.499   3.847   0.464 -0.5584  0.3488 -0.2665
 2876TIP3    H130119   1.511   3.753   0.481 -1.3537  0.4097  0.7404
 2876TIP3    H230120   1.553   3.864   0.386  1.1473 -0.5347  0.6517
 2877TIP3   OH230121   5.744   0.101   2.593  0.2707  0.4856 -0.8783
 2877TIP3    H130122   5.722   0.059   2.510  1.6945 -0.8647 -0.6118
 2877TIP3    H230123   5.763   0.192   2.569  0.0775  0.2657 -1.9353
 2878TIP3   OH230124   5.768   5.056  12.263  0.1839 -0.2168 -0.1178
 2878TIP3    H130125   5.817   5.034  12.184  0.1005 -0.0605 -0.2148
 2878TIP3    H230126   5.794   4.991  12.327  0.1238 -0.4472 -0.3267
 2879TIP3   OH230127   4.210   0.457   5.981  0.3545 -0.0780  0.0006
 2879TIP3    H130128   4.217   0.414   6.066 -0.4287  1.6963  1.0337
 2879TIP3    H230129   4.220   0.387   5.917 -0.6892 -1.7520  1.5709
 2880TIP3   OH230130   0.943   5.156   1.249 -0.1365 -0.1490  0.0973
 2880TIP3    H130131   0.950   5.187   1.339 -1.7711 -1.1955  0.6218
 2880TIP3    H230132   0.850   5.165   1.227 -0.1177 -1.7397 -0.7915
 2881TIP3   OH230133   1.470   1.205  17.118 -0.5352 -0.0694 -0.4946
 2881TIP3    H130134   1.497   1.113  17.122  0.7599  0.3037  0.0749
 2881TIP3    H230135   1.396   1.211  17.178  1.2568 -0.1774  1.8547
 2882TIP3   OH230136   1.275   5.010   0.023  0.0792 -0.4687  0.0121
 2882TIP3    H130137   1.306   4.960   0.099  1.8176 -1.3421 -1.1916
 2882TIP3    H230138   1.324   4.973  -0.051 -2.3416 -0.4001 -1.7397
 2883TIP3   OH230139   3.528   2.336  15.440  0.6236 -0.2323 -0.2418
 2883TIP3    H130140   3.615   2.346  15.403  1.3742 -1.5190  1.0696
 2883TIP3    H230141   3.468   2.349  15.366  1.9659 -0.8252 -1.4647
 2884TIP3   OH230142   2.441   6.720  16.741  0.0190 -0.4682 -0.0866
 2884TIP3    H130143   2.389   6.770  16.678  1.9358  0.7607 -0.7559
 2884TIP3    H230144   2.376   6.668  16.788 -2.1312  2.5431  0.6018
 2885TIP3   OH230145   4.666   2.423   1.321 -0.3861  0.8594 -0.3370
 2885TIP3    H130146   4.605   2.490   1.351 -1.3500  0.0523 -0.4478
 2885TIP3    H230147   4.618   2.341   1.328  1.5506 -0.1987  2.0823
 2886TIP3   OH230148   3.742   3.193  15.136  0.0466 -0.3949 -0.1138
 2886TIP3    H130149   3.649   3.171  15.137 -0.1944  0.5165  0.8678
 2886TIP3    H230150   3.764   3.205  15.229  0.6279  1.3463 -0.4311
 2887TIP3   OH230151   3.286   3.785  14.837  0.3209  0.8435 -0.1633
 2887TIP3    H130152   3.331   3.863  14.805  1.7344  0.5520  1.0005
 2887TIP3    H230153   3.347   3.713  14.820  0.0228  0.3303  0.8272
 2888TIP3   OH230154   5.472   2.956  11.550  0.1145  0.1285 -0.3511
 2888TIP3    H130155   5.450   3.037  11.596  0.5988  1.2565 -2.0122
 2888TIP3    H230156   5.508   2.899  11.618  0.2148  1.4843  0.7742
 2889TIP3   OH230157   6.099   3.421  13.045  0.7913  0.0980  0.1199
 2889TIP3    H130158   6.128   3.439  13.135  1.9312  0.0258 -0.2097
 2889TIP3    H230159   6.004   3.411  13.051  1.0454 -1.9264  1.6574
 2890TIP3   OH230160   3.101   5.610   1.453 -0.6041  0.7366 -0.6269
 2890TIP3    H130161   3.068   5.618   1.543 -1.3543  1.4119 -0.9507
 2890TIP3    H230162   3.165   5.681   1.445 -0.3738  0.5361 -0.5534
 2891TIP3   OH230163   3.625   1.263   5.940  0.3251  0.4030 -0.0798
 2891TIP3    H130164   3.624   1.186   5.996  1.9117  0.4676  0.0844
 2891TIP3    H230165   3.552   1.317   5.971 -2.2869 -1.9408 -1.6217
 2892TIP3   OH230166   2.888   3.961  15.364  0.5647  0.1446 -0.3489
 2892TIP3    H130167   2.849   3.945  15.450  0.5255 -0.3813 -0.4614
 2892TIP3    H230168   2.813   3.978  15.307  0.5918  0.5124 -0.2776
 2893TIP3   OH230169   1.546   0.952   3.655  0.2730 -0.1381  0.0888
 2893TIP3    H130170   1.578   0.883   3.714  0.8957 -0.2155 -0.3364
 2893TIP3    H230171   1.496   0.905   3.589 -2.9403  0.1626  2.1129
 2894TIP3   OH230172   2.942   6.028  11.247  0.3561  0.3317  0.2094
 2894TIP3    H130173   2.891   5.950  11.228  1.2527 -0.4709  1.0197
 2894TIP3    H230174   2.989   6.047  11.165 -1.0060  0.9319 -0.4590
 2895TIP3   OH230175   4.649   2.855   3.461 -0.4443 -0.4124  0.3589
 2895TIP3    H130176   4.640   2.771   3.504  1.4624 -0.9792 -0.2448
 2895TIP3    H230177   4.744   2.868   3.453 -0.7074  0.9531 -1.1182
 2896TIP3   OH230178   3.494   4.732  15.454  0.3950  0.1259 -0.4487
 2896TIP3    H130179   3.478   4.777  15.537  0.3443 -0.1193 -0.3239
 2896TIP3    H230180   3.578   4.767  15.424  0.9646 -0.6002  0.2589
 2897TIP3   OH230181   5.191   5.912   1.728 -0.6520  0.8207  0.0040
 2897TIP3    H130182   5.117   5.853   1.713 -0.6354  1.0986 -1.2780
 2897TIP3    H230183   5.158   5.977   1.789 -1.7107  1.3647 -1.1224
 2898TIP3   OH230184   5.208   4.137   4.875  0.0073 -0.4222  0.2584
 2898TIP3    H130185   5.234   4.073   4.941  0.7052  0.0173  0.4235
 2898TIP3    H230186   5.251   4.218   4.903 -1.4997  0.3385  0.5057
 2899TIP3   OH230187   6.785   1.358   2.877 -0.0380 -0.0617  0.0889
 2899TIP3    H130188   6.828   1.289   2.826 -0.1708  0.0512 -0.1753
 2899TIP3    H230189   6.745   1.415   2.812 -0.5883 -0.1592  0.3346
 2900TIP3   OH230190   0.561   6.222   0.150  0.2825 -0.2115 -0.0090
 2900TIP3    H130191   0.582   6.218   0.057 -0.3249  2.0048 -0.3064
 2900TIP3    H230192   0.632   6.176   0.193  1.4473  0.1306 -1.4879
 2901TIP3   OH230193   3.107   0.063   4.827 -0.2791  0.1279 -0.1556
 2901TIP3    H130194   3.170   0.128   4.795 -1.0866  0.9794 -0.0478
 2901TIP3    H230195   3.085   0.011   4.750  0.5370 -0.1752 -0.1972
 2902TIP3   OH230196   3.241   4.714   5.390  0.1959  0.4573  0.8956
 2902TIP3    H130197   3.207   4.666   5.466  0.6109  0.7415  1.2692
 2902TIP3    H230198   3.334   4.692   5.388  0.2424  0.6741  0.6353
 2903TIP3   OH230199   1.035   0.551  16.695  0.6391 -0.2016 -0.4378
 2903TIP3    H130200   1.043   0.503  16.613 -1.0971 -0.1117 -0.7052
 2903TIP3    H230201   0.953   0.519  16.734  1.1636  0.1278  1.0233
 2904TIP3   OH230202   0.416   5.966  16.071 -0.1410 -0.4444 -0.3042
 2904TIP3    H130203   0.445   5.927  16.153 -2.8273 -1.2002  0.4020
 2904TIP3    H230204   0.409   5.892  16.010 -1.7147 -0.5518 -0.0501
 2905TIP3   OH230205   0.514   4.023  12.151  0.5080 -0.3971 -0.1895
 2905TIP3    H130206   0.478   4.097  12.102  1.7423  0.7985  0.6338
 2905TIP3    H230207   0.437   3.971  12.176 -0.3035  0.0845 -1.5732
 2906TIP3   OH230208   0.746   4.988  11.868  0.2677  0.2506 -0.7002
 2906TIP3    H130209   0.831   5.015  11.903  0.0885  1.8075 -1.3491
 2906TIP3    H230210   0.688   4.988  11.945  0.6492  0.1176 -0.4090
 2907TIP3   OH230211   6.020   0.631  14.338 -0.4529 -0.0080 -0.1065
 2907TIP3    H130212   6.035   0.719  14.372 -2.5432  0.4893 -0.3545
 2907TIP3    H230213   5.943   0.600  14.385 -0.5194 -1.2119 -0.9700
 2908TIP3   OH230214   0.722   0.722   2.871  0.9602 -0.3015  0.2462
 2908TIP3    H130215   0.680   0.636   2.881  0.4264 -0.1016 -0.2331
 2908TIP3    H230216   0.810   0.702   2.839  0.8991 -0.6771  0.2993
 2909TIP3   OH230217   0.132   0.553  14.221  0.1840  0.4686  0.1288
 2909TIP3    H130218   0.125   0.459  14.201  0.5080 -0.1308  2.4604
 2909TIP3    H230219   0.226   0.569  14.225  0.2249  0.1177  2.5369
 2910TIP3   OH230220   0.284   4.372   2.449 -0.6130 -0.4150  0.8304
 2910TIP3    H130221   0.223   4.358   2.377  0.6369 -1.5235 -0.0654
 2910TIP3    H230222   0.365   4.331   2.420  1.0276  2.1952  1.3779
 2911TIP3   OH230223   4.143   5.040   0.338  0.1102  0.6170  0.6061
 2911TIP3    H130224   4.206   5.027   0.267  0.2606  0.6899  0.7245
 2911TIP3    H230225   4.190   5.011   0.416 -0.3154 -0.1836  0.5801
 2912TIP3   OH230226   3.988   3.419  16.383 -0.1377 -0.3508  0.1212
 2912TIP3    H130227   3.980   3.488  16.318  1.8327  0.3548  0.5701
 2912TIP3    H230228   3.955   3.458  16.464  3.8700  1.3771  1.1751
 2913TIP3   OH230229   1.927   4.463  11.327 -0.1938  0.2308  0.4225
 2913TIP3    H130230   2.021   4.481  11.333 -0.2566  0.7995 -0.2525
 2913TIP3    H230231   1.896   4.518  11.256 -1.5994  2.3933  2.5521
 2914TIP3   OH230232   2.082   1.068   4.209  0.6990  0.1200 -0.1741
 2914TIP3    H130233   2.050   1.113   4.131  0.0838  0.6262  0.3633
 2914TIP3    H230234   2.112   0.983   4.176 -0.1978  0.0539 -0.8606
 2915TIP3   OH230235   5.203   6.669   0.513 -0.0636  0.4622 -0.0690
 2915TIP3    H130236   5.206   6.679   0.608  3.4705  0.6538 -0.0573
 2915TIP3    H230237   5.232   6.753   0.479 -0.1289  0.0134 -1.2856
 2916TIP3   OH230238   3.703   1.267   0.761  0.1851 -0.2623 -0.1396
 2916TIP3    H130239   3.612   1.293   0.774 -0.3729 -2.5004  0.9263
 2916TIP3    H230240   3.738   1.254   0.849 -0.1230 -4.4218 -0.4031
 2917TIP3   OH230241   0.526   6.783  16.361 -0.0197  0.4963 -0.3176
 2917TIP3    H130242   0.581   6.753  16.434  1.0482  1.4150 -0.6997
 2917TIP3    H230243   0.562   6.870  16.339 -2.3176  1.6225  0.0969
 2918TIP3   OH230244   4.429   4.010   2.000 -0.1984  0.0523  0.2462
 2918TIP3    H130245   4.520   4.025   1.973 -0.2509 -0.0388  0.0231
 2918TIP3    H230246   4.413   4.078   2.066 -0.1137  0.3530 -0.0411
 2919TIP3   OH230247   2.049   3.382  14.917  0.8540  0.0182 -0.1669
 2919TIP3    H130248   2.008   3.315  14.972 -0.6645  1.2508  0.2683
 2919TIP3    H230249   2.139   3.389  14.951  0.5676 -0.7083  0.7863
 2920TIP3   OH230250   4.833   4.210  12.935 -0.1302  0.1729 -0.1469
 2920TIP3    H130251   4.803   4.300  12.948 -2.1347 -0.2707 -1.2451
 2920TIP3    H230252   4.907   4.218  12.875  0.9761  1.1854  1.2625
 2921TIP3   OH230253   2.864   3.756   1.993 -0.3949 -0.3981  1.2824
 2921TIP3    H130254   2.842   3.807   1.915 -1.5583 -0.2192  1.7001
 2921TIP3    H230255   2.899   3.674   1.958  0.6119  0.2939  0.5994
 2922TIP3   OH230256   1.828   3.185  14.488  0.0113 -0.4493  0.1640
 2922TIP3    H130257   1.882   3.177  14.567 -0.3303 -0.1630  0.4329
 2922TIP3    H230258   1.818   3.280  14.476  1.6010 -0.4265 -1.2865
 2923TIP3   OH230259   0.953   3.077   6.271 -0.0919 -0.0448 -0.5494
 2923TIP3    H130260   0.928   3.104   6.182  0.6035  0.9629 -0.4444
 2923TIP3    H230261   0.914   3.143   6.328 -0.0592 -0.3795 -0.1370
 2924TIP3   OH230262   6.389   1.110   4.504  0.0584 -0.7218  0.2736
 2924TIP3    H130263   6.326   1.059   4.554  0.1279  0.3559  1.4933
 2924TIP3    H230264   6.474   1.071   4.525  0.0898 -0.2582  1.0420
 2925TIP3   OH230265   0.610   4.003   2.767 -0.0946  0.8043  0.1548
 2925TIP3    H130266   0.519   4.004   2.736 -0.3797  0.6553  0.9623
 2925TIP3    H230267   0.640   3.914   2.752  0.3163  1.1490 -1.2026
 2926TIP3   OH230268   2.033   0.017   5.709 -0.1570 -0.2719 -0.1018
 2926TIP3    H130269   1.951  -0.002   5.663 -0.6610 -0.6788  0.9239
 2926TIP3    H230270   2.045  -0.057   5.768  0.4449  0.2562  0.4542
 2927TIP3   OH230271   1.547   5.414   4.128  0.3471  0.6539 -0.1767
 2927TIP3    H130272   1.622   5.445   4.180  0.9785 -3.8775  2.0995
 2927TIP3    H230273   1.586   5.375   4.050  0.2865 -0.5965  0.4035
 2928TIP3   OH230274   5.202   5.463  14.699 -0.9403 -0.8315  0.1200
 2928TIP3    H130275   5.108   5.473  14.684 -1.0867 -2.0438  0.1554
 2928TIP3    H230276   5.242   5.486  14.615 -1.1845  0.6499  0.3833
 2929TIP3   OH230277   3.925   3.480   1.470 -0.0166  0.5011  0.2519
 2929TIP3    H130278   3.973   3.514   1.394  0.4792  2.2056  1.2935
 2929TIP3    H230279   3.850   3.539   1.480 -0.2048  0.1526  0.9728
 2930TIP3   OH230280   3.865   6.618  11.744 -0.9075 -0.6571  0.3800
 2930TIP3    H130281   3.818   6.699  11.763 -1.3575 -0.3774 -1.6329
 2930TIP3    H230282   3.949   6.647  11.708 -0.8499 -1.0903  0.1568
 2931TIP3   OH230283   3.091   1.151   1.586  0.7428  0.0753  0.0992
 2931TIP3    H130284   3.066   1.060   1.603 -1.4103  0.4567 -0.7143
 2931TIP3    H230285   3.185   1.147   1.569  0.5740 -2.1062 -0.6187
 2932TIP3   OH230286   0.011   2.953   4.261  0.2200 -0.2131  0.1335
 2932TIP3    H130287  -0.078   2.937   4.229 -0.1273 -0.3787  1.1482
 2932TIP3    H230288   0.056   2.869   4.250 -0.6464 -1.0497  2.3986
 2933TIP3   OH230289   1.927   6.175  14.589  0.3186 -0.4783 -0.0122
 2933TIP3    H130290   1.891   6.259  14.560 -0.8854 -1.1129 -0.4261
 2933TIP3    H230291   1.889   6.163  14.677 -0.3539 -1.0541 -0.3689
 2934TIP3   OH230292   4.517   3.265   5.656  0.0194  0.6102  0.0444
 2934TIP3    H130293   4.509   3.170   5.641 -0.0494  0.5276  0.5689
 2934TIP3    H230294   4.510   3.304   5.569  1.4710  0.0479 -0.3438
 2935TIP3   OH230295   5.759   2.895   3.089  0.4089 -0.6409 -0.2533
 2935TIP3    H130296   5.679   2.898   3.037  0.1895  1.7357  0.1288
 2935TIP3    H230297   5.787   2.986   3.096  2.2824 -1.2524  0.9697
 2936TIP3   OH230298   6.315   3.872  10.678 -0.7567 -0.2217  0.1368
 2936TIP3    H130299   6.400   3.840  10.647  0.1249  0.2769  1.8959
 2936TIP3    H230300   6.275   3.795  10.720 -0.8238 -0.2601  0.0021
 2937TIP3   OH230301   6.520   6.094  17.191 -0.0600 -0.3648 -0.4121
 2937TIP3    H130302   6.429   6.097  17.164  0.1503 -1.2810 -1.2971
 2937TIP3    H230303   6.537   6.181  17.228 -1.7483 -0.7426  1.3844
 2938TIP3   OH230304   4.226   4.807  14.421 -0.7883 -0.0271 -0.4641
 2938TIP3    H130305   4.202   4.769  14.336 -0.0956  0.2410 -0.7887
 2938TIP3    H230306   4.212   4.737  14.484  0.4882 -0.8399 -1.0551
 2939TIP3   OH230307   1.274   3.369   2.278  0.1612 -0.1480  0.3306
 2939TIP3    H130308   1.297   3.365   2.371 -1.4197  1.6755  0.8650
 2939TIP3    H230309   1.229   3.453   2.268 -3.7502 -2.1672 -1.0952
 2940TIP3   OH230310   2.071   2.079   5.133  0.2239  0.2000  0.1450
 2940TIP3    H130311   2.043   1.991   5.108 -3.6592  0.9694  1.0040
 2940TIP3    H230312   2.113   2.068   5.219 -0.6127 -0.8154  0.4473
 2941TIP3   OH230313   0.812   0.001  15.389  0.3339 -0.2257 -0.1899
 2941TIP3    H130314   0.841  -0.090  15.394  2.7952  0.2644 -2.8809
 2941TIP3    H230315   0.800   0.028  15.480  1.0138 -2.7734  0.7306
 2942TIP3   OH230316   3.070   6.805   5.424  0.0692  0.7991  0.0562
 2942TIP3    H130317   3.165   6.795   5.412  0.0184 -0.4872  0.5778
 2942TIP3    H230318   3.032   6.762   5.347 -0.1042  0.9765  0.0427
 2943TIP3   OH230319   4.721   4.079   4.236  0.1839  0.1303  0.4903
 2943TIP3    H130320   4.723   4.169   4.267  0.8348  0.5621 -0.7731
 2943TIP3    H230321   4.634   4.047   4.262 -1.2103  2.0302 -1.5357
 2944TIP3   OH230322   3.531   6.332  10.594  0.0241 -0.6082 -0.2277
 2944TIP3    H130323   3.483   6.335  10.677  0.1012 -0.5475 -0.1851
 2944TIP3    H230324   3.497   6.407  10.544 -0.2967 -0.8693 -0.4018
 2945TIP3   OH230325   3.127   0.888   4.094 -0.3106  0.2606  0.0060
 2945TIP3    H130326   3.168   0.922   4.015  1.7000  1.3507  1.4429
 2945TIP3    H230327   3.181   0.814   4.120 -0.0083  0.8743  1.1922
 2946TIP3   OH230328   2.315   5.671   2.676 -0.3916 -0.0220 -0.1272
 2946TIP3    H130329   2.386   5.736   2.679  0.2782 -0.7352 -0.1990
 2946TIP3    H230330   2.343   5.609   2.609 -0.4960 -0.9898  0.7109
 2947TIP3   OH230331   2.457   3.047   3.465  0.1034  0.2871 -0.2181
 2947TIP3    H130332   2.449   3.032   3.371  0.2019 -0.4238 -0.1194
 2947TIP3    H230333   2.379   3.005   3.503  1.9399 -2.9353  0.3591
 2948TIP3   OH230334   1.369   6.223  12.469 -0.6720 -0.0873 -0.0652
 2948TIP3    H130335   1.383   6.172  12.390 -1.6888  0.6806 -0.7688
 2948TIP3    H230336   1.421   6.179  12.536  0.5451 -0.5133 -1.2467
 2949TIP3   OH230337   0.058   5.565  16.008 -0.8449 -0.0609 -0.3895
 2949TIP3    H130338   0.152   5.553  16.026 -0.3798  0.7251 -2.0016
 2949TIP3    H230339   0.029   5.481  15.973 -0.2555  0.2167 -1.6108
 2950TIP3   OH230340   2.169   3.721  14.048  0.5107 -0.1549  0.2428
 2950TIP3    H130341   2.255   3.747  14.014 -0.6280  3.0610 -0.5209
 2950TIP3    H230342   2.121   3.803  14.056 -2.2717 -1.7681  1.3818
 2951TIP3   OH230343   6.184   0.074   4.673  0.4360 -0.0826 -0.0009
 2951TIP3    H130344   6.119   0.132   4.632  2.5658  3.9551  1.7447
 2951TIP3    H230345   6.154   0.064   4.763  1.4372  0.5893  0.4220
 2952TIP3   OH230346   6.476   3.774  12.393 -0.2977 -0.3087  0.2892
 2952TIP3    H130347   6.443   3.846  12.338 -3.4056 -1.9278 -0.1720
 2952TIP3    H230348   6.513   3.712  12.331 -1.0984 -0.7973  0.2911
 2953TIP3   OH230349   2.441   3.259   4.389  0.2856 -0.9949  0.3224
 2953TIP3    H130350   2.365   3.300   4.430  0.2829 -1.3792  0.7134
 2953TIP3    H230351   2.420   3.166   4.387  0.6481 -1.0771  0.2187
 2954TIP3   OH230352   4.738   5.498   1.411 -0.3192  0.0727  0.1347
 2954TIP3    H130353   4.678   5.454   1.351  0.1358 -1.0600  0.4766
 2954TIP3    H230354   4.681   5.545   1.472 -0.8654 -0.6862  0.2290
 2955TIP3   OH230355   1.370   3.859  15.290  0.1813 -0.4969 -0.0806
 2955TIP3    H130356   1.395   3.892  15.376 -2.1461  0.1488  0.4084
 2955TIP3    H230357   1.281   3.892  15.276  0.3870 -0.7834 -2.6309
 2956TIP3   OH230358   6.551   0.566   2.288  0.0212 -0.1142 -0.1489
 2956TIP3    H130359   6.561   0.533   2.378 -1.1729  2.1822  0.8947
 2956TIP3    H230360   6.599   0.648   2.287  0.8325 -0.5715 -1.9438
 2957TIP3   OH230361   6.446   2.528   1.342 -0.3783  0.1460 -0.5585
 2957TIP3    H130362   6.476   2.557   1.428 -0.8483  0.6890 -0.5777
 2957TIP3    H230363   6.370   2.473   1.360 -0.2115 -0.1051 -0.6045
 2958TIP3   OH230364   2.966   0.629   4.456 -0.3269 -0.4507 -0.3030
 2958TIP3    H130365   3.046   0.618   4.406 -0.0288  1.2546 -0.2709
 2958TIP3    H230366   2.906   0.673   4.396  0.3218  2.4189  0.9654
 2959TIP3   OH230367   5.684   0.850   3.319 -0.4599 -0.4383  0.0072
 2959TIP3    H130368   5.642   0.764   3.326  0.3155 -0.9644 -1.2183
 2959TIP3    H230369   5.770   0.838   3.360  0.1569 -0.6561 -1.2876
 2960TIP3   OH230370   2.818   4.989   3.087  0.0424  0.5145 -0.0196
 2960TIP3    H130371   2.778   4.950   3.165  1.2865  1.5584  1.1956
 2960TIP3    H230372   2.764   5.066   3.069  0.9200  1.4231  1.0833
 2961TIP3   OH230373   0.584   5.423  12.465  0.1982 -0.4694 -0.4316
 2961TIP3    H130374   0.542   5.496  12.420  1.5528  0.2178 -0.6317
 2961TIP3    H230375   0.533   5.346  12.439 -0.5930  0.2590 -1.0763
 2962TIP3   OH230376   0.480   4.224   4.379 -0.2541  0.2405  0.1802
 2962TIP3    H130377   0.423   4.157   4.416 -0.6016 -0.3509 -1.3630
 2962TIP3    H230378   0.566   4.181   4.372  0.3224  0.9810  2.0660
 2963TIP3   OH230379   5.762   1.649   5.407  0.7795  0.1719  0.2081
 2963TIP3    H130380   5.831   1.586   5.427  0.2789 -0.1136  1.0877
 2963TIP3    H230381   5.691   1.627   5.467  1.1636  2.5378  1.6592
 2964TIP3   OH230382   0.484   5.682  15.067  0.4321  0.2256  0.3746
 2964TIP3    H130383   0.461   5.737  14.992  1.2061  0.0019 -0.0434
 2964TIP3    H230384   0.441   5.723  15.141  1.2209  1.5835  0.1163
 2965TIP3   OH230385   5.558   6.370   2.484  0.0393  0.0751 -0.5110
 2965TIP3    H130386   5.575   6.464   2.482 -0.5573  0.2322  0.7724
 2965TIP3    H230387   5.488   6.356   2.421 -0.7190  0.6915  0.1806
 2966TIP3   OH230388   1.335   5.545   2.251  0.5112  0.6011 -0.1461
 2966TIP3    H130389   1.295   5.632   2.242 -0.7154  0.0354 -0.3757
 2966TIP3    H230390   1.286   5.490   2.190 -0.3678 -0.8039  1.7367
 2967TIP3   OH230391   6.511   2.593  11.618 -0.1164 -0.4780 -0.1068
 2967TIP3    H130392   6.584   2.655  11.612 -1.5421  1.3603  0.4586
 2967TIP3    H230393   6.552   2.507  11.615  1.8784  0.4089 -2.5732
 2968TIP3   OH230394   1.407   5.792  16.929  0.5144  0.4420 -0.1472
 2968TIP3    H130395   1.380   5.776  16.838 -0.2968  1.4223 -0.1061
 2968TIP3    H230396   1.493   5.752  16.936  0.5059  0.1783 -1.2999
 2969TIP3   OH230397   6.629   0.479  17.121  0.1618 -0.2730 -0.0043
 2969TIP3    H130398   6.637   0.458  17.028 -3.0565  1.0348 -0.7442
 2969TIP3    H230399   6.621   0.394  17.164  0.0084 -0.8711 -1.1655
 2970TIP3   OH230400   1.857   5.989   1.964  0.1874  0.8823 -0.4351
 2970TIP3    H130401   1.901   5.983   2.050 -0.7918  0.0070  0.0184
 2970TIP3    H230402   1.854   6.083   1.946 -0.3797  1.1469  0.9208
 2971TIP3   OH230403   0.681   0.848  16.006 -0.2453  0.1040  0.2797
 2971TIP3    H130404   0.593   0.870  16.035  0.1386  1.3086  0.5719
 2971TIP3    H230405   0.724   0.812  16.083  0.2023  1.6041  0.7587
 2972TIP3   OH230406   4.152   4.751  16.461 -0.5696 -0.3547  0.1178
 2972TIP3    H130407   4.233   4.703  16.444 -0.1655  0.8054 -1.5056
 2972TIP3    H230408   4.083   4.697  16.424 -0.7444 -1.8840  2.4817
 2973TIP3   OH230409   3.999   4.687   5.536 -0.4800 -0.2018  0.3428
 2973TIP3    H130410   4.088   4.721   5.551  0.2769 -1.2116 -1.5198
 2973TIP3    H230411   3.971   4.731   5.456 -1.5366 -0.1970  0.7028
 2974TIP3   OH230412   6.623   3.644   5.322  0.3319  0.1766 -0.0116
 2974TIP3    H130413   6.676   3.606   5.392  2.2184 -0.7730 -1.8488
 2974TIP3    H230414   6.632   3.738   5.333 -1.0202  0.1200  2.1314
 2975TIP3   OH230415   1.733   3.832  13.500 -0.1508 -0.0846  0.1376
 2975TIP3    H130416   1.788   3.886  13.557 -0.6498  0.4059  0.1609
 2975TIP3    H230417   1.716   3.753  13.552 -0.2666  0.1824  0.5069
 2976TIP3   OH230418   3.605   4.568  13.710 -0.2548 -0.5563  0.2431
 2976TIP3    H130419   3.671   4.568  13.640 -0.9457  2.7506 -0.6064
 2976TIP3    H230420   3.651   4.604  13.786 -0.7878  0.9945 -0.1270
 2977TIP3   OH230421   2.755   4.127  10.974  0.4849 -0.2835  0.2414
 2977TIP3    H130422   2.710   4.164  10.898  0.4778  0.2710  0.5120
 2977TIP3    H230423   2.696   4.057  11.005  0.9468 -1.1742 -0.8398
 2978TIP3   OH230424   0.431   1.753   0.329  0.2290 -0.4373  0.2163
 2978TIP3    H130425   0.483   1.677   0.303 -0.5736 -1.3404  1.1763
 2978TIP3    H230426   0.342   1.731   0.301  0.1306  0.5415 -0.2755
 2979TIP3   OH230427   1.152   3.382   2.640  0.0690  0.4059 -0.6738
 2979TIP3    H130428   1.233   3.423   2.610 -0.2097  1.4475 -0.0495
 2979TIP3    H230429   1.148   3.401   2.733  0.8148 -2.5914  0.0730
 2980TIP3   OH230430   2.389   1.620  14.543 -0.0747  0.4638  0.2017
 2980TIP3    H130431   2.422   1.669  14.619  1.3425 -0.5210  0.2593
 2980TIP3    H230432   2.465   1.572  14.511 -1.3193 -1.4131 -0.0729
 2981TIP3   OH230433   2.110   4.160  15.867  0.6527 -0.0286 -0.4744
 2981TIP3    H130434   2.070   4.182  15.782  1.4976 -0.7746 -1.0819
 2981TIP3    H230435   2.203   4.178  15.855  0.5954  1.2429  0.7813
 2982TIP3   OH230436   3.030   6.481   5.921 -0.6059  0.1109 -0.7645
 2982TIP3    H130437   3.074   6.415   5.868  1.7441  0.7175  0.2942
 2982TIP3    H230438   3.071   6.474   6.007 -2.4745  0.9142  0.2632
 2983TIP3   OH230439   3.667   3.936  12.764 -0.3618 -0.4199  1.0638
 2983TIP3    H130440   3.621   3.855  12.745  1.1253 -0.6244 -2.4643
 2983TIP3    H230441   3.625   4.001  12.708  2.1832 -0.1885 -0.7354
 2984TIP3   OH230442   4.465   2.208   1.408  0.1726 -0.3899 -0.6969
 2984TIP3    H130443   4.484   2.211   1.314 -0.6731  1.5106 -0.8552
 2984TIP3    H230444   4.407   2.133   1.418 -0.8569  0.2001 -1.9443
 2985TIP3   OH230445   0.927   2.598  16.656 -0.0176 -0.0999  0.3615
 2985TIP3    H130446   1.015   2.619  16.627 -1.1778  0.9026 -2.8417
 2985TIP3    H230447   0.939   2.534  16.727  3.2337  0.6429  0.6260
 2986TIP3   OH230448   3.409   3.672   0.828  0.0632  0.1177 -0.0123
 2986TIP3    H130449   3.391   3.647   0.919 -0.8694  0.1709 -0.1751
 2986TIP3    H230450   3.354   3.749   0.813  0.1083  0.0241 -0.6709
 2987TIP3   OH230451   6.380   6.308  12.467 -0.1143  0.0885 -0.7776
 2987TIP3    H130452   6.327   6.332  12.543  0.5176  2.1890 -0.9465
 2987TIP3    H230453   6.320   6.315  12.392 -0.3707 -0.5687 -0.6363
 2988TIP3   OH230454   5.510   5.445  10.838  0.0010  0.2208  0.2279
 2988TIP3    H130455   5.532   5.352  10.842  0.5687  0.3001 -0.8446
 2988TIP3    H230456   5.424   5.451  10.880  0.1001 -0.7307  0.5930
 2989TIP3   OH230457   2.052   4.365  14.938  0.2728 -0.6305 -0.7149
 2989TIP3    H130458   2.137   4.385  14.978  0.1709 -0.4537 -0.5851
 2989TIP3    H230459   2.068   4.286  14.887  0.6875 -0.2084 -1.2538
 2990TIP3   OH230460   2.862   0.934  12.511  0.9011  0.4275 -0.1415
 2990TIP3    H130461   2.849   0.886  12.429  0.4642  0.5006 -0.1150
 2990TIP3    H230462   2.783   0.986  12.521  0.9508  0.4127  0.3358
 2991TIP3   OH230463   6.551   3.783  15.919 -0.2137 -0.3542 -0.2726
 2991TIP3    H130464   6.501   3.854  15.879 -1.8351 -1.0070  0.5089
 2991TIP3    H230465   6.527   3.785  16.012 -0.8440 -2.3052 -0.3385
 2992TIP3   OH230466   0.235   1.930  11.803 -0.3844 -0.0290 -0.0979
 2992TIP3    H130467   0.171   2.001  11.795  0.5103  0.6769 -1.4120
 2992TIP3    H230468   0.223   1.878  11.724  1.2505  0.6498 -0.8445
 2993TIP3   OH230469   4.537   2.223   0.373 -0.2526  0.1910  0.4537
 2993TIP3    H130470   4.628   2.195   0.379 -0.4976 -0.3059  2.3022
 2993TIP3    H230471   4.542   2.319   0.369  0.3846  0.1298 -1.3775
 2994TIP3   OH230472   1.348   2.251   5.681  0.1067 -0.3034 -0.3385
 2994TIP3    H130473   1.267   2.246   5.732  0.8727 -1.1702  0.8413
 2994TIP3    H230474   1.416   2.264   5.747  0.8702  1.1677 -1.3710
 2995TIP3   OH230475   1.257   4.338   2.996  0.2047 -0.5048 -0.6654
 2995TIP3    H130476   1.343   4.314   3.032  0.0649 -0.2262 -0.1383
 2995TIP3    H230477   1.198   4.335   3.071 -0.2928 -0.8863 -1.0647
 2996TIP3   OH230478   1.460   0.309   0.541  0.3348  0.2808 -0.3766
 2996TIP3    H130479   1.426   0.397   0.522 -1.4699  0.0650  1.4773
 2996TIP3    H230480   1.554   0.317   0.530  0.1680  2.2944 -0.8081
 2997TIP3   OH230481   5.877   0.839   2.938 -0.4013 -0.0083 -0.4245
 2997TIP3    H130482   5.837   0.845   2.851 -0.2986  1.3560 -0.3944
 2997TIP3    H230483   5.955   0.785   2.925  0.4968  1.4843 -1.5280
 2998TIP3   OH230484   0.097   4.217  14.554  0.3528 -0.1740 -0.2204
 2998TIP3    H130485   0.044   4.250  14.482  1.0084 -0.5215 -0.8776
 2998TIP3    H230486   0.096   4.122  14.544 -0.1971 -0.2863  0.7090
 2999TIP3   OH230487   0.720   1.594   0.389  0.1225 -0.5004 -0.2371
 2999TIP3    H130488   0.632   1.556   0.400 -0.1437 -0.1263 -1.0537
 2999TIP3    H230489   0.769   1.561   0.465 -1.5561  1.6988  1.9751
 3000TIP3   OH230490   3.376   5.954  13.531  0.3930  0.5147  0.3840
 3000TIP3    H130491   3.455   5.915  13.492  0.6328  0.9673  0.4111
 3000TIP3    H230492   3.304   5.902  13.495  0.6483  0.5826 -0.2472
 3001TIP3   OH230493   5.448   0.749  13.094 -0.0288  0.4854  0.2368
 3001TIP3    H130494   5.386   0.801  13.044  0.6950 -0.1568 -1.4169
 3001TIP3    H230495   5.421   0.760  13.185 -3.8949 -1.3945 -0.4636
 3002TIP3   OH230496   3.081   0.866  15.174 -0.2230 -0.3526  0.1099
 3002TIP3    H130497   3.045   0.784  15.208 -1.7209  0.9555  1.8543
 3002TIP3    H230498   3.137   0.899  15.243 -0.8719  0.8403  0.0981
 3003TIP3   OH230499   1.790   1.604   6.526 -0.2807 -0.0474 -0.3899
 3003TIP3    H130500   1.843   1.553   6.465 -1.1102 -1.1702 -0.2060
 3003TIP3    H230501   1.757   1.539   6.589  0.5534  1.0755  1.2571
 3004TIP3   OH230502   1.979   1.697  10.897 -0.4700  0.0177 -0.0571
 3004TIP3    H130503   1.980   1.689  10.802 -1.1561  1.0969 -0.1731
 3004TIP3    H230504   1.985   1.791  10.914 -2.1735  0.0029  0.9044
 3005TIP3   OH230505   1.058   3.811   2.420  0.4378 -0.2557 -0.0148
 3005TIP3    H130506   0.985   3.754   2.443 -0.0296 -0.1782 -1.2243
 3005TIP3    H230507   1.019   3.878   2.364  1.2090  0.5294  0.3580
 3006TIP3   OH230508   5.616   2.769  16.790  0.0128  0.3989  0.0772
 3006TIP3    H130509   5.539   2.712  16.782 -0.6939  1.3572 -0.0518
 3006TIP3    H230510   5.583   2.857  16.773  1.4752  0.6492 -1.7846
 3007TIP3   OH230511   3.145   6.304   0.223 -0.1105  0.7423  0.0457
 3007TIP3    H130512   3.167   6.253   0.145 -0.6928  0.4584  0.0598
 3007TIP3    H230513   3.182   6.254   0.296  0.6605  1.1428 -0.0658
 3008TIP3   OH230514   5.216   6.515  15.708 -0.0944  0.5578  0.5466
 3008TIP3    H130515   5.153   6.459  15.754  1.2213 -1.7917 -0.3462
 3008TIP3    H230516   5.164   6.558  15.640 -0.8693 -0.8945  0.1844
 3009TIP3   OH230517   0.481   1.836  15.104 -0.0153 -0.2837 -0.0920
 3009TIP3    H130518   0.488   1.805  15.195 -1.7902 -0.4986  0.0002
 3009TIP3    H230519   0.395   1.808  15.076  1.6460 -3.1795 -3.0112
 3010TIP3   OH230520   0.257   5.487   0.753 -0.1574  0.1307  0.3783
 3010TIP3    H130521   0.307   5.501   0.673  0.4758  0.8835  0.8979
 3010TIP3    H230522   0.235   5.575   0.784  0.6390 -0.0957  1.6781
 3011TIP3   OH230523   6.007   4.161  11.761 -0.4678  0.0033 -0.0415
 3011TIP3    H130524   6.036   4.173  11.670 -1.5328  1.8639 -0.1904
 3011TIP3    H230525   6.017   4.067  11.777  0.6216 -0.2252 -1.7660
 3012TIP3   OH230526   2.520   3.603  15.289 -0.0035 -0.0766 -0.1891
 3012TIP3    H130527   2.439   3.604  15.238 -0.2441 -0.9320  0.1575
 3012TIP3    H230528   2.581   3.656  15.238 -1.0018  1.2372 -0.0700
 3013TIP3   OH230529   0.404   1.952  15.576 -0.2450 -0.0714  0.2115
 3013TIP3    H130530   0.447   1.931  15.659 -0.0085 -0.9124 -0.1150
 3013TIP3    H230531   0.465   2.011  15.532  0.2709 -0.7233  0.0419
 3014TIP3   OH230532   0.578   2.970   4.490  0.0973 -0.5539 -0.2008
 3014TIP3    H130533   0.583   2.938   4.400 -1.0819 -0.4410 -0.3334
 3014TIP3    H230534   0.488   2.950   4.517  0.3236 -0.2529  0.8261
 3015TIP3   OH230535   3.392   0.052   1.284 -0.3144  0.0279 -0.3572
 3015TIP3    H130536   3.449   0.079   1.212  0.0870  1.2891  0.4063
 3015TIP3    H230537   3.434  -0.028   1.318 -0.2400 -0.3013 -1.2037
 3016TIP3   OH230538   3.707   2.064  16.310 -0.0124  0.1006 -0.1968
 3016TIP3    H130539   3.684   2.016  16.230  1.5096 -0.9609 -0.0426
 3016TIP3    H230540   3.726   2.153  16.280  0.9033 -0.3787 -1.1075
 3017TIP3   OH230541   4.117   3.773   2.769 -0.2425 -0.2103  0.3124
 3017TIP3    H130542   4.144   3.705   2.708 -1.0270 -0.5997  0.3916
 3017TIP3    H230543   4.071   3.837   2.715  1.8543  1.1089 -0.0512
 3018TIP3   OH230544   1.125   5.559  13.049 -0.4701  0.0617  0.2008
 3018TIP3    H130545   1.072   5.549  12.970  0.1707 -0.1178 -0.2098
 3018TIP3    H230546   1.211   5.584  13.017 -0.3151  0.3850  0.8684
 3019TIP3   OH230547   4.543   1.808  13.914  0.0674 -0.1540  0.1375
 3019TIP3    H130548   4.525   1.866  13.840 -0.5696 -1.6714 -0.9477
 3019TIP3    H230549   4.584   1.731  13.875 -0.4846 -1.0940  1.3441
 3020TIP3   OH230550   6.100   4.703   0.440 -0.2804  0.5612  0.6903
 3020TIP3    H130551   6.194   4.709   0.456 -0.2714  2.4275  0.2149
 3020TIP3    H230552   6.090   4.728   0.348 -0.8897 -3.7732 -0.6350
 3021TIP3   OH230553   0.458   2.489   5.585 -0.0300  0.2741 -0.4164
 3021TIP3    H130554   0.394   2.467   5.518  1.4500  0.4624 -1.9575
 3021TIP3    H230555   0.436   2.578   5.612 -1.1854 -0.1374  0.0337
 3022TIP3   OH230556   0.242   1.283   3.588 -0.0847  0.2177 -0.5581
 3022TIP3    H130557   0.178   1.330   3.534  0.0771 -1.2733 -2.1564
 3022TIP3    H230558   0.229   1.317   3.676 -3.3716 -0.2786 -0.7259
 3023TIP3   OH230559   0.678   0.825   4.114 -0.7102 -0.2809 -0.2287
 3023TIP3    H130560   0.604   0.884   4.101 -1.8162 -1.6807 -0.5329
 3023TIP3    H230561   0.673   0.764   4.040  2.0036  0.8237 -1.4347
 3024TIP3   OH230562   2.797   1.051  14.034 -0.0248  0.1962 -0.0635
 3024TIP3    H130563   2.802   1.008  14.119  0.6693  0.0186 -0.1943
 3024TIP3    H230564   2.840   0.991  13.974 -1.3632 -0.1295 -0.7259
 3025TIP3   OH230565   2.347   0.390   3.443  0.1936  0.5844  0.0335
 3025TIP3    H130566   2.422   0.332   3.448  2.1091  2.9885  2.0558
 3025TIP3    H230567   2.286   0.356   3.508 -0.4710 -1.2586 -1.4710
 3026TIP3   OH230568   5.640   0.454   2.029  0.0741 -0.3871  0.6217
 3026TIP3    H130569   5.703   0.382   2.035  0.4628  0.0330  1.9344
 3026TIP3    H230570   5.629   0.484   2.119 -3.7955 -1.9096  0.8646
 3027TIP3   OH230571   2.643   5.115   3.828 -0.0913 -0.0944 -0.0108
 3027TIP3    H130572   2.735   5.092   3.814  0.1194 -1.0478  2.4560
 3027TIP3    H230573   2.595   5.053   3.773  0.7018 -1.5479  0.8644
 3028TIP3   OH230574   6.129   0.751   0.182  0.3002  0.0567  0.2293
 3028TIP3    H130575   6.167   0.776   0.266  1.0953  0.5645 -0.2557
 3028TIP3    H230576   6.042   0.719   0.202  0.5481  0.0094  1.2624
 3029TIP3   OH230577   2.272   0.874  11.074  0.1071  0.1926  0.0809
 3029TIP3    H130578   2.221   0.948  11.039  1.6592  1.2457 -0.0588
 3029TIP3    H230579   2.348   0.868  11.016  0.7344 -0.5908  0.9597
 3030TIP3   OH230580   5.654   2.755   5.446  0.4183 -0.0535 -0.2900
 3030TIP3    H130581   5.588   2.719   5.386  0.6587 -0.4936 -0.2910
 3030TIP3    H230582   5.637   2.710   5.529  0.7941 -0.2541 -0.3228
 3031TIP3   OH230583   1.974   1.238  14.500  0.5524  0.1794 -0.3197
 3031TIP3    H130584   2.004   1.269  14.586  0.8221  0.2735 -0.4460
 3031TIP3    H230585   2.013   1.151  14.491  0.2254  0.0184 -0.1911
 3032TIP3   OH230586   2.615   0.332   1.764  0.0778 -0.1779  0.3188
 3032TIP3    H130587   2.560   0.392   1.714  0.2572 -0.6003 -0.4132
 3032TIP3    H230588   2.686   0.386   1.797 -0.5158  0.2788  0.8697
 3033TIP3   OH230589   2.781   3.956  16.847 -0.1395 -0.1354  0.2883
 3033TIP3    H130590   2.724   3.884  16.876  2.0644 -1.3914  1.8283
 3033TIP3    H230591   2.845   3.966  16.918  2.1565  0.5070 -1.7392
 3034TIP3   OH230592   3.366   2.007  12.361  0.7544 -0.3068  0.3042
 3034TIP3    H130593   3.314   2.035  12.436  0.1276 -0.6325 -0.0047
 3034TIP3    H230594   3.438   2.071  12.357 -0.3997  1.0128 -0.1287
 3035TIP3   OH230595   0.990   4.606   4.230 -0.0705 -0.3581 -0.6541
 3035TIP3    H130596   0.988   4.694   4.192  2.4075  0.7505  1.4728
 3035TIP3    H230597   1.054   4.558   4.176  2.8084  0.9609  1.3306
 3036TIP3   OH230598   5.142   1.672  13.957  0.5900 -0.3078  0.5414
 3036TIP3    H130599   5.060   1.623  13.960  0.6267 -0.4525 -0.4859
 3036TIP3    H230600   5.117   1.763  13.972  0.0857 -0.2069 -0.7674
 3037TIP3   OH230601   3.291   2.051   5.614  0.5530  0.1801  0.2401
 3037TIP3    H130602   3.290   2.065   5.519  1.9779  0.1991  0.2049
 3037TIP3    H230603   3.360   1.986   5.627 -1.9634 -2.5112  0.9626
 3038TIP3   OH230604   4.128   6.650  16.669 -0.1257  0.0002  0.5224
 3038TIP3    H130605   4.131   6.639  16.574 -0.0691 -0.1559  0.5419
 3038TIP3    H230606   4.149   6.564  16.704 -3.3076 -0.8454  0.6732
 3039TIP3   OH230607   1.986   1.087   5.223 -0.2893  0.5458 -0.2749
 3039TIP3    H130608   1.983   1.086   5.319  0.5016 -3.7479 -0.0750
 3039TIP3    H230609   1.915   1.145   5.197 -0.7245  1.6188  2.8784
 3040TIP3   OH230610   0.237   5.026  14.439  0.6963 -0.0980 -1.1536
 3040TIP3    H130611   0.265   4.935  14.427  0.2223 -0.4667  0.2574
 3040TIP3    H230612   0.200   5.051  14.355  0.8058 -1.2298 -1.5580
 3041TIP3   OH230613   2.540   5.232  13.385 -0.1461 -0.0743  0.5753
 3041TIP3    H130614   2.628   5.237  13.346 -0.5292  1.2085 -0.1942
 3041TIP3    H230615   2.520   5.322  13.410 -1.5672 -0.2054 -0.0120
 3042TIP3   OH230616   5.442   4.372  11.453 -0.2512  0.5672 -0.0055
 3042TIP3    H130617   5.456   4.461  11.484 -0.5872  1.2977 -1.8488
 3042TIP3    H230618   5.521   4.351  11.403  0.2491 -0.5624  1.1681
 3043TIP3   OH230619   2.302   0.854  13.053  0.4693  0.4884  0.5856
 3043TIP3    H130620   2.340   0.894  12.974 -3.2654  0.4112 -1.4402
 3043TIP3    H230621   2.247   0.922  13.090 -1.7369 -0.9972  0.1843
 3044TIP3   OH230622   3.756   2.728   0.436  0.6065 -0.5617 -0.5367
 3044TIP3    H130623   3.834   2.675   0.424  0.7654 -0.6317  0.6747
 3044TIP3    H230624   3.765   2.799   0.372  3.3954  1.3864  1.7615
 3045TIP3   OH230625   4.731   6.427   4.492 -0.5702 -0.4035  0.6305
 3045TIP3    H130626   4.646   6.471   4.494  0.0872  0.8993  0.4533
 3045TIP3    H230627   4.742   6.399   4.401 -0.2185  0.6390  0.3396
 3046TIP3   OH230628   3.445   5.917  16.922  0.5350 -0.3285  0.7915
 3046TIP3    H130629   3.362   5.964  16.910 -0.6337 -2.3769  0.2629
 3046TIP3    H230630   3.454   5.907  17.016  1.4330  1.9255  0.9940
 3047TIP3   OH230631   6.433   4.282   6.100  0.1812  0.1104 -0.2990
 3047TIP3    H130632   6.371   4.241   6.039 -0.7596 -1.0742  1.3990
 3047TIP3    H230633   6.393   4.272   6.186  2.2209  0.3431  0.7278
 3048TIP3   OH230634   3.158   2.298   5.899  0.1250 -0.8063  0.4467
 3048TIP3    H130635   3.163   2.389   5.872 -1.4353 -0.7143  0.3728
 3048TIP3    H230636   3.226   2.254   5.849 -0.2599  0.0161 -0.8387
 3049TIP3   OH230637   1.051   3.606   1.222 -0.2892  0.0148 -0.0604
 3049TIP3    H130638   1.084   3.694   1.204  0.7173 -0.3091  0.1379
 3049TIP3    H230639   1.048   3.563   1.136 -2.6143  0.8245 -0.4413
 3050TIP3   OH230640   3.427   1.477  14.544 -0.3681  0.0465  0.0590
 3050TIP3    H130641   3.424   1.560  14.593 -1.7225  0.0411  0.0406
 3050TIP3    H230642   3.481   1.497  14.467 -1.8014  1.3677 -0.6757
 3051TIP3   OH230643   6.282   2.838  14.418  0.2161 -0.7573  0.3620
 3051TIP3    H130644   6.190   2.814  14.407 -0.8723  0.7454  4.3082
 3051TIP3    H230645   6.290   2.925  14.378 -0.2721 -0.6410  0.5130
 3052TIP3   OH230646   2.660   6.494   1.808 -0.9652 -0.0843  0.7687
 3052TIP3    H130647   2.617   6.575   1.782  0.2080  0.2270 -0.2493
 3052TIP3    H230648   2.612   6.425   1.762 -0.0549  0.3093 -0.8148
 3053TIP3   OH230649   6.432   0.025  15.592  0.2741 -0.5150 -0.0815
 3053TIP3    H130650   6.517   0.026  15.548  0.6663 -1.4419  0.6194
 3053TIP3    H230651   6.412  -0.068  15.606 -0.0930 -0.2776  1.1649
 3054TIP3   OH230652   4.103   3.722   5.273 -0.7615 -0.3956  0.2732
 3054TIP3    H130653   4.135   3.636   5.300 -0.2064 -0.0672  0.6849
 3054TIP3    H230654   4.120   3.726   5.179 -0.0279 -0.4251  0.3972
 3055TIP3   OH230655   6.250   4.472  12.144 -0.1215  0.1689 -0.0102
 3055TIP3    H130656   6.231   4.547  12.087  2.9303  1.3536  0.3386
 3055TIP3    H230657   6.180   4.409  12.124 -0.8007  1.6565 -2.9622
 3056TIP3   OH230658   4.341   3.180  11.228 -0.4239  0.4233  0.9743
 3056TIP3    H130659   4.415   3.165  11.168 -0.4266  1.6684  0.6172
 3056TIP3    H230660   4.285   3.103  11.218  0.1818  0.0663  0.2641
 3057TIP3   OH230661   0.111   3.931   1.257  0.7062 -0.3256 -0.5161
 3057TIP3    H130662   0.026   3.951   1.295  1.4190  0.7673  0.5883
 3057TIP3    H230663   0.156   3.880   1.323  2.0926  1.8966  0.3907
 3058TIP3   OH230664   2.567   1.862   2.192  0.1111 -0.1092 -0.4187
 3058TIP3    H130665   2.629   1.810   2.244  1.2690  0.3242 -1.3193
 3058TIP3    H230666   2.521   1.915   2.257  2.0804  0.9930  0.1804
 3059TIP3   OH230667   1.136   1.015  17.182  0.4910  0.0845  0.2106
 3059TIP3    H130668   1.042   1.029  17.169  0.9384  1.6063 -2.0135
 3059TIP3    H230669   1.154   1.054  17.268 -1.2877 -2.7386  2.0205
 3060TIP3   OH230670   4.460   6.587  11.577  0.5159 -0.1531 -0.1509
 3060TIP3    H130671   4.545   6.555  11.607  1.0465  0.8256 -0.5503
 3060TIP3    H230672   4.456   6.677  11.609  1.3519  1.1482 -3.3807
 3061TIP3   OH230673   4.523   2.595  10.325 -0.8993  0.0154 -0.0146
 3061TIP3    H130674   4.518   2.508  10.366 -4.0260  0.1492  0.1787
 3061TIP3    H230675   4.592   2.640  10.373 -0.1811 -1.8746  0.8505
 3062TIP3   OH230676   6.018   0.306   1.645  0.7233 -0.1819  0.2526
 3062TIP3    H130677   5.984   0.377   1.700 -1.5863 -0.3992 -0.7726
 3062TIP3    H230678   6.100   0.341   1.609 -0.3480  2.0097 -0.2415
 3063TIP3   OH230679   4.472   1.174   5.941 -0.4258  0.1973  0.5525
 3063TIP3    H130680   4.543   1.138   5.887 -1.7465 -0.0746 -1.0933
 3063TIP3    H230681   4.483   1.269   5.934 -0.2814  0.1587  0.1991
 3064TIP3   OH230682   4.012   0.387  16.771 -0.2510 -0.5732 -0.1922
 3064TIP3    H130683   4.065   0.307  16.773 -0.5352 -0.7384  1.2503
 3064TIP3    H230684   4.076   0.458  16.761  0.1792 -0.8377  0.5873
 3065TIP3   OH230685   5.965   1.960   3.448  0.0645  0.4379 -0.2160
 3065TIP3    H130686   5.870   1.959   3.460  0.2414  0.6515  1.3985
 3065TIP3    H230687   6.000   1.950   3.537  1.5486  3.1901 -0.3990
 3066TIP3   OH230688   1.968   3.571  12.491 -0.0526 -0.2326 -0.1217
 3066TIP3    H130689   1.885   3.569  12.538  0.5304 -1.5599  0.9081
 3066TIP3    H230690   1.981   3.481  12.460  0.4761  0.2058 -1.2426
 3067TIP3   OH230691   3.346   5.668  14.474  0.1107  0.0418  0.1175
 3067TIP3    H130692   3.354   5.573  14.487  0.0545  0.1422  0.9368
 3067TIP3    H230693   3.323   5.702  14.561 -0.1582  0.7742 -0.2365
 3068TIP3   OH230694   4.752   2.233   0.694  0.0927 -0.5583 -0.1204
 3068TIP3    H130695   4.771   2.323   0.720 -0.6725 -0.8456  1.6078
 3068TIP3    H230696   4.759   2.233   0.599  0.5385  1.2213 -0.1160
 3069TIP3   OH230697   3.630   3.023   2.827  0.0226  0.0107  0.3554
 3069TIP3    H130698   3.637   3.042   2.734  1.2889 -0.6148  0.2935
 3069TIP3    H230699   3.667   2.935   2.836 -1.4736 -0.5608  1.2515
 3070TIP3   OH230700   3.451   0.456  11.225  0.1852 -0.3070 -0.4316
 3070TIP3    H130701   3.496   0.540  11.219  0.1827 -0.2147  0.7180
 3070TIP3    H230702   3.430   0.434  11.134  0.1375  0.9537 -0.7507
 3071TIP3   OH230703   2.202   4.590   0.404  0.4071 -0.7147 -0.4865
 3071TIP3    H130704   2.146   4.650   0.355 -1.0020 -0.7771  0.9429
 3071TIP3    H230705   2.290   4.627   0.395  0.0758 -0.2661 -2.2874
 3072TIP3   OH230706   1.917   2.715   0.694 -0.3820 -0.2568  0.0079
 3072TIP3    H130707   1.965   2.633   0.706  0.3457 -0.2434 -2.3061
 3072TIP3    H230708   1.903   2.721   0.600  0.4329  2.7554 -0.0204
 3073TIP3   OH230709   4.569   3.549   1.988 -0.0601 -0.0430 -0.2331
 3073TIP3    H130710   4.623   3.543   2.067 -0.2014 -0.2478 -0.1522
 3073TIP3    H230711   4.627   3.585   1.921  0.0478  0.1715 -0.0235
 3074TIP3   OH230712   3.952   0.912   5.374  0.5900 -0.0134  0.7545
 3074TIP3    H130713   3.905   0.955   5.445 -0.4089  0.6109 -0.2445
 3074TIP3    H230714   3.965   0.822   5.404 -1.9973 -0.4619  0.7638
 3075TIP3   OH230715   3.268   3.337   4.720  0.0456 -0.3814  0.4841
 3075TIP3    H130716   3.274   3.425   4.683  1.2612  0.1960  1.9120
 3075TIP3    H230717   3.339   3.288   4.678  0.6114 -0.0950  1.0833
 3076TIP3   OH230718   4.433   2.091  16.342 -0.3335  0.0343  0.0189
 3076TIP3    H130719   4.433   2.002  16.379  1.2048  0.0403  0.1072
 3076TIP3    H230720   4.432   2.149  16.418 -1.4560  0.1110 -0.0407
 3077TIP3   OH230721   5.091   6.804  16.794  0.4896  0.5539 -0.3026
 3077TIP3    H130722   5.167   6.766  16.838  0.2854 -0.7125 -0.9955
 3077TIP3    H230723   5.059   6.870  16.856  1.2541  0.0537  0.6672
 3078TIP3   OH230724   4.395   3.637  16.770 -0.4345  0.1446  0.1966
 3078TIP3    H130725   4.474   3.592  16.801  0.5344  0.8090 -1.2287
 3078TIP3    H230726   4.384   3.609  16.680 -1.3043  0.7859  0.0850
 3079TIP3   OH230727   1.548   6.464  16.670  0.2672 -0.1206 -0.5226
 3079TIP3    H130728   1.457   6.440  16.686 -0.0737  0.9297 -0.8095
 3079TIP3    H230729   1.551   6.486  16.577  1.1840 -1.6820 -0.8931
 3080TIP3   OH230730   6.289   5.550   2.967  0.0863  0.2109  0.7166
 3080TIP3    H130731   6.294   5.592   2.881 -1.9147 -1.1207 -0.1357
 3080TIP3    H230732   6.307   5.620   3.030 -1.6819  2.0432 -0.6849
 3081TIP3   OH230733   4.516   1.585  16.190 -0.3484  0.3825  0.3447
 3081TIP3    H130734   4.481   1.497  16.183 -3.8079  1.4584  2.0559
 3081TIP3    H230735   4.510   1.621  16.101  1.3881 -1.0932 -0.4294
 3082TIP3   OH230736   3.971   1.385  17.103 -0.0289  0.1154  0.1220
 3082TIP3    H130737   4.011   1.365  17.187  0.6880 -1.1510 -0.4807
 3082TIP3    H230738   3.968   1.480  17.099  0.2407  0.1926  1.4224
 3083TIP3   OH230739   2.813   3.582  11.983  0.1752 -0.8116  0.6831
 3083TIP3    H130740   2.755   3.603  12.057 -1.6058 -1.1481 -0.5356
 3083TIP3    H230741   2.784   3.495  11.956 -0.7548  0.1698 -1.7473
 3084TIP3   OH230742   4.811   3.356  15.655  0.2024  0.2860  0.4849
 3084TIP3    H130743   4.773   3.400  15.579  1.4427 -0.8423 -0.8403
 3084TIP3    H230744   4.901   3.387  15.658  0.1434  0.3999  1.5922
 3085TIP3   OH230745   6.527   0.620   6.429 -0.2957  0.0238 -0.2717
 3085TIP3    H130746   6.540   0.702   6.381 -2.6717  2.2538  2.5934
 3085TIP3    H230747   6.451   0.580   6.388 -0.3370  0.2449 -0.4120
 3086TIP3   OH230748   5.656   4.856  11.424 -0.0379 -0.2198 -0.0334
 3086TIP3    H130749   5.569   4.840  11.460 -0.0005  2.0014  1.1893
 3086TIP3    H230750   5.715   4.807  11.481 -0.3561 -0.3535  0.1836
 3087TIP3   OH230751   6.060   4.825   0.782  0.1894 -0.6607 -0.1516
 3087TIP3    H130752   6.089   4.734   0.786  1.3958 -0.2502  2.3866
 3087TIP3    H230753   6.007   4.837   0.861  0.4270  0.9712 -0.2001
 3088TIP3   OH230754   2.960   4.571  12.958 -0.3626 -0.5255  0.2276
 3088TIP3    H130755   3.021   4.638  12.926 -1.9035  0.1529 -1.4661
 3088TIP3    H230756   2.992   4.490  12.920 -0.8153 -0.0790 -1.1794
 3089TIP3   OH230757   0.339   6.235  13.804 -0.1572  0.1641  0.2138
 3089TIP3    H130758   0.306   6.230  13.714  0.9196  1.4309 -0.2877
 3089TIP3    H230759   0.420   6.184  13.803 -0.8759 -1.0237  0.8538
 3090TIP3   OH230760   0.213   6.379  14.282 -0.1190  0.0098  0.0008
 3090TIP3    H130761   0.259   6.349  14.203  1.5023 -0.1486  0.9714
 3090TIP3    H230762   0.216   6.304  14.341  0.1826  0.6710  0.8417
 3091TIP3   OH230763   6.582   0.199  17.183 -0.3697  0.0352  0.1584
 3091TIP3    H130764   6.654   0.214  17.244  0.7844 -1.5956 -0.7333
 3091TIP3    H230765   6.549   0.111  17.205 -1.5252  0.3995 -0.0228
 3092TIP3   OH230766   4.918   5.506  14.784  0.2044 -0.2932 -0.2336
 3092TIP3    H130767   4.950   5.416  14.776  1.4808  0.2838 -2.5910
 3092TIP3    H230768   4.826   5.500  14.757  0.6283 -0.7429 -1.6888
 3093TIP3   OH230769   4.330   1.278   4.077 -0.4378  0.0494  0.6811
 3093TIP3    H130770   4.259   1.225   4.042  0.8204 -0.3938 -1.3373
 3093TIP3    H230771   4.291   1.365   4.088 -1.7876 -0.6194  1.4948
 3094TIP3   OH230772   1.209   3.929   0.897  0.6722 -0.0523  0.0191
 3094TIP3    H130773   1.170   4.016   0.904  1.3436  0.2131  0.6505
 3094TIP3    H230774   1.245   3.925   0.808  2.3137  1.0673  0.5748
 3095TIP3   OH230775   3.572   5.342  12.474 -1.2277  0.3825 -0.2486
 3095TIP3    H130776   3.553   5.262  12.424 -1.0335 -0.7070  1.3377
 3095TIP3    H230777   3.502   5.402  12.450 -1.0858 -0.0515 -1.8913
 3096TIP3   OH230778   5.985   6.688   4.528 -0.4132  0.4046 -0.2883
 3096TIP3    H130779   6.076   6.711   4.545 -0.4627 -0.6016  1.5733
 3096TIP3    H230780   5.978   6.690   4.432  1.5496  0.5258 -0.4775
 3097TIP3   OH230781   3.534   6.768   1.988 -0.5608 -0.0095 -0.3318
 3097TIP3    H130782   3.579   6.685   2.003 -1.0950 -0.2692 -0.1427
 3097TIP3    H230783   3.478   6.751   1.912 -0.6552  0.1872 -0.3054
 3098TIP3   OH230784   1.519   1.679   2.810  0.0021 -0.2006  0.1322
 3098TIP3    H130785   1.431   1.715   2.805 -0.1785 -0.6294  0.2264
 3098TIP3    H230786   1.576   1.750   2.778 -0.1606  0.8706  2.0850
 3099TIP3   OH230787   6.732   3.087  17.064 -0.3811  0.0777 -0.0081
 3099TIP3    H130788   6.708   3.130  16.983  1.4757  0.2578 -0.5113
 3099TIP3    H230789   6.742   2.995  17.041 -2.4314 -0.3662  0.6417
 3100TIP3   OH230790   6.509   4.127  15.300 -0.3554  0.2344  0.6181
 3100TIP3    H130791   6.515   4.036  15.271  0.2412  0.4647 -0.0187
 3100TIP3    H230792   6.559   4.129  15.382  1.0215  0.3080 -0.1915
 3101TIP3   OH230793   3.642   2.496  10.766  0.1197  0.6692  0.1031
 3101TIP3    H130794   3.654   2.555  10.840  3.0407 -0.2602  0.4986
 3101TIP3    H230795   3.710   2.429  10.777 -0.8991 -0.8723 -2.1325
 3102TIP3   OH230796   5.910   2.811   4.656  0.2615 -0.2933  0.4754
 3102TIP3    H130797   5.985   2.865   4.632 -0.1828 -0.0326 -0.3753
 3102TIP3    H230798   5.900   2.824   4.750 -0.6416  2.1608  0.1094
 3103TIP3   OH230799   4.874   1.132  15.280  0.1020 -0.5535 -0.1785
 3103TIP3    H130800   4.953   1.166  15.324 -0.1817 -1.1960  0.8747
 3103TIP3    H230801   4.895   1.041  15.261 -0.2014 -0.5857 -0.3539
 3104TIP3   OH230802   0.347   6.038   3.849 -0.8442 -0.1038  0.2842
 3104TIP3    H130803   0.315   6.101   3.914 -0.1736  0.2128  0.3162
 3104TIP3    H230804   0.275   6.030   3.786 -0.5891  1.4343 -0.2443
 3105TIP3   OH230805   0.744   5.230  14.635  0.1895  0.0591  0.2132
 3105TIP3    H130806   0.778   5.282  14.562  2.8245  0.0411  1.3412
 3105TIP3    H230807   0.740   5.141  14.601  1.6567  0.0036  0.1341
 3106TIP3   OH230808   1.787   5.955  11.373 -0.5071  0.7102  0.4574
 3106TIP3    H130809   1.833   5.988  11.450 -0.4855 -2.7401  2.1384
 3106TIP3    H230810   1.853   5.902  11.327 -0.7232  2.1285 -1.6341
 3107TIP3   OH230811   2.247   2.971   0.186  0.1144 -0.1958  0.1827
 3107TIP3    H130812   2.166   2.941   0.145  1.1283  0.5583 -2.5826
 3107TIP3    H230813   2.221   3.046   0.239 -1.1198 -0.4952  0.0238
 3108TIP3   OH230814   3.974   4.661  16.284 -0.0549 -0.4259  0.2687
 3108TIP3    H130815   3.899   4.606  16.262  1.0109 -1.5971 -0.6317
 3108TIP3    H230816   4.049   4.617  16.242  1.2319  0.3344  1.6701
 3109TIP3   OH230817   0.139   3.270   1.140  0.4193  0.1045 -0.3795
 3109TIP3    H130818   0.150   3.241   1.231  0.9876  1.3892 -0.0080
 3109TIP3    H230819   0.178   3.200   1.088 -0.5570 -0.9913  0.3060
 3110TIP3   OH230820   4.155   0.464   3.136 -0.1766 -0.4442  0.4422
 3110TIP3    H130821   4.075   0.514   3.117  0.5320  0.4233 -0.3736
 3110TIP3    H230822   4.226   0.521   3.107  0.7205 -1.4461  0.6116
 3111TIP3   OH230823   2.762   5.124  14.548  0.3548  0.1501 -0.7638
 3111TIP3    H130824   2.682   5.081  14.578 -0.0020  0.4969 -1.2016
 3111TIP3    H230825   2.832   5.077  14.592 -0.1359  0.6011  0.5744
 3112TIP3   OH230826   1.634   0.572   5.551 -0.0136  0.4469 -1.1969
 3112TIP3    H130827   1.685   0.573   5.631  0.4894  0.5036 -1.5154
 3112TIP3    H230828   1.617   0.480   5.534 -2.9139  0.5078  0.7158
 3113TIP3   OH230829   2.208   3.023  11.569  0.2225  0.3660 -0.2048
 3113TIP3    H130830   2.217   2.991  11.479  1.7170  0.9748 -0.2913
 3113TIP3    H230831   2.151   2.959  11.611 -1.2091  0.5244 -1.8000
 3114TIP3   OH230832   4.164   2.323  11.434 -0.2094 -0.6200  0.7275
 3114TIP3    H130833   4.139   2.247  11.381 -0.9483  0.6182 -0.7880
 3114TIP3    H230834   4.212   2.380  11.374 -2.0307  1.3366  1.0065
 3115TIP3   OH230835   4.840   1.987  14.856  0.0320  0.2859  0.0033
 3115TIP3    H130836   4.878   1.910  14.813 -1.0074 -1.4795  2.0720
 3115TIP3    H230837   4.915   2.044  14.872  0.6520  0.4421 -2.8031
 3116TIP3   OH230838   6.773   0.803   3.383 -0.3049  0.0615 -0.2887
 3116TIP3    H130839   6.810   0.734   3.436  1.5996  0.9569 -0.3630
 3116TIP3    H230840   6.778   0.770   3.293 -0.6028 -0.2155 -0.2020
 3117TIP3   OH230841   1.149   2.974  15.558  0.2459  0.0577  0.6875
 3117TIP3    H130842   1.169   2.932  15.641  1.0409 -1.0354 -0.0259
 3117TIP3    H230843   1.215   2.940  15.497 -0.6211  0.4351 -0.5127
 3118TIP3   OH230844   5.472   5.115   0.670 -0.4323 -0.2363 -0.2742
 3118TIP3    H130845   5.543   5.082   0.614 -0.4797 -2.4477  0.8419
 3118TIP3    H230846   5.401   5.053   0.657 -2.0146  1.6209 -0.9258
 3119TIP3   OH230847   2.563   5.620  13.118 -0.4465  0.8819 -0.0749
 3119TIP3    H130848   2.488   5.585  13.069  0.8441  0.6548 -2.0159
 3119TIP3    H230849   2.577   5.708  13.082  0.8860  0.4883 -0.6136
 3120TIP3   OH230850   4.989   6.611  11.687 -0.4634 -0.3858  0.1622
 3120TIP3    H130851   4.978   6.548  11.758 -1.9213 -0.8236 -0.4352
 3120TIP3    H230852   4.929   6.582  11.619 -1.4531  1.8188  0.0056
 3121TIP3   OH230853   5.288   3.614   4.462  0.0677 -0.1035  0.0763
 3121TIP3    H130854   5.271   3.523   4.436  0.4829 -0.1100 -0.1810
 3121TIP3    H230855   5.297   3.661   4.380 -0.1998  0.1839  0.2104
 3122TIP3   OH230856   6.729   1.443   5.395  0.2976  0.2937 -0.0455
 3122TIP3    H130857   6.817   1.460   5.429  0.1364  1.4313 -0.1295
 3122TIP3    H230858   6.689   1.385   5.459  0.9498  0.1600  0.2501
 3123TIP3   OH230859   6.674   1.290  12.000  0.1784  0.1805 -0.3053
 3123TIP3    H130860   6.741   1.298  11.932  0.9484  0.4475  0.4641
 3123TIP3    H230861   6.596   1.329  11.962  0.7203  0.7249 -0.8827
 3124TIP3   OH230862   6.552   3.338  12.030  0.1225 -0.3467 -0.7766
 3124TIP3    H130863   6.574   3.425  12.063 -0.4891 -0.5921  0.2935
 3124TIP3    H230864   6.625   3.283  12.058  0.0187 -0.3865 -0.5895
 3125TIP3   OH230865   0.445   1.149  15.832 -0.2347 -0.1278  0.3957
 3125TIP3    H130866   0.367   1.187  15.790 -0.7985 -0.0545  1.4754
 3125TIP3    H230867   0.428   1.054  15.830 -0.3177 -0.1170  0.5562
 3126TIP3   OH230868   3.674   5.751   2.516 -0.1554 -0.3151  0.7886
 3126TIP3    H130869   3.631   5.700   2.447 -0.3875 -0.9019  1.3625
 3126TIP3    H230870   3.601   5.790   2.565 -0.0325  2.2766 -0.8255
 3127TIP3   OH230871   2.475   0.784  12.186 -0.3211 -0.2333 -0.0351
 3127TIP3    H130872   2.383   0.779  12.162 -0.1276 -0.5559 -0.7637
 3127TIP3    H230873   2.479   0.759  12.278 -0.8007 -1.6092 -0.3695
 3128TIP3   OH230874   5.759   0.267   6.199 -0.3143  0.0620 -0.1584
 3128TIP3    H130875   5.844   0.311   6.210 -0.1394 -0.4126  0.4718
 3128TIP3    H230876   5.763   0.193   6.259 -0.9495 -0.3094 -0.5630
 3129TIP3   OH230877   1.348   6.244  15.166  0.0238  0.4628  0.5438
 3129TIP3    H130878   1.441   6.252  15.186  0.0121  1.7764  0.1528
 3129TIP3    H230879   1.305   6.245  15.251  0.3139  0.6637  0.6883
 3130TIP3   OH230880   3.050   4.113  13.546 -0.6048 -0.5843  0.4943
 3130TIP3    H130881   3.027   4.042  13.486  1.8373 -0.7831 -0.3042
 3130TIP3    H230882   3.119   4.077  13.600  0.6011  1.1204  0.1538
 3131TIP3   OH230883   1.757   3.563  12.671  0.3573 -0.2578  0.5509
 3131TIP3    H130884   1.733   3.645  12.714 -1.2085 -0.8822  0.9450
 3131TIP3    H230885   1.798   3.511  12.740  0.8195 -0.0431  0.4447
 3132TIP3   OH230886   4.222   3.750  14.147  0.1339 -0.1774 -0.1416
 3132TIP3    H130887   4.313   3.759  14.120  0.0413 -0.8740 -0.7276
 3132TIP3    H230888   4.205   3.656  14.141 -0.7615  0.0001 -0.5033
 3133TIP3   OH230889   1.925   3.120   4.745  0.1003 -0.0789 -0.4177
 3133TIP3    H130890   1.926   3.051   4.811  0.8195  1.8242  1.6470
 3133TIP3    H230891   2.017   3.141   4.730 -0.1139  1.6720  0.4146
 3134TIP3   OH230892   1.129   0.658  15.916  0.4589  0.0447 -0.5429
 3134TIP3    H130893   1.058   0.721  15.907 -0.3234 -0.5834  0.9121
 3134TIP3    H230894   1.189   0.698  15.979  1.9426  0.9915 -2.4392
 3135TIP3   OH230895   2.573   1.623  17.088 -0.2104  0.4337  0.6640
 3135TIP3    H130896   2.633   1.687  17.126  2.2660 -0.0006 -2.1482
 3135TIP3    H230897   2.560   1.557  17.157  0.9085  1.5788  2.0228
 3136TIP3   OH230898   0.621   5.170   1.877 -0.5744 -0.6645  0.1851
 3136TIP3    H130899   0.671   5.237   1.923 -1.3046  0.1016 -0.1196
 3136TIP3    H230900   0.538   5.166   1.925 -1.4605  0.3420 -1.2065
 3137TIP3   OH230901   2.978   6.610  14.801  0.3146  0.0682  0.0271
 3137TIP3    H130902   2.891   6.575  14.823  0.4616  0.3281  1.1007
 3137TIP3    H230903   3.024   6.537  14.762 -0.1277 -0.3005  0.1851
 3138TIP3   OH230904   2.952   4.560  12.142 -0.3279 -0.2387 -0.7666
 3138TIP3    H130905   3.042   4.590  12.129  0.0007 -0.4858  0.8511
 3138TIP3    H230906   2.914   4.621  12.204 -0.1839 -2.0951  1.2554
 3139TIP3   OH230907   3.388   6.479   4.479 -0.4710  0.3553 -0.3583
 3139TIP3    H130908   3.325   6.408   4.484 -0.1353  0.0486 -0.4390
 3139TIP3    H230909   3.472   6.436   4.461 -0.6850  0.9233 -3.1709
 3140TIP3   OH230910   3.426   6.486   0.208 -0.5562 -0.2894 -0.1961
 3140TIP3    H130911   3.358   6.549   0.186 -0.2126  0.8606  1.7722
 3140TIP3    H230912   3.386   6.429   0.274  0.1251 -0.0928  0.4029
 3141TIP3   OH230913   1.302   5.024   2.874  0.2543  0.0360 -0.1600
 3141TIP3    H130914   1.269   5.079   2.803 -1.1398 -1.1480 -0.4458
 3141TIP3    H230915   1.246   5.044   2.949 -0.9902 -1.7619 -0.5637
 3142TIP3   OH230916   6.067   0.448  12.258  0.3461 -0.0351  0.1801
 3142TIP3    H130917   6.019   0.519  12.214 -0.6920 -1.6947 -1.5126
 3142TIP3    H230918   6.023   0.368  12.229  1.3608 -1.3872  2.1831
 3143TIP3   OH230919   2.698   6.743   3.547  0.1061  0.1803 -0.3915
 3143TIP3    H130920   2.715   6.678   3.615 -2.3073  1.5311  1.6678
 3143TIP3    H230921   2.766   6.809   3.558  1.0710 -0.6998 -0.8588
 3144TIP3   OH230922   2.755   5.186  13.146  0.3462  0.3912  0.2054
 3144TIP3    H130923   2.671   5.163  13.106  1.1277 -1.4662 -0.5362
 3144TIP3    H230924   2.779   5.270  13.107  0.7724 -1.0216 -2.9727
 3145TIP3   OH230925   5.803   3.435   5.568  0.1910 -0.1618 -0.1561
 3145TIP3    H130926   5.854   3.357   5.589  1.2580  0.6160  0.2039
 3145TIP3    H230927   5.792   3.480   5.651 -0.1874  0.2127 -0.4045
 3146TIP3   OH230928   2.256   3.029   1.607 -0.1406 -0.1110  0.1336
 3146TIP3    H130929   2.198   3.064   1.540  0.6337  1.3155  0.1821
 3146TIP3    H230930   2.322   2.980   1.558 -0.5254 -0.4830 -0.0208
 3147TIP3   OH230931   2.116   5.480  12.376  0.4396 -0.0466  0.4077
 3147TIP3    H130932   2.143   5.401  12.329  0.9918  0.1449  0.3985
 3147TIP3    H230933   2.161   5.551  12.331 -1.1847  0.4555 -0.5229
 3148TIP3   OH230934   2.477   1.448   0.611  0.2360 -0.1128 -0.6405
 3148TIP3    H130935   2.552   1.397   0.579 -1.4068 -2.7893 -0.5029
 3148TIP3    H230936   2.414   1.447   0.539 -0.8588 -0.5601  0.2891
 3149TIP3   OH230937   1.342   3.539  14.859 -0.0003  0.7026  0.4018
 3149TIP3    H130938   1.279   3.509  14.793 -0.1740  1.6631  0.1190
 3149TIP3    H230939   1.340   3.471  14.927 -0.3102  0.0353 -0.2633
 3150TIP3   OH230940   2.959   3.947   1.331  0.0763  0.7201 -0.6777
 3150TIP3    H130941   2.958   3.924   1.424 -1.9569  1.5867 -0.4201
 3150TIP3    H230942   2.869   3.929   1.301  0.8921 -0.3366 -2.7046
 3151TIP3   OH230943   3.323   2.568   0.731 -0.4190 -0.1666 -0.0744
 3151TIP3    H130944   3.396   2.619   0.697 -0.3800 -0.6782 -0.7736
 3151TIP3    H230945   3.279   2.534   0.653  1.4465 -3.9015  0.2706
 3152TIP3   OH230946   4.842   6.804  16.048 -0.1891  0.5886 -0.0285
 3152TIP3    H130947   4.936   6.789  16.044 -0.2779 -0.0501  0.2702
 3152TIP3    H230948   4.811   6.749  16.119 -0.8386  0.5535 -0.3283
 3153TIP3   OH230949   5.963   5.018  12.970 -0.5912  0.1324  0.5294
 3153TIP3    H130950   5.936   5.087  13.031 -0.7297  0.2833  0.2958
 3153TIP3    H230951   5.883   4.968  12.954 -0.7365  0.5682 -0.1488
 3154TIP3   OH230952   0.703   1.634  13.194 -0.2372 -0.7306  0.1963
 3154TIP3    H130953   0.769   1.565  13.188  1.2773  0.3364  2.7956
 3154TIP3    H230954   0.697   1.652  13.288 -2.7450  0.6783 -0.1582
 3155TIP3   OH230955   0.713   0.862   2.105 -0.3221 -0.0371 -0.4871
 3155TIP3    H130956   0.781   0.892   2.044 -0.1520 -0.9459 -0.7547
 3155TIP3    H230957   0.759   0.811   2.171 -0.4933  1.0109  0.4860
 3156TIP3   OH230958   2.394   2.108   5.302 -0.4140  0.3730 -0.0941
 3156TIP3    H130959   2.359   2.179   5.355  0.1984 -0.3896  1.3690
 3156TIP3    H230960   2.352   2.029   5.336 -1.2355  0.0145 -1.8272
 3157TIP3   OH230961   2.330   3.931  11.623  0.0377 -0.8813 -0.0908
 3157TIP3    H130962   2.314   4.025  11.622 -0.3525 -0.9470 -0.0493
 3157TIP3    H230963   2.280   3.899  11.698  0.0757 -1.1392 -0.1752
 3158TIP3   OH230964   5.772   3.417   1.759 -0.4636 -0.4794  0.0709
 3158TIP3    H130965   5.845   3.445   1.814 -0.3904  0.1894 -0.3511
 3158TIP3    H230966   5.701   3.398   1.820 -0.9251  1.8477  0.3349
 3159TIP3   OH230967   2.078   4.064  14.337  0.4342  0.7829  0.1630
 3159TIP3    H130968   2.057   4.038  14.247  1.8611 -1.1239  0.3163
 3159TIP3    H230969   1.993   4.086  14.375 -0.6036 -1.1919 -0.8283
 3160TIP3   OH230970   0.070   5.283  13.546 -0.2548 -0.1414 -0.2088
 3160TIP3    H130971   0.088   5.262  13.637  1.3140 -2.1503 -0.9003
 3160TIP3    H230972   0.035   5.202  13.509  0.5502  0.1587 -1.7052
 3161TIP3   OH230973   3.978   1.082   5.841 -0.1374 -0.2358  0.3319
 3161TIP3    H130974   3.928   1.019   5.892 -0.0560  0.7458  1.6909
 3161TIP3    H230975   4.069   1.063   5.862 -0.1267  0.6672  1.2436
 3162TIP3   OH230976   5.931   3.591   1.912  0.2735 -0.0210  0.0607
 3162TIP3    H130977   5.882   3.637   1.980  1.7096  0.7769  0.5840
 3162TIP3    H230978   5.935   3.654   1.839  0.1253 -0.2737 -0.1715
 3163TIP3   OH230979   3.667   2.028   3.594 -0.7087 -0.6806 -0.4904
 3163TIP3    H130980   3.583   2.067   3.569 -0.9148 -0.5172  0.4486
 3163TIP3    H230981   3.657   2.006   3.686  1.2089  1.8254  0.4079
 3164TIP3   OH230982   6.524   3.874   2.052 -0.2494 -0.7003  0.0471
 3164TIP3    H130983   6.611   3.913   2.057 -0.8344  0.7323 -0.2433
 3164TIP3    H230984   6.477   3.909   2.128 -1.0293 -0.1749 -0.6499
 3165TIP3   OH230985   0.826   2.748  14.911  0.3700 -0.0326  0.3260
 3165TIP3    H130986   0.757   2.798  14.953  1.4716 -0.4805  2.8002
 3165TIP3    H230987   0.892   2.813  14.888 -0.6217  0.3416 -1.6962
 3166TIP3   OH230988   3.429   4.830   2.801  0.4658 -0.2791  0.3360
 3166TIP3    H130989   3.425   4.740   2.768  0.4826 -0.6024  1.1964
 3166TIP3    H230990   3.502   4.869   2.753  1.7331 -1.3202  1.3552
 3167TIP3   OH230991   6.669   4.234   1.280 -0.5615  0.3870 -0.5997
 3167TIP3    H130992   6.718   4.172   1.334  1.2655  1.7021 -0.6508
 3167TIP3    H230993   6.630   4.179   1.212  1.9581 -0.6627 -1.3562
 3168TIP3   OH230994   1.837   2.930   0.251 -0.4038 -0.3061  0.4472
 3168TIP3    H130995   1.867   2.862   0.311  0.5608  0.6826  1.1235
 3168TIP3    H230996   1.744   2.938   0.269 -0.3997 -0.9966  0.8161
 3169TIP3   OH230997   4.981   5.823   3.503  0.4725 -0.0327 -0.2552
 3169TIP3    H130998   5.030   5.899   3.535  2.3720 -0.4701 -1.8896
 3169TIP3    H230999   4.900   5.859   3.468  0.3765  0.9517  0.9382
 3170TIP3   OH231000   0.930   6.151  16.227  0.2199  0.2653  0.2909
 3170TIP3    H131001   0.868   6.086  16.192  1.1600 -1.6675  1.9605
 3170TIP3    H231002   0.885   6.187  16.304  0.6161 -0.1916  0.7471
 3171TIP3   OH231003   2.479   2.786  13.120 -0.8124  0.5715 -0.1814
 3171TIP3    H131004   2.530   2.858  13.084  1.8411 -1.3327 -0.5632
 3171TIP3    H231005   2.428   2.753  13.046  0.3971  0.1178 -0.8421
 3172TIP3   OH231006   5.320   1.349  16.970 -0.4913  0.1329 -0.0335
 3172TIP3    H131007   5.328   1.414  16.900 -0.9775 -0.5513 -0.7427
 3172TIP3    H231008   5.343   1.266  16.929  1.5425  0.0155  1.2195
 3173TIP3   OH231009   6.314   5.994  15.862 -0.5757 -0.1003 -1.0655
 3173TIP3    H131010   6.344   6.083  15.882  0.0356 -0.4053 -0.6039
 3173TIP3    H231011   6.336   5.981  15.770  1.0248 -0.4305 -0.6676
 3174TIP3   OH231012   6.122   3.472   5.057 -0.3514  0.2050  0.4349
 3174TIP3    H131013   6.191   3.508   5.112  0.6536 -3.0172  1.5248
 3174TIP3    H231014   6.048   3.461   5.117  0.0697 -1.4240  0.6908
 3175TIP3   OH231015   3.412   1.435   0.497  0.1575  0.6834  0.2073
 3175TIP3    H131016   3.318   1.425   0.483  0.4370 -0.2767 -1.1954
 3175TIP3    H231017   3.421   1.517   0.545 -1.3884  0.7719  0.3909
 3176TIP3   OH231018   4.521   0.307  10.645 -0.2341  0.1193  0.3032
 3176TIP3    H131019   4.439   0.298  10.692 -0.1234  0.2037  0.5131
 3176TIP3    H231020   4.547   0.398  10.659 -0.3679  0.2400 -0.1939
 3177TIP3   OH231021   2.259   4.765  12.798 -0.7092 -0.5521  0.0342
 3177TIP3    H131022   2.322   4.800  12.861  0.7819 -0.8264 -1.2433
 3177TIP3    H231023   2.231   4.840  12.746 -1.1728 -0.4958  0.3547
 3178TIP3   OH231024   4.482   4.507   0.066 -0.6378  0.0243  0.4855
 3178TIP3    H131025   4.547   4.444   0.034 -1.0677  0.8741 -2.2790
 3178TIP3    H231026   4.530   4.589   0.077 -1.2823  0.8872 -2.4045
 3179TIP3   OH231027   2.688   2.618  11.219  0.4177 -0.2474 -0.3108
 3179TIP3    H131028   2.747   2.589  11.149  1.9549  0.8399  0.4728
 3179TIP3    H231029   2.742   2.617  11.298 -0.5029  1.1616  0.3787
 3180TIP3   OH231030   4.807   0.069  12.009 -0.6366  0.1489  0.4528
 3180TIP3    H131031   4.728   0.018  12.029 -0.3080 -1.4848 -1.9910
 3180TIP3    H231032   4.879   0.019  12.048 -0.5370  0.0796  0.1790
 3181TIP3   OH231033   6.346   6.031   5.597 -0.0875 -0.2124 -0.3150
 3181TIP3    H131034   6.302   5.949   5.617 -1.6216  0.7563  0.4434
 3181TIP3    H231035   6.348   6.034   5.501 -1.2275 -0.5213 -0.3602
 3182TIP3   OH231036   4.521   5.163   4.031  0.1380  0.0110  0.2622
 3182TIP3    H131037   4.503   5.121   4.115  1.1526 -1.3617 -0.1551
 3182TIP3    H231038   4.611   5.138   4.010 -0.0331  0.4493 -1.1507
 3183TIP3   OH231039   1.919   5.128  12.009 -0.2301 -0.2399 -0.3280
 3183TIP3    H131040   1.879   5.212  12.029  0.0110 -0.2891  0.3820
 3183TIP3    H231041   1.922   5.125  11.913 -0.0160  0.6563 -0.3551
 3184TIP3   OH231042   1.250   4.348  15.694  0.4856 -0.0492  0.0874
 3184TIP3    H131043   1.166   4.387  15.666  0.8113  1.5598  1.2182
 3184TIP3    H231044   1.281   4.302  15.616 -0.3505  1.2895 -1.1042
 3185TIP3   OH231045   2.459   6.661   0.115  0.2696 -0.1840  0.1459
 3185TIP3    H131046   2.500   6.695   0.195  0.0556  0.6716 -0.0933
 3185TIP3    H231047   2.521   6.684   0.045  0.5261 -1.0608  0.0765
 3186TIP3   OH231048   5.414   6.350  13.936  0.5904  0.3559  0.4011
 3186TIP3    H131049   5.504   6.321  13.919  0.6515  0.2045  0.9740
 3186TIP3    H231050   5.411   6.439  13.901  0.6673  0.0024 -0.5318
 3187TIP3   OH231051   0.255   0.599  13.907  0.1652  0.5295  0.2662
 3187TIP3    H131052   0.251   0.654  13.985 -1.5165 -0.7142  1.1241
 3187TIP3    H231053   0.197   0.525  13.927 -0.1610  0.0716 -2.0803
 3188TIP3   OH231054   2.232   5.544   1.087 -0.9994  0.1562 -0.4507
 3188TIP3    H131055   2.284   5.484   1.141 -0.9036 -0.2897 -1.0288
 3188TIP3    H231056   2.174   5.487   1.037  1.6319  0.1399 -3.8576
 3189TIP3   OH231057   6.506   3.280   2.894 -0.2545  0.0935 -0.0899
 3189TIP3    H131058   6.489   3.262   2.986 -1.3992  0.5758 -0.1893
 3189TIP3    H231059   6.590   3.238   2.876 -0.7988 -1.4208  0.7491
 3190TIP3   OH231060   1.505   0.109   4.537  0.6029 -0.2921  0.4843
 3190TIP3    H131061   1.456   0.133   4.458 -1.2738 -1.5778  1.1953
 3190TIP3    H231062   1.497   0.014   4.542  2.3349 -0.4429  1.2364
 3191TIP3   OH231063   4.232   1.966  15.073 -0.6970  0.3583 -0.4259
 3191TIP3    H131064   4.140   1.944  15.060 -0.0391 -2.3996 -0.9468
 3191TIP3    H231065   4.255   1.929  15.158  0.5553 -1.4764 -1.4940
 3192TIP3   OH231066   1.546   5.177  15.098 -0.1736  0.1290  0.2598
 3192TIP3    H131067   1.547   5.249  15.035 -2.8311  0.0064 -0.0653
 3192TIP3    H231068   1.509   5.103  15.049 -1.6555 -0.1644  1.7116
 3193TIP3   OH231069   5.125   1.658  15.129  0.0445  0.0918  0.0954
 3193TIP3    H131070   5.077   1.735  15.159 -2.3586 -0.9701 -0.8046
 3193TIP3    H231071   5.164   1.684  15.046 -1.3484  0.1502 -0.5497
 3194TIP3   OH231072   5.226   1.359   4.510 -0.4661  0.0726 -0.0666
 3194TIP3    H131073   5.149   1.388   4.461  0.5565  0.5661 -1.4808
 3194TIP3    H231074   5.237   1.423   4.579  0.5183  1.9510 -1.8510
 3195TIP3   OH231075   0.420   6.577  16.199 -0.0776  0.8142  0.6164
 3195TIP3    H131076   0.480   6.639  16.241 -0.2194  0.6684  1.0391
 3195TIP3    H231077   0.472   6.498  16.188  0.9342  1.7304 -2.2380
 3196TIP3   OH231078   4.295   2.521  11.920  0.2938  0.1047 -0.0360
 3196TIP3    H131079   4.365   2.586  11.923 -1.2126  1.7839  1.6552
 3196TIP3    H231080   4.230   2.558  11.860  0.8026 -1.4795 -1.6724
 3197TIP3   OH231081   4.169   6.756   0.815  0.4179 -0.6038 -0.3087
 3197TIP3    H131082   4.205   6.670   0.793  0.3392 -0.6804 -0.1408
 3197TIP3    H231083   4.075   6.749   0.795  0.7444  0.0788 -2.2043
 3198TIP3   OH231084   4.683   5.497  15.758  1.0345 -0.5133 -0.4055
 3198TIP3    H131085   4.686   5.463  15.669  2.1511  0.5026 -0.7812
 3198TIP3    H231086   4.737   5.436  15.809  0.6319 -0.9309 -0.4718
 3199TIP3   OH231087   5.952   3.359  15.274  0.7070 -0.0927  0.0543
 3199TIP3    H131088   6.018   3.312  15.327 -0.6464 -2.6670 -0.3627
 3199TIP3    H231089   5.870   3.347  15.322 -0.0002  0.2633 -1.0392
 3200TIP3   OH231090   0.341   6.609  14.351 -0.7550  0.3678  0.2200
 3200TIP3    H131091   0.278   6.537  14.362  0.4429 -0.8651 -0.5961
 3200TIP3    H231092   0.338   6.629  14.258  0.2884  0.0407  0.1000
 3201TIP3   OH231093   2.078   3.051   4.470  0.4449 -0.5487 -0.8970
 3201TIP3    H131094   2.005   3.091   4.422  0.3308  0.5720  0.1716
 3201TIP3    H231095   2.110   3.121   4.527  2.3258 -1.0313 -1.2884
 3202TIP3   OH231096   5.992   5.561  11.983  0.4796 -0.6523 -0.1066
 3202TIP3    H131097   5.949   5.632  11.935  2.5618 -1.1625 -2.9943
 3202TIP3    H231098   6.085   5.572  11.963  1.1418 -2.6199  1.5903
 3203TIP3   OH231099   3.857   0.833  15.830  0.5386  0.1865  0.2294
 3203TIP3    H131100   3.863   0.745  15.867  0.0975  0.1725  0.2758
 3203TIP3    H231101   3.813   0.821  15.746  2.9193  0.0071 -1.0864
 3204TIP3   OH231102   0.086   2.362  11.242  0.6904  0.6865  0.6667
 3204TIP3    H131103   0.158   2.326  11.295  1.4042 -0.7976 -1.2331
 3204TIP3    H231104   0.130   2.403  11.167 -0.4041  0.4602 -0.1126
 3205TIP3   OH231105   2.157   0.234  15.799 -0.0640 -0.3716  0.0423
 3205TIP3    H131106   2.152   0.322  15.837  0.1771 -0.0951 -0.5457
 3205TIP3    H231107   2.234   0.238  15.741  2.0608 -1.9536  2.5357
 3206TIP3   OH231108   0.749   6.011   1.367  0.1598  0.5066 -0.1873
 3206TIP3    H131109   0.821   5.960   1.405 -0.8157 -0.5773  0.2661
 3206TIP3    H231110   0.793   6.082   1.320  1.6554 -1.3899 -1.8467
 3207TIP3   OH231111   4.041   6.051   5.088 -0.0973  0.2631 -0.5935
 3207TIP3    H131112   4.085   6.131   5.060 -1.8470  1.0503 -1.2093
 3207TIP3    H231113   4.013   6.068   5.177 -0.6223  0.4141 -0.7842
 3208TIP3   OH231114   0.350   2.566  11.858  0.2173  0.7123 -0.5861
 3208TIP3    H131115   0.311   2.610  11.783 -0.5762  1.6840  0.3746
 3208TIP3    H231116   0.296   2.592  11.932 -0.2019 -1.7476  0.0694
 3209TIP3   OH231117   1.671   0.943  11.837  0.1432  0.5465  0.0104
 3209TIP3    H131118   1.749   0.996  11.856  0.5041  0.4504 -1.1153
 3209TIP3    H231119   1.623   0.994  11.771 -0.5351  0.4080  0.3968
 3210TIP3   OH231120   0.508   5.582   5.403  0.6664 -0.4883  0.5848
 3210TIP3    H131121   0.453   5.659   5.389  0.4878 -0.6952  0.1040
 3210TIP3    H231122   0.511   5.571   5.498  0.9084  0.2619  0.6713
 3211TIP3   OH231123   0.526   1.695   4.765 -0.4687  0.3873  0.4673
 3211TIP3    H131124   0.555   1.625   4.706  1.1424 -1.6909  3.4546
 3211TIP3    H231125   0.602   1.752   4.774  0.0596 -0.5014  2.0469
 3212TIP3   OH231126   0.154   4.941   5.109 -0.4918  0.2776 -0.5543
 3212TIP3    H131127   0.135   4.947   5.203 -1.0788  0.2693 -0.6650
 3212TIP3    H231128   0.125   4.854   5.084 -0.2303  0.2369 -0.7233
 3213TIP3   OH231129   2.144   2.730   5.338  0.8204  0.5147  0.4273
 3213TIP3    H131130   2.095   2.727   5.420  1.0370 -0.7425  0.5207
 3213TIP3    H231131   2.228   2.768   5.362  0.5940  0.9111  0.6198
 3214TIP3   OH231132   3.390   3.333   6.045  0.0601  0.2148 -0.2092
 3214TIP3    H131133   3.359   3.415   6.083  1.1188  0.4169  0.2776
 3214TIP3    H231134   3.332   3.266   6.081 -0.5939  0.7101 -0.3379
 3215TIP3   OH231135   2.264   4.597   1.504  0.9380  1.1191  0.0482
 3215TIP3    H131136   2.248   4.690   1.484  0.6900  1.1743  0.4873
 3215TIP3    H231137   2.274   4.555   1.419 -1.4666  1.0907 -0.2785
 3216TIP3   OH231138   3.075   0.238  13.600  0.1524 -0.0899 -0.6099
 3216TIP3    H131139   3.056   0.181  13.525  0.1326 -2.5588  1.1544
 3216TIP3    H231140   3.023   0.202  13.672  0.5503  1.8848  0.7485
 3217TIP3   OH231141   1.402   2.435   0.002 -0.2016 -0.3493 -0.4442
 3217TIP3    H131142   1.431   2.452   0.091 -0.7505 -1.0394 -0.1208
 3217TIP3    H231143   1.310   2.409   0.011 -0.2242 -0.5684 -1.1914
 3218TIP3   OH231144   5.604   3.757  14.257 -0.3056  0.7841 -0.0721
 3218TIP3    H131145   5.588   3.780  14.349  1.1080  1.3302  0.0576
 3218TIP3    H231146   5.628   3.839  14.215  0.2222  0.3392 -0.6619
 3219TIP3   OH231147   0.613   5.539   0.113  1.1173 -0.4948  0.3492
 3219TIP3    H131148   0.581   5.467   0.168  1.3959 -2.0177 -1.3919
 3219TIP3    H231149   0.649   5.496   0.036  2.3422  1.4858 -0.2468
 3220TIP3   OH231150   1.829   2.988  10.686  0.6621  0.1102  0.5726
 3220TIP3    H131151   1.916   2.964  10.721  1.3730 -0.0506 -1.2262
 3220TIP3    H231152   1.847   3.024  10.599 -0.7248  3.7716  1.6051
 3221TIP3   OH231153   3.014   4.920   1.675 -0.6650  0.7135  0.3316
 3221TIP3    H131154   2.979   4.834   1.652 -0.4113  0.8264 -0.4898
 3221TIP3    H231155   2.954   4.982   1.634 -0.5477  0.9228  0.4766
 3222TIP3   OH231156   2.688   0.339  14.131 -0.7906 -0.3724 -0.1986
 3222TIP3    H131157   2.626   0.412  14.144 -0.6398 -0.6976  3.3483
 3222TIP3    H231158   2.635   0.261  14.145  0.1314 -0.6764  2.0999
 3223TIP3   OH231159   1.572   5.714  16.492 -0.0541 -0.4863 -0.5231
 3223TIP3    H131160   1.595   5.660  16.567 -1.3907 -2.9553 -1.7549
 3223TIP3    H231161   1.476   5.716  16.493 -0.0696  1.9336 -0.5549
 3224TIP3   OH231162   5.726   1.795   1.624 -0.0848 -0.5814 -0.3211
 3224TIP3    H131163   5.811   1.764   1.654  0.2809 -0.1483 -0.8752
 3224TIP3    H231164   5.744   1.882   1.586 -0.6030 -0.8781 -1.2888
 3225TIP3   OH231165   5.341   0.140   5.168  0.3514  0.5546  0.0544
 3225TIP3    H131166   5.382   0.115   5.086 -1.6967 -0.1232 -0.8420
 3225TIP3    H231167   5.318   0.057   5.210  2.0030  0.8731  1.7053
 3226TIP3   OH231168   6.774   3.303  11.816  0.5178 -0.3806  0.1768
 3226TIP3    H131169   6.685   3.282  11.841  0.4017 -0.0686  0.0231
 3226TIP3    H231170   6.766   3.340  11.728  0.8162 -0.5258  0.0868
 3227TIP3   OH231171   5.696   5.273  16.462  0.0460 -0.1367 -0.3866
 3227TIP3    H131172   5.775   5.219  16.469 -0.1258 -0.5815 -1.5725
 3227TIP3    H231173   5.636   5.235  16.526  0.8074  0.2572  0.5868
 3228TIP3   OH231174   4.300   3.957  14.381  0.1655 -0.3932  0.3604
 3228TIP3    H131175   4.299   3.904  14.301  0.4633  0.0390  0.0643
 3228TIP3    H231176   4.327   4.044  14.351 -0.5186 -0.0152  0.8028
 3229TIP3   OH231177   5.106   6.229  11.159  0.1101 -0.0716 -0.0250
 3229TIP3    H131178   5.034   6.262  11.105  1.6331  1.8001 -1.0116
 3229TIP3    H231179   5.177   6.212  11.097  1.2925  0.3436  1.1721
 3230TIP3   OH231180   0.789   1.913   5.485  0.3127 -0.5624  0.4655
 3230TIP3    H131181   0.869   1.911   5.432  1.0222  2.3209  1.2361
 3230TIP3    H231182   0.737   1.984   5.447 -0.0568  0.2337  2.3478
 3231TIP3   OH231183   6.564   2.060   6.030 -0.1747 -0.2338  0.0426
 3231TIP3    H131184   6.489   2.074   5.973 -1.0351 -0.1039  1.1834
 3231TIP3    H231185   6.639   2.055   5.970 -0.9587  0.5982 -1.0410
 3232TIP3   OH231186   4.418   5.322   0.861 -0.5349 -0.1104 -0.0645
 3232TIP3    H131187   4.412   5.374   0.941  0.5076  1.7989 -1.1688
 3232TIP3    H231188   4.376   5.376   0.794  0.0758 -0.9420 -1.1477
 3233TIP3   OH231189   0.064   2.307   4.592  0.4344 -0.6620  0.9079
 3233TIP3    H131190  -0.005   2.309   4.659  0.4315 -0.4677  0.8987
 3233TIP3    H231191   0.085   2.214   4.583 -2.1159 -1.1584 -1.4139
 3234TIP3   OH231192   5.076   4.474   1.647 -0.4469  0.0953 -0.1046
 3234TIP3    H131193   5.119   4.407   1.700 -1.2277 -0.0410  0.3701
 3234TIP3    H231194   5.141   4.498   1.581  0.9999  1.1293  1.6151
 3235TIP3   OH231195   0.805   0.892   4.740 -0.9533  0.7955 -0.0677
 3235TIP3    H131196   0.863   0.932   4.805 -0.5734 -0.1183  0.1638
 3235TIP3    H231197   0.815   0.798   4.753  0.8893  0.5053 -2.9726
 3236TIP3   OH231198   4.508   2.001   2.777  0.3309 -0.7369  0.5299
 3236TIP3    H131199   4.509   2.034   2.687 -0.6166  1.2549  1.1907
 3236TIP3    H231200   4.436   1.937   2.778  0.6788 -1.1606 -0.2196
 3237TIP3   OH231201   6.727   0.318  11.540  0.2094  0.1215 -0.2056
 3237TIP3    H131202   6.652   0.265  11.568  0.1672  0.1390 -0.2825
 3237TIP3    H231203   6.745   0.376  11.613  0.0786  0.1911 -0.2288
 3238TIP3   OH231204   0.273   6.494   2.369 -0.0037  0.6896  0.3088
 3238TIP3    H131205   0.368   6.479   2.375 -0.0629  0.4591  0.7556
 3238TIP3    H231206   0.235   6.412   2.402 -0.3525  0.9996  0.6873
 3239TIP3   OH231207   4.458   4.877   6.401  0.3906 -0.2023  0.0688
 3239TIP3    H131208   4.372   4.844   6.425  0.1942 -0.3130 -0.7598
 3239TIP3    H231209   4.477   4.835   6.317  0.7836  0.6326 -0.2682
 3240TIP3   OH231210   3.625   5.821  13.997  0.3821 -0.4725 -0.7342
 3240TIP3    H131211   3.541   5.858  13.972 -0.1196 -0.0489  1.3348
 3240TIP3    H231212   3.678   5.826  13.918 -0.6906  1.7214 -1.4060
 3241TIP3   OH231213   6.302   4.474  14.688  0.0473  0.2059 -0.2181
 3241TIP3    H131214   6.252   4.549  14.722 -0.1778 -0.1041  0.1348
 3241TIP3    H231215   6.364   4.513  14.626 -1.3093  0.4922 -1.4366
 3242TIP3   OH231216   2.027   4.883  14.628  0.1786  0.3021 -0.0921
 3242TIP3    H131217   1.986   4.920  14.549 -0.3396  3.2916  1.4287
 3242TIP3    H231218   1.961   4.825  14.664 -0.7202  1.1113 -0.3916
 3243TIP3   OH231219   6.817   6.771  12.189 -0.0634  0.1104  0.0784
 3243TIP3    H131220   6.741   6.829  12.188  0.4690  0.9268  2.0769
 3243TIP3    H231221   6.891   6.829  12.206  0.8927 -0.8219 -0.7193
 3244TIP3   OH231222   6.455   0.645  11.603 -0.2235  0.4405 -0.2976
 3244TIP3    H131223   6.490   0.634  11.691 -0.8355  2.8998  0.3438
 3244TIP3    H231224   6.508   0.715  11.565 -0.6058  0.0809 -1.5308
 3245TIP3   OH231225   0.751   2.407  12.117 -0.7045 -0.2351 -0.3752
 3245TIP3    H131226   0.703   2.370  12.191  0.4191 -1.1665 -0.0868
 3245TIP3    H231227   0.728   2.351  12.043 -1.3049  0.2932 -0.5963
 3246TIP3   OH231228   5.123   6.611  13.933 -0.0417 -0.0385  0.3379
 3246TIP3    H131229   5.090   6.636  13.847  3.3298 -0.9771 -1.4138
 3246TIP3    H231230   5.169   6.689  13.965 -1.4203  0.3639  1.4608
 3247TIP3   OH231231   2.053   4.280   5.131 -0.1630 -0.0123 -0.1470
 3247TIP3    H131232   1.995   4.349   5.163 -0.9354 -0.4185 -0.6386
 3247TIP3    H231233   2.115   4.325   5.074 -0.5639  0.2982 -0.3402
 3248TIP3   OH231234   6.549   1.672  13.125  0.4582 -0.4574 -0.4581
 3248TIP3    H131235   6.525   1.657  13.216 -1.1211 -1.1178 -0.9426
 3248TIP3    H231236   6.607   1.599  13.103  2.0107  0.4748  0.3853
 3249TIP3   OH231237   3.827   3.790  16.009 -0.0348  0.1274  0.0756
 3249TIP3    H131238   3.758   3.852  15.986 -1.9152 -0.4605  3.4430
 3249TIP3    H231239   3.783   3.722  16.059  2.3478 -2.7320 -1.4154
 3250TIP3   OH231240   2.124   1.946  10.832 -0.0186 -0.4552 -0.2540
 3250TIP3    H131241   2.191   1.903  10.885  1.1659 -0.1162 -1.4306
 3250TIP3    H231242   2.165   1.959  10.747 -0.6529  2.1522 -0.2438
 3251TIP3   OH231243   1.288   4.482  13.981 -0.3615 -0.4124 -0.4520
 3251TIP3    H131244   1.284   4.523  13.895  0.8942 -1.4546 -1.0385
 3251TIP3    H231245   1.265   4.390  13.965  1.5592 -1.0197 -0.0096
 3252TIP3   OH231246   2.792   5.198   0.387  0.0449 -0.1922  0.2310
 3252TIP3    H131247   2.784   5.222   0.295 -0.0879 -1.1978 -0.0358
 3252TIP3    H231248   2.747   5.268   0.434  1.6748  1.2730 -0.3201
 3253TIP3   OH231249   0.493   1.100   4.990  0.0669  0.1277  0.6344
 3253TIP3    H131250   0.531   1.015   5.012  1.1087  0.6007  0.7185
 3253TIP3    H231251   0.555   1.139   4.928 -1.7913 -0.3345 -1.6636
 3254TIP3   OH231252   2.259   5.215   3.426  0.3968  0.1504  0.2488
 3254TIP3    H131253   2.219   5.227   3.340  1.3818 -0.5869 -0.3427
 3254TIP3    H231254   2.195   5.163   3.475  0.1208 -0.0161 -0.2796
 3255TIP3   OH231255   3.069   0.808   1.078  0.2876 -0.2815 -0.2985
 3255TIP3    H131256   3.113   0.851   1.151 -0.5360 -0.9246  0.6148
 3255TIP3    H231257   2.989   0.773   1.117  0.7328 -2.2805 -1.0664
 3256TIP3   OH231258   5.074   5.851   5.959  0.4389 -0.3038  0.3589
 3256TIP3    H131259   5.154   5.798   5.952  1.2885  0.9559  0.1173
 3256TIP3    H231260   5.021   5.806   6.025  1.8017 -0.6297  1.2725
 3257TIP3   OH231261   0.154   6.160  11.288 -0.4397  0.7327 -0.1042
 3257TIP3    H131262   0.192   6.173  11.201 -0.2408  0.3543 -0.0740
 3257TIP3    H231263   0.218   6.106  11.335 -0.2972  1.3846  0.4579
 3258TIP3   OH231264   4.308   2.689  14.221 -0.4203  0.0405  0.6827
 3258TIP3    H131265   4.234   2.726  14.174 -0.7288 -0.1788  0.9934
 3258TIP3    H231266   4.385   2.728  14.179 -0.7133  0.3644  0.4445
 3259TIP3   OH231267   1.069   1.701  15.388 -0.4690  0.6628  0.3701
 3259TIP3    H131268   1.001   1.678  15.325 -0.4890  1.2430  0.1659
 3259TIP3    H231269   1.150   1.699  15.338 -0.2951 -0.3285  0.6872
 3260TIP3   OH231270   2.160   1.380  11.712  0.0396 -0.4437 -0.0256
 3260TIP3    H131271   2.075   1.359  11.674  0.5049 -0.6099 -0.9893
 3260TIP3    H231272   2.215   1.306  11.689  0.8529  0.3582 -0.7222
 3261TIP3   OH231273   5.540   4.666  13.001 -0.0315  0.7034 -0.3255
 3261TIP3    H131274   5.492   4.701  13.076 -1.3887  0.5177 -1.0754
 3261TIP3    H231275   5.516   4.574  12.999  0.5685  0.5476 -0.5840
 3262TIP3   OH231276   2.226   0.708  16.956  0.3050 -0.1831  0.7882
 3262TIP3    H131277   2.150   0.676  17.004 -0.5469  1.5223  0.6589
 3262TIP3    H231278   2.298   0.708  17.019 -0.0415 -0.8869  1.1823
 3263TIP3   OH231279   3.856   1.143  15.144  0.0935 -0.3064  0.0977
 3263TIP3    H131280   3.761   1.155  15.140  0.0599 -0.8748 -1.3769
 3263TIP3    H231281   3.868   1.048  15.135  0.8495 -0.1103 -1.0852
 3264TIP3   OH231282   0.226   0.044   4.506  0.1428 -0.1480  0.3962
 3264TIP3    H131283   0.309   0.087   4.481  0.0400  0.4822  1.1071
 3264TIP3    H231284   0.237   0.023   4.598 -0.5738  0.1183  0.5421
 3265TIP3   OH231285   2.912   0.050  11.377 -0.5063  0.2771 -0.1849
 3265TIP3    H131286   2.996   0.018  11.411 -1.3362 -2.4701 -0.4837
 3265TIP3    H231287   2.937   0.120  11.317  1.8723 -2.0294 -2.1612
 3266TIP3   OH231288   4.757   1.081  16.035  0.1590 -0.1001  0.3011
 3266TIP3    H131289   4.705   1.074  16.115  1.5284  1.0675  1.3581
 3266TIP3    H231290   4.693   1.080  15.964 -1.1273 -0.6232  1.4341
 3267TIP3   OH231291   0.784   4.422  13.516 -0.2158  0.1509  0.3609
 3267TIP3    H131292   0.760   4.471  13.437 -0.3085 -1.4020 -0.6121
 3267TIP3    H231293   0.863   4.374  13.492 -1.1525 -1.6220  0.6320
 3268TIP3   OH231294   0.084   3.902  16.434  0.0875  1.0261  0.1946
 3268TIP3    H131295   0.005   3.851  16.453  3.3115 -4.7532  0.6780
 3268TIP3    H231296   0.115   3.931  16.520 -0.0133  0.6608  0.3572
 3269TIP3   OH231297   0.037   1.140   0.239 -0.2387  0.4456  0.7741
 3269TIP3    H131298   0.035   1.064   0.297 -2.3547  0.5985  0.9827
 3269TIP3    H231299   0.027   1.215   0.298 -0.0453  0.7624  0.4084
 3270TIP3   OH231300   3.632   4.183   4.102 -0.2491  0.7857 -0.4048
 3270TIP3    H131301   3.592   4.191   4.015  0.0919 -0.8251 -0.7436
 3270TIP3    H231302   3.700   4.117   4.091  0.5509  1.3697  0.8427
 3271TIP3   OH231303   4.634   5.120  16.597 -0.3222  0.0944 -0.0852
 3271TIP3    H131304   4.565   5.182  16.572  0.3121  0.8197 -0.0616
 3271TIP3    H231305   4.676   5.096  16.515  1.7128  2.4229  0.1745
 3272TIP3   OH231306   2.323   0.445  15.452 -0.3308  0.1040  0.1138
 3272TIP3    H131307   2.367   0.396  15.521 -0.5438  2.2266  1.8773
 3272TIP3    H231308   2.291   0.378  15.391  2.9943 -1.6754  0.0992
 3273TIP3   OH231309   0.912   4.389   4.899  0.3403  0.3948  0.1293
 3273TIP3    H131310   0.897   4.461   4.838 -0.6215  0.5879  0.5637
 3273TIP3    H231311   1.005   4.370   4.893  0.4579  1.1578 -0.5644
 3274TIP3   OH231312   1.956   3.623  15.057  0.4401 -0.0744 -0.2208
 3274TIP3    H131313   2.018   3.595  14.990  1.6833 -0.2754  0.9724
 3274TIP3    H231314   1.873   3.582  15.032  1.5525 -2.5378 -0.0792
 3275TIP3   OH231315   6.253   1.616   3.929 -0.0080 -0.5499 -0.3258
 3275TIP3    H131316   6.177   1.673   3.938  0.1060 -0.7280  2.8630
 3275TIP3    H231317   6.320   1.672   3.891 -0.9101  0.4273 -0.5415
 3276TIP3   OH231318   6.186   0.366   0.849  0.1844  0.1087 -0.0029
 3276TIP3    H131319   6.275   0.331   0.845  0.6928  1.4662 -0.9265
 3276TIP3    H231320   6.130   0.291   0.825  1.0500 -0.7486  0.5754
 3277TIP3   OH231321   4.626   3.477   1.058  0.0596 -0.8303  0.4313
 3277TIP3    H131322   4.563   3.474   1.130 -0.7944 -0.1353 -0.2523
 3277TIP3    H231323   4.596   3.408   0.998 -1.0472  0.5220 -0.6480
 3278TIP3   OH231324   4.740   1.899  13.296  0.1201 -0.4245  0.3175
 3278TIP3    H131325   4.809   1.952  13.256 -0.2005 -0.0365  0.2811
 3278TIP3    H231326   4.706   1.953  13.367 -0.4281 -0.4459  0.0760
 3279TIP3   OH231327   4.406   0.379   3.678 -0.3268 -0.1955  0.0855
 3279TIP3    H131328   4.431   0.379   3.585 -1.5874 -1.2534 -0.2817
 3279TIP3    H231329   4.484   0.350   3.724  0.2591  0.1685 -0.6628
 3280TIP3   OH231330   0.309   0.633   1.500  0.4343  0.5268  0.2563
 3280TIP3    H131331   0.262   0.694   1.444 -1.2117 -0.4546  0.4920
 3280TIP3    H231332   0.271   0.646   1.587  2.4764  1.5470  1.0557
 3281TIP3   OH231333   3.318   5.443  16.120 -0.0362  0.1648 -0.6514
 3281TIP3    H131334   3.351   5.518  16.071 -1.4891  1.6031  0.5030
 3281TIP3    H231335   3.245   5.410  16.068  0.0533  0.0706 -0.7198
 3282TIP3   OH231336   2.120   3.902   5.765 -0.3855 -0.3163 -0.1800
 3282TIP3    H131337   2.173   3.869   5.838 -1.2917 -0.3709  0.4710
 3282TIP3    H231338   2.056   3.833   5.749 -1.4349  0.5197  0.2958
 3283TIP3   OH231339   4.890   6.826  17.100 -0.2768 -0.0822  0.9085
 3283TIP3    H131340   4.976   6.817  17.141  0.5342 -2.7132 -1.1234
 3283TIP3    H231341   4.903   6.894  17.034  0.7361 -1.5145 -0.4211
 3284TIP3   OH231342   0.166   4.061  16.227  0.3425  0.3665  0.2119
 3284TIP3    H131343   0.138   4.146  16.262 -0.6758 -0.2084  0.8510
 3284TIP3    H231344   0.125   3.996  16.284 -0.3862 -0.5911 -1.3155
 3285TIP3   OH231345   0.467   5.891   4.621 -0.0308  0.5364 -0.2916
 3285TIP3    H131346   0.460   5.934   4.706  0.3823 -0.9376  0.5286
 3285TIP3    H231347   0.377   5.866   4.600 -0.1368  0.9136 -0.2912
 3286TIP3   OH231348   2.163   5.797  14.168  0.3792 -0.0363 -0.1062
 3286TIP3    H131349   2.201   5.758  14.247  2.2894  1.2994 -0.2985
 3286TIP3    H231350   2.091   5.850  14.199 -0.9707 -2.0305  0.3612
 3287TIP3   OH231351   0.801   6.659   1.814  0.2836 -0.4168  0.3119
 3287TIP3    H131352   0.735   6.595   1.841  0.1711 -0.4308 -0.0050
 3287TIP3    H231353   0.812   6.646   1.720  1.5280 -1.1727  0.5299
 3288TIP3   OH231354   1.715   5.968  16.506  0.2472  0.1597  0.2839
 3288TIP3    H131355   1.665   5.887  16.511  0.4728  0.0668  1.2533
 3288TIP3    H231356   1.655   6.031  16.467 -0.3923 -0.1222  0.7960
 3289TIP3   OH231357   2.546   0.808   1.001  0.6276  0.6248 -0.3444
 3289TIP3    H131358   2.586   0.867   0.938 -1.0175  1.0813 -1.0147
 3289TIP3    H231359   2.576   0.721   0.974 -0.5880  0.7397 -2.2240
 3290TIP3   OH231360   1.755   1.396  12.637 -0.2451 -0.0156  0.5156
 3290TIP3    H131361   1.782   1.306  12.653 -0.7872 -0.2477  0.1899
 3290TIP3    H231362   1.836   1.446  12.636 -0.0945 -0.1406  2.8276
 3291TIP3   OH231363   1.709   5.156  15.602  0.3569 -0.2458 -0.4748
 3291TIP3    H131364   1.711   5.129  15.693  2.2121  1.2334 -0.0036
 3291TIP3    H231365   1.616   5.159  15.579 -0.1155 -0.9819  1.2390
 3292TIP3   OH231366   1.104   0.676  13.535 -0.0301 -0.0422  0.3576
 3292TIP3    H131367   1.169   0.613  13.567 -0.9544 -0.7781  0.8491
 3292TIP3    H231368   1.063   0.709  13.615 -1.7653 -1.2442  0.0271
 3293TIP3   OH231369   0.345   2.814  15.085  0.1433  0.1215 -0.2638
 3293TIP3    H131370   0.365   2.791  14.994  1.2476  0.1195 -0.0335
 3293TIP3    H231371   0.420   2.864  15.114 -0.2142  0.1434  0.6477
 3294TIP3   OH231372   4.224   2.095   2.136 -0.3422  0.0381  0.3326
 3294TIP3    H131373   4.248   2.094   2.043 -1.9680  0.5000 -0.1268
 3294TIP3    H231374   4.275   2.025   2.175  0.9710  0.3490 -0.7504
 3295TIP3   OH231375   1.469   5.226   1.805 -0.1845 -0.4294 -0.2815
 3295TIP3    H131376   1.518   5.304   1.777 -1.3058  0.2665 -0.3770
 3295TIP3    H231377   1.457   5.237   1.899  0.6693 -1.0856 -0.0883
 3296TIP3   OH231378   3.366   0.890   0.657  0.0746 -0.2949 -0.0894
 3296TIP3    H131379   3.427   0.838   0.605 -1.0935 -0.1586 -1.6797
 3296TIP3    H231380   3.350   0.968   0.604 -1.6853 -0.4679  0.1309
 3297TIP3   OH231381   0.209   2.242  13.440 -0.1950 -0.2446 -0.5516
 3297TIP3    H131382   0.171   2.329  13.428  2.1057  0.7026 -1.5115
 3297TIP3    H231383   0.286   2.256  13.495  1.2446 -1.3138 -2.1632
 3298TIP3   OH231384   1.163   1.376  14.188 -0.2093 -0.0694 -0.7104
 3298TIP3    H131385   1.122   1.443  14.134  0.8343  0.0762 -1.3717
 3298TIP3    H231386   1.244   1.416  14.219 -0.6309 -0.2765  0.7049
 3299TIP3   OH231387   6.323   3.690   5.699  0.4739  0.3360  0.0620
 3299TIP3    H131388   6.329   3.616   5.638  1.1620 -0.4301  1.0287
 3299TIP3    H231389   6.411   3.727   5.700  0.3167  0.7075  0.1523
 3300TIP3   OH231390   0.834   3.134  12.616 -0.4670  0.2585  0.0950
 3300TIP3    H131391   0.847   3.216  12.663  1.6522 -0.6695  1.2891
 3300TIP3    H231392   0.795   3.075  12.681  2.4494 -1.0237  0.8771
 3301TIP3   OH231393   4.693   2.393  11.371  0.2597  0.1504  0.3336
 3301TIP3    H131394   4.698   2.488  11.361 -0.3264  0.1258 -0.2876
 3301TIP3    H231395   4.772   2.369  11.419  0.9541  0.8239 -0.4506
 3302TIP3   OH231396   4.773   5.115   0.037  0.6172 -0.5585  0.2390
 3302TIP3    H131397   4.691   5.117  -0.012  1.4012 -0.6370 -1.1231
 3302TIP3    H231398   4.818   5.196   0.011  1.3845 -0.9784  0.2437
 3303TIP3   OH231399   4.721   6.510   0.679  0.2264  0.8903 -0.3360
 3303TIP3    H131400   4.639   6.463   0.690  0.5184  0.6751  1.1800
 3303TIP3    H231401   4.788   6.442   0.674  0.2691  1.0314 -2.3783
 3304TIP3   OH231402   2.193   1.906  15.646 -0.4305 -0.0793  0.6342
 3304TIP3    H131403   2.182   1.976  15.581 -1.8199  0.0574  0.9748
 3304TIP3    H231404   2.253   1.844  15.605 -1.6406 -0.2397 -1.0082
 3305TIP3   OH231405   3.026   2.136   1.660  0.1786 -0.1563  0.1809
 3305TIP3    H131406   3.004   2.124   1.567 -1.1946  0.0779  0.4469
 3305TIP3    H231407   2.971   2.072   1.705  2.3704 -1.7479  0.7188
 3306TIP3   OH231408   0.207   0.575   3.559  0.0265  0.1418 -0.2094
 3306TIP3    H131409   0.196   0.510   3.489  2.4095 -0.3967 -0.1592
 3306TIP3    H231410   0.283   0.627   3.533  0.0578  0.9001  1.2659
 3307TIP3   OH231411   5.743   2.024   4.454  0.1456  0.4948 -0.5594
 3307TIP3    H131412   5.656   1.984   4.455 -0.6511  1.8648  3.6626
 3307TIP3    H231413   5.728   2.112   4.421 -0.0895  0.7246  0.1499
 3308TIP3   OH231414   3.232   3.044  11.633  0.3509 -0.4844 -0.0275
 3308TIP3    H131415   3.197   3.082  11.714 -1.4624 -0.0559 -0.9465
 3308TIP3    H231416   3.268   3.119  11.584  0.6147 -0.6007 -0.0122
 3309TIP3   OH231417   4.159   0.029   5.137  0.1989  0.6017  0.1612
 3309TIP3    H131418   4.185  -0.034   5.069 -1.2608  0.3101 -0.1500
 3309TIP3    H231419   4.238   0.039   5.191  0.2461 -2.1820  0.7565
 3310TIP3   OH231420   0.360   0.303  12.191 -0.0059  0.2092  0.2744
 3310TIP3    H131421   0.362   0.302  12.286  0.4935  2.3910  0.3519
 3310TIP3    H231422   0.337   0.214  12.166  1.9073 -0.9725  2.3680
 3311TIP3   OH231423   0.625   1.888  11.648  0.1921  0.1324  0.0430
 3311TIP3    H131424   0.582   1.940  11.716  0.4368  0.9174 -0.3800
 3311TIP3    H231425   0.586   1.920  11.566  0.4693 -0.2387 -0.2325
 3312TIP3   OH231426   6.011   3.871   1.020  0.8393  0.2558 -0.6176
 3312TIP3    H131427   6.004   3.827   0.935  1.3074  1.2375 -1.1837
 3312TIP3    H231428   5.934   3.842   1.069  0.8838 -0.7995 -1.1462
 3313TIP3   OH231429   1.997   2.423  12.305 -0.3690 -0.1356 -0.4442
 3313TIP3    H131430   1.957   2.506  12.278  0.6450  0.2140 -0.9130
 3313TIP3    H231431   1.969   2.412  12.396  3.1400  3.1094  1.3055
 3314TIP3   OH231432   2.670   1.680   1.979  0.1721  0.7299 -0.1111
 3314TIP3    H131433   2.608   1.717   1.916  0.0633  0.7871  0.0282
 3314TIP3    H231434   2.732   1.751   1.996  0.9648  0.2999 -1.1366
 3315TIP3   OH231435   5.087   2.859   0.284  0.1886 -0.3012  0.0443
 3315TIP3    H131436   5.135   2.801   0.224  0.2050  2.1327 -2.5287
 3315TIP3    H231437   5.154   2.893   0.344  0.5926 -1.1899  0.1111
 3316TIP3   OH231438   1.674   5.143   2.925 -0.0947  1.0214 -0.0234
 3316TIP3    H131439   1.718   5.091   2.857  0.7696  1.3762  0.2513
 3316TIP3    H231440   1.669   5.084   3.000 -1.4849  0.4659 -0.5285
 3317TIP3   OH231441   3.795   0.046  12.168 -0.3773 -0.0265  0.0538
 3317TIP3    H131442   3.809   0.133  12.204 -0.3007  0.3755 -0.9007
 3317TIP3    H231443   3.862   0.036  12.101 -1.2102 -0.2762 -0.7708
 3318TIP3   OH231444   4.287   5.082   1.780 -0.0953 -0.1382  0.2632
 3318TIP3    H131445   4.317   5.027   1.853 -2.4756 -1.6903  0.2009
 3318TIP3    H231446   4.194   5.097   1.799 -0.8332 -0.7101 -2.4733
 3319TIP3   OH231447   4.105   0.120  16.763 -0.1777  0.5168 -0.2746
 3319TIP3    H131448   4.120   0.043  16.818 -0.0695  1.0422  0.4336
 3319TIP3    H231449   4.107   0.085  16.674 -2.6867 -0.7685  0.0773
 3320TIP3   OH231450   1.484   0.680  11.818  0.1012  0.6128 -0.0937
 3320TIP3    H131451   1.575   0.686  11.792 -0.4867  0.9162 -2.2989
 3320TIP3    H231452   1.442   0.756  11.776 -1.5586 -0.7605 -1.0579
 3321TIP3   OH231453   2.224   0.285  13.368  0.4534 -0.3507 -0.0650
 3321TIP3    H131454   2.213   0.380  13.374  0.2764 -0.3980  0.3560
 3321TIP3    H231455   2.318   0.271  13.374  0.6856 -0.0567 -2.1635
 3322TIP3   OH231456   0.410   4.875   2.134 -0.1227 -0.2207 -0.0808
 3322TIP3    H131457   0.381   4.913   2.217 -0.6139 -1.4849  0.3582
 3322TIP3    H231458   0.330   4.864   2.083  0.0843 -0.1331 -0.4299
 3323TIP3   OH231459   6.188   0.457  11.043  0.0997 -0.5442  0.1759
 3323TIP3    H131460   6.195   0.431  11.135  0.2442 -0.4372  0.1960
 3323TIP3    H231461   6.095   0.445  11.021 -0.0155 -0.1817  0.4523
 3324TIP3   OH231462   6.822   5.015  12.440 -0.0212  0.1745  0.8231
 3324TIP3    H131463   6.847   4.923  12.447  2.7353  0.6792 -0.8823
 3324TIP3    H231464   6.818   5.046  12.530  2.0693 -0.9171  1.3419
 3325TIP3   OH231465   6.779   2.217   3.620 -0.1533  0.1718 -0.0388
 3325TIP3    H131466   6.694   2.240   3.657 -0.5939  0.0635 -0.9648
 3325TIP3    H231467   6.758   2.161   3.545  0.7959 -1.3811  0.8019
 3326TIP3   OH231468   4.391   3.129  15.737  0.3770  0.1210 -0.4126
 3326TIP3    H131469   4.466   3.185  15.756  0.7813 -0.0785 -1.3560
 3326TIP3    H231470   4.425   3.060  15.680 -0.6324  0.3941 -1.4068
 3327TIP3   OH231471   2.223   6.644   5.535 -0.2823  0.3880 -0.0094
 3327TIP3    H131472   2.272   6.655   5.616  0.0002  1.2166 -0.2820
 3327TIP3    H231473   2.258   6.563   5.498  1.0143  1.0185 -0.2585
 3328TIP3   OH231474   2.427   3.367   5.870 -0.0774 -0.3969 -0.0249
 3328TIP3    H131475   2.493   3.330   5.811 -1.3796 -0.9273 -1.2053
 3328TIP3    H231476   2.467   3.447   5.904  1.2456 -0.8132 -0.5518
 3329TIP3   OH231477   0.386   0.381  12.474  0.2159 -0.2744  0.4963
 3329TIP3    H131478   0.456   0.402  12.536 -0.4774 -0.8129  1.4973
 3329TIP3    H231479   0.356   0.466  12.442  2.2968 -0.0782 -1.1119
 3330TIP3   OH231480   0.967   4.100   0.077  0.3885  0.7911 -0.8158
 3330TIP3    H131481   1.034   4.169   0.088 -0.0556  0.9089  2.1801
 3330TIP3    H231482   0.885   4.143   0.101  0.0768 -0.6646  0.9328
 3331TIP3   OH231483   3.692   0.349  17.085 -0.2295  0.2361 -0.0746
 3331TIP3    H131484   3.686   0.257  17.061 -1.6146  0.7431 -1.8043
 3331TIP3    H231485   3.784   0.361  17.110  1.3956 -0.5102 -4.8050
 3332TIP3   OH231486   0.062   1.837   0.833  0.2729  0.2204 -0.7940
 3332TIP3    H131487   0.013   1.755   0.844  1.9227 -0.7003  0.0481
 3332TIP3    H231488   0.030   1.873   0.750  0.1245 -1.7379 -1.6425
 3333TIP3   OH231489   1.875   4.864  16.795  0.1079  0.5674 -0.4326
 3333TIP3    H131490   1.839   4.861  16.707  0.4388 -1.5523 -0.5387
 3333TIP3    H231491   1.826   4.798  16.844 -1.3878  2.9483  1.5672
 3334TIP3   OH231492   5.754   5.961  13.751 -0.1340  0.3967  0.1769
 3334TIP3    H131493   5.761   5.994  13.661  2.9922  1.7861  0.8253
 3334TIP3    H231494   5.797   6.027  13.805 -1.0576 -0.8653  2.6196
 3335TIP3   OH231495   5.082   2.700   3.741  0.4980 -0.2941  0.2681
 3335TIP3    H131496   5.036   2.774   3.701 -1.2766 -0.1006  2.4764
 3335TIP3    H231497   5.105   2.644   3.666 -0.5777  1.1297 -1.2228
 3336TIP3   OH231498   5.523   6.114   2.384  0.1100  0.0072  0.9115
 3336TIP3    H131499   5.522   6.203   2.350 -1.9499  0.3915  1.8521
 3336TIP3    H231500   5.605   6.109   2.435  0.5054  1.1775  0.4214
 3337TIP3   OH231501   2.357   5.258   1.099  0.0437 -0.0730 -0.0155
 3337TIP3    H131502   2.447   5.281   1.077 -0.6044  2.2779 -0.5250
 3337TIP3    H231503   2.325   5.208   1.024  0.4176  0.5551 -0.5966
 3338TIP3   OH231504   0.822   4.946   0.567  0.2004  0.0132  0.2593
 3338TIP3    H131505   0.832   4.854   0.593 -0.6613 -0.9426 -2.4285
 3338TIP3    H231506   0.728   4.963   0.572  0.0912  0.0338 -1.2434
 3339TIP3   OH231507   5.956   5.236   4.340  0.2684 -0.0221  0.0135
 3339TIP3    H131508   5.961   5.163   4.279  0.0110 -1.5790  1.7646
 3339TIP3    H231509   6.043   5.242   4.379  0.5167  1.1460 -0.6527
 3340TIP3   OH231510   2.395   3.859   1.025  0.0394 -0.1322  0.6163
 3340TIP3    H131511   2.383   3.843   1.118 -4.4520 -2.1280 -0.0353
 3340TIP3    H231512   2.312   3.899   0.997  1.2275  0.3825 -2.5228
 3341TIP3   OH231513   4.631   5.474   2.743 -0.2344 -0.3283 -0.1174
 3341TIP3    H131514   4.563   5.488   2.677 -1.8573 -3.5890  0.6553
 3341TIP3    H231515   4.697   5.421   2.698  0.6983  0.8313 -0.1754
 3342TIP3   OH231516   3.247   0.295   5.501 -0.1567  0.1167  0.0277
 3342TIP3    H131517   3.281   0.332   5.420  0.8892 -0.2972  0.2617
 3342TIP3    H231518   3.215   0.208   5.476  1.4908 -0.6023  0.3030
 3343TIP3   OH231519   5.550   4.306   1.743  0.7452 -0.2388  0.4055
 3343TIP3    H131520   5.603   4.386   1.746 -0.5815  0.7620 -1.1043
 3343TIP3    H231521   5.492   4.312   1.818  1.4904 -0.4197  1.0062
 3344TIP3   OH231522   3.010   6.732   4.336  0.0486  0.0304 -0.7675
 3344TIP3    H131523   2.940   6.708   4.396  0.1609 -0.9427 -1.0138
 3344TIP3    H231524   2.997   6.826   4.321  0.9300  0.6924  1.9521
 3345TIP3   OH231525   6.014   1.816   1.467 -0.0945 -0.2988 -0.0599
 3345TIP3    H131526   6.016   1.903   1.427  0.7175 -0.2916 -0.0172
 3345TIP3    H231527   6.019   1.833   1.561 -0.5503 -0.3738 -0.0184
 3346TIP3   OH231528   1.346   2.923  11.552 -0.2528  0.2559 -0.3935
 3346TIP3    H131529   1.264   2.875  11.550 -0.7886  1.1286  0.2210
 3346TIP3    H231530   1.393   2.889  11.628 -0.5195  0.5117 -0.1118
 3347TIP3   OH231531   5.327   2.384   3.883  0.1843 -0.3592  0.2153
 3347TIP3    H131532   5.376   2.312   3.842 -2.2798 -0.7866 -2.2913
 3347TIP3    H231533   5.256   2.340   3.930  0.3302  0.3604  1.1334
 3348TIP3   OH231534   1.069   6.018   3.421 -0.0953 -0.3886 -0.3682
 3348TIP3    H131535   1.099   6.006   3.511 -0.2529  0.7715 -0.1556
 3348TIP3    H231536   1.131   5.966   3.369 -0.0113 -1.0749  0.3978
 3349TIP3   OH231537   5.573   6.066  13.955 -0.2217  0.2707  0.4079
 3349TIP3    H131538   5.593   6.012  13.879  0.1881  1.2303 -0.1921
 3349TIP3    H231539   5.517   6.011  14.010  0.2048 -0.7537 -0.1606
 3350TIP3   OH231540   0.072   5.154   3.832  0.1230 -0.0139  0.4320
 3350TIP3    H131541   0.085   5.152   3.927  3.0552  1.5023  0.1879
 3350TIP3    H231542   0.106   5.239   3.805 -2.7314  0.5750 -1.8103
 3351TIP3   OH231543   2.631   3.720  16.751 -0.5725  0.0653  0.4908
 3351TIP3    H131544   2.610   3.637  16.709 -0.1417  0.0583  0.2916
 3351TIP3    H231545   2.678   3.696  16.831  0.9715  0.1573 -0.3633
 3352TIP3   OH231546   1.619   3.426   1.285  0.1450  0.0424  1.1819
 3352TIP3    H131547   1.559   3.486   1.240 -0.2666  0.0960  1.7806
 3352TIP3    H231548   1.631   3.354   1.224  1.5037  1.2206  0.0067
 3353TIP3   OH231549   6.215   1.353  14.653 -0.2055 -0.1662  0.1154
 3353TIP3    H131550   6.199   1.411  14.578  1.6034  0.7942  0.4107
 3353TIP3    H231551   6.250   1.273  14.615  0.5030  0.2364 -0.1023
 3354TIP3   OH231552   3.246   3.893   3.828 -1.2180  0.5410  0.5357
 3354TIP3    H131553   3.187   3.828   3.866 -3.6987  0.9321 -2.3503
 3354TIP3    H231554   3.252   3.962   3.895 -1.7572 -0.7868  2.0069
 3355TIP3   OH231555   1.715   5.432   5.061 -0.0189 -0.0334  0.0057
 3355TIP3    H131556   1.777   5.366   5.031  0.7136 -0.5132  2.3408
 3355TIP3    H231557   1.683   5.399   5.145  0.4501  2.5879  1.3245
 3356TIP3   OH231558   5.813   4.488  17.089 -0.0222  0.1245 -0.3502
 3356TIP3    H131559   5.785   4.400  17.115  0.3007  0.0475 -0.2676
 3356TIP3    H231560   5.779   4.498  17.000  0.5428 -0.3560 -0.6281
 3357TIP3   OH231561   4.244   0.205   3.130 -0.2234 -0.1850 -0.2147
 3357TIP3    H131562   4.210   0.289   3.097 -1.8942 -0.3315  0.9992
 3357TIP3    H231563   4.246   0.148   3.053  0.1270  0.7216 -0.8929
 3358TIP3   OH231564   0.084   6.677  14.544  0.1182 -0.0629 -0.1989
 3358TIP3    H131565   0.007   6.732  14.558 -0.5038 -1.3432  1.8725
 3358TIP3    H231566   0.153   6.718  14.596 -0.6260 -1.6396  2.2474
 3359TIP3   OH231567   5.553   5.877  12.046  0.7633  0.0851  0.4508
 3359TIP3    H131568   5.542   5.972  12.040 -0.7900 -0.0811  0.1679
 3359TIP3    H231569   5.625   5.865  12.108  1.9971  1.4603 -0.6023
 3360TIP3   OH231570   1.847   5.637   6.291 -0.4399  0.2806 -0.5624
 3360TIP3    H131571   1.912   5.612   6.225 -1.4003 -0.5565 -1.2110
 3360TIP3    H231572   1.897   5.641   6.373  0.1375 -2.0194 -0.7334
 3361TIP3   OH231573   3.757   0.527   4.605  0.1131  0.3301  0.4266
 3361TIP3    H131574   3.777   0.520   4.512 -0.0299  2.0925  0.2424
 3361TIP3    H231575   3.731   0.438   4.630  1.1427 -0.4108 -0.9593
 3362TIP3   OH231576   4.592   0.464  14.492 -0.2821  0.2638 -0.1939
 3362TIP3    H131577   4.664   0.489  14.549 -1.5392 -0.4111  1.8093
 3362TIP3    H231578   4.629   0.396  14.435  0.7408  0.1009  0.6312
 3363TIP3   OH231579   6.613   3.249   3.432 -0.0514  0.3377 -0.2761
 3363TIP3    H131580   6.665   3.282   3.505 -0.2816  0.2540 -0.0732
 3363TIP3    H231581   6.527   3.231   3.470  0.9057 -3.6793  0.4274
 3364TIP3   OH231582   4.461   0.396   1.575  0.1825  0.4662 -0.2844
 3364TIP3    H131583   4.406   0.456   1.525  0.5094  0.2013 -0.9811
 3364TIP3    H231584   4.542   0.445   1.591 -0.7759  1.3898  2.0156
 3365TIP3   OH231585   1.885   6.629   0.193  0.7094  1.0196  0.9984
 3365TIP3    H131586   1.930   6.634   0.108 -0.1487  0.8700  0.5233
 3365TIP3    H231587   1.810   6.572   0.177  0.1303  1.5740  1.6776
 3366TIP3   OH231588   3.282   6.452  11.481 -0.5649  0.2719  0.1622
 3366TIP3    H131589   3.253   6.534  11.521 -2.6875 -0.0275 -0.6280
 3366TIP3    H231590   3.290   6.472  11.388  1.4345  0.1975  0.2764
 3367TIP3   OH231591   6.773   4.736   3.887  0.1646  0.6373  0.1795
 3367TIP3    H131592   6.723   4.813   3.859 -1.4837 -0.5463 -0.2792
 3367TIP3    H231593   6.854   4.740   3.836 -0.2846  1.6035 -0.4884
 3368TIP3   OH231594   0.425   3.898   1.259 -0.1391  0.3268  0.0840
 3368TIP3    H131595   0.347   3.932   1.302 -1.3162 -0.8609 -1.0325
 3368TIP3    H231596   0.415   3.924   1.168 -2.1535 -4.4184 -1.3457
 3369TIP3   OH231597   0.893   3.697   2.103  0.1111  0.0022  0.0556
 3369TIP3    H131598   0.825   3.726   2.042 -0.6226 -2.0744 -0.1810
 3369TIP3    H231599   0.869   3.736   2.187 -0.5380  0.4749 -0.3434
 3370TIP3   OH231600   1.041   6.173   1.116  0.0834  0.7320  0.4724
 3370TIP3    H131601   1.016   6.100   1.059 -3.0276  1.4547  0.6927
 3370TIP3    H231602   1.126   6.202   1.082  0.6081 -1.8461 -0.7084
 3371TIP3   OH231603   0.076   2.380   3.180 -0.7242  0.0242  0.0125
 3371TIP3    H131604   0.152   2.324   3.165 -0.7817 -0.1420  0.3338
 3371TIP3    H231605   0.085   2.450   3.116 -0.6496 -0.3503 -0.3915
 3372TIP3   OH231606   4.325   6.540   0.720  0.2297 -0.4650 -0.1605
 3372TIP3    H131607   4.328   6.459   0.772 -1.6047 -0.1618  0.4978
 3372TIP3    H231608   4.330   6.510   0.629  0.7575 -1.2270  0.1144
 3373TIP3   OH231609   0.422   1.699  12.576  0.4070  0.5359 -0.4289
 3373TIP3    H131610   0.424   1.609  12.543 -0.4430  0.5040 -0.3960
 3373TIP3    H231611   0.433   1.691  12.670  2.3457  0.5995 -0.5968
 3374TIP3   OH231612   1.210   4.867   4.881 -0.0093  0.0764  0.1553
 3374TIP3    H131613   1.253   4.928   4.941 -1.2192  0.0249  1.1004
 3374TIP3    H231614   1.120   4.860   4.913 -0.3520 -0.9158 -0.9341
 3375TIP3   OH231615   2.867   2.250  10.744 -0.0070  0.3026 -1.0669
 3375TIP3    H131616   2.836   2.226  10.832  0.7356  1.0229 -0.5994
 3375TIP3    H231617   2.794   2.298  10.705  0.2797  1.5161 -0.1735
 3376TIP3   OH231618   0.904   5.089  15.392  0.2747 -0.1122 -0.0386
 3376TIP3    H131619   0.944   5.017  15.344 -2.1896 -0.8020 -1.1953
 3376TIP3    H231620   0.905   5.163  15.331 -0.3406 -0.1780 -0.1298
 3377TIP3   OH231621   1.682   3.312  15.692 -0.0451  0.1755 -0.1218
 3377TIP3    H131622   1.648   3.393  15.731 -0.7568  0.1156 -0.6071
 3377TIP3    H231623   1.693   3.333  15.600  2.5847  0.6390  0.2035
 3378TIP3   OH231624   0.762   6.642  16.043 -0.4850 -0.1457 -0.5786
 3378TIP3    H131625   0.827   6.600  16.100  0.5694  1.6248 -0.3794
 3378TIP3    H231626   0.678   6.616  16.079  0.1169 -1.6171 -0.1544
 3379TIP3   OH231627   5.144   6.292   5.458  0.4659  0.4367  0.0064
 3379TIP3    H131628   5.075   6.326   5.516 -1.8603 -0.0693 -2.2665
 3379TIP3    H231629   5.207   6.364   5.451  0.8518  0.5235  3.0417
 3380TIP3   OH231630   4.126   2.721   1.547  0.2943 -0.0178  0.0062
 3380TIP3    H131631   4.126   2.673   1.629  0.4310 -0.3568 -0.1857
 3380TIP3    H231632   4.219   2.726   1.523  0.4375  1.6720  0.7789
 3381TIP3   OH231633   2.479   0.934  14.704 -0.1407 -0.2262  0.0377
 3381TIP3    H131634   2.573   0.917  14.698 -0.5733 -3.0277  0.1819
 3381TIP3    H231635   2.448   0.931  14.614 -0.2745 -0.5385  0.0935
 3382TIP3   OH231636   2.650   5.084   0.095 -0.1005  0.3600  0.0003
 3382TIP3    H131637   2.710   5.044   0.032 -2.3319 -0.6015 -1.6875
 3382TIP3    H231638   2.636   5.173   0.062 -2.1807 -0.4966 -1.7636
 3383TIP3   OH231639   3.854   3.381   2.995  0.5913 -0.5082  0.0692
 3383TIP3    H131640   3.869   3.355   3.086  1.6727  0.5339  0.2073
 3383TIP3    H231641   3.802   3.461   3.002 -2.1765 -2.1111 -0.3403
 3384TIP3   OH231642   0.545   4.164  17.020  0.2448 -0.7254 -0.8490
 3384TIP3    H131643   0.463   4.115  17.014 -0.6580  0.5323  0.4614
 3384TIP3    H231644   0.531   4.242  16.965  0.4875 -0.4340 -0.5064
 3385TIP3   OH231645   6.172   4.175   5.945  0.0892 -0.5668 -0.0588
 3385TIP3    H131646   6.195   4.189   5.853  1.2554 -1.3394  0.0781
 3385TIP3    H231647   6.081   4.203   5.953  0.6424  1.6492 -0.9232
 3386TIP3   OH231648   5.591   6.153   3.355 -0.2066 -0.2000 -0.1475
 3386TIP3    H131649   5.498   6.176   3.353  0.1675  1.4180 -0.2024
 3386TIP3    H231650   5.624   6.181   3.269  0.9476  2.1647  0.9766
 3387TIP3   OH231651   4.405   2.201   4.233  0.2991 -0.3451  0.2693
 3387TIP3    H131652   4.369   2.272   4.286 -2.6426 -2.2629  1.1116
 3387TIP3    H231653   4.378   2.222   4.144  1.9920  0.9807  0.0183
 3388TIP3   OH231654   0.072   5.290   2.315 -0.0111 -0.2018 -0.2405
 3388TIP3    H131655   0.022   5.278   2.234  0.4646  0.9014 -0.7145
 3388TIP3    H231656   0.095   5.382   2.316  1.4406 -0.5417  0.3093
 3389TIP3   OH231657   0.452   6.698  12.573  0.1419  0.0687  0.2087
 3389TIP3    H131658   0.390   6.677  12.642 -1.3139  0.0009 -1.0690
 3389TIP3    H231659   0.537   6.673  12.609 -0.5600  0.0977  1.9789
 3390TIP3   OH231660   0.929   6.262   4.154 -0.3059 -0.2923  0.0687
 3390TIP3    H131661   0.999   6.229   4.210 -1.1676 -0.4518  1.0862
 3390TIP3    H231662   0.855   6.276   4.214 -0.6744  1.3438 -0.7171
 3391TIP3   OH231663   4.615   1.261  13.037 -0.2712 -0.0636 -0.4368
 3391TIP3    H131664   4.680   1.244  12.969 -0.8081 -2.1754 -0.4649
 3391TIP3    H231665   4.533   1.227  13.003 -0.5463 -1.2101  1.2488
 3392TIP3   OH231666   4.292   0.900   2.710 -0.0077  0.1780 -0.2346
 3392TIP3    H131667   4.333   0.985   2.727 -2.2251  1.6633 -1.8160
 3392TIP3    H231668   4.198   0.918   2.711 -0.6690 -2.7299  1.5201
 3393TIP3   OH231669   4.697   5.615   3.852  0.0031  0.0099 -0.1841
 3393TIP3    H131670   4.755   5.686   3.826 -0.6383  0.0885 -1.4803
 3393TIP3    H231671   4.635   5.656   3.913  1.5272 -0.1785  1.5662
 3394TIP3   OH231672   3.218   3.270   6.477  0.1051  0.1559  0.4031
 3394TIP3    H131673   3.255   3.353   6.508 -1.4141  1.0513 -0.0800
 3394TIP3    H231674   3.131   3.293   6.445 -0.1004 -1.5250 -0.3531
 3395TIP3   OH231675   6.244   0.054  17.153 -0.6581  0.1882  0.1473
 3395TIP3    H131676   6.306   0.125  17.137 -1.5954  1.9344  3.3934
 3395TIP3    H231677   6.163   0.081  17.111 -0.0764 -0.7613 -1.6851
 3396TIP3   OH231678   4.489   1.328  14.844  0.8533  0.3018 -0.0352
 3396TIP3    H131679   4.561   1.349  14.904  0.2107  2.5288  0.0368
 3396TIP3    H231680   4.471   1.410  14.798 -1.6413 -0.1460 -0.0244
 3397TIP3   OH231681   1.569   5.080   4.302  0.3097  0.5977  0.5941
 3397TIP3    H131682   1.583   5.004   4.245  0.4669  1.2923 -0.3097
 3397TIP3    H231683   1.474   5.085   4.312  0.3443 -0.7884  2.1681
 3398TIP3   OH231684   6.177   5.231  12.638  0.2987  0.0956 -0.4420
 3398TIP3    H131685   6.254   5.283  12.659  0.9110 -0.2249 -1.8178
 3398TIP3    H231686   6.184   5.212  12.545 -0.3969 -1.6439 -0.1932
 3399TIP3   OH231687   5.265   1.242   1.090  0.9223 -0.0053  0.0299
 3399TIP3    H131688   5.322   1.255   1.014 -0.0327  2.4600 -0.3724
 3399TIP3    H231689   5.291   1.311   1.151 -1.9088  1.6079 -0.4167
 3400TIP3   OH231690   5.774   4.360  12.111  0.3239 -0.0509  0.5349
 3400TIP3    H131691   5.731   4.278  12.087  1.1716 -0.4261  0.2786
 3400TIP3    H231692   5.702   4.419  12.132 -0.2769 -1.6295  3.3907
 3401TIP3   OH231693   0.910   0.201  14.762 -0.0488  0.4382  0.2196
 3401TIP3    H131694   0.888   0.108  14.757  1.6379  0.0525 -1.1306
 3401TIP3    H231695   0.863   0.233  14.840 -0.8093 -1.4767  0.6057
 3402TIP3   OH231696   2.334   6.404  15.938  0.3359  0.2641 -0.3260
 3402TIP3    H131697   2.380   6.380  15.858  2.1038  1.1295  0.3826
 3402TIP3    H231698   2.338   6.500  15.941 -0.4926  0.2900  0.3479
 3403TIP3   OH231699   4.945   3.734  17.055  0.1652 -0.2131 -0.0937
 3403TIP3    H131700   4.959   3.738  16.961 -0.3127  0.5983 -0.1382
 3403TIP3    H231701   5.030   3.709  17.091  0.3167 -0.6468 -0.7487
 3404TIP3   OH231702   0.581   3.672   1.646  0.0531 -0.2060 -0.0709
 3404TIP3    H131703   0.654   3.686   1.586 -1.3686  0.5080 -1.7139
 3404TIP3    H231704   0.516   3.624   1.594 -0.2461 -1.8161  1.6877
 3405TIP3   OH231705   5.241   1.939   1.511 -0.4208  0.1382 -0.3174
 3405TIP3    H131706   5.174   2.004   1.490 -1.2902 -0.8930 -0.8788
 3405TIP3    H231707   5.290   1.977   1.584 -0.9927  1.3420 -0.5332
 3406TIP3   OH231708   6.755   3.336   3.642  0.0765  0.3507  0.0143
 3406TIP3    H131709   6.799   3.396   3.703  3.5975 -0.8553 -1.0602
 3406TIP3    H231710   6.750   3.253   3.690  0.5448  0.0459 -0.4583
 3407TIP3   OH231711   0.551   3.524   4.082 -0.0800  0.9923 -0.9924
 3407TIP3    H131712   0.574   3.433   4.102  0.4073  1.3553  0.1947
 3407TIP3    H231713   0.544   3.526   3.987  1.4958  0.0699 -1.1661
 3408TIP3   OH231714   4.195   0.789  12.214  0.1078 -0.0535 -0.7730
 3408TIP3    H131715   4.289   0.803  12.214 -0.1524  1.9364 -1.1050
 3408TIP3    H231716   4.184   0.703  12.172  1.8065 -0.9798  0.5398
 3409TIP3   OH231717   5.133   4.724  11.218  0.0987  0.1238 -0.3060
 3409TIP3    H131718   5.163   4.701  11.306  1.1413  0.0892 -0.6589
 3409TIP3    H231719   5.074   4.653  11.193  1.1711 -0.7921 -0.3148
 3410TIP3   OH231720   2.105   0.625   1.351  0.3313 -0.2284  0.5070
 3410TIP3    H131721   2.071   0.712   1.329 -0.0043 -0.3457  0.5719
 3410TIP3    H231722   2.028   0.569   1.357  0.6722 -1.0905 -1.9679
 3411TIP3   OH231723   4.714   3.362   1.422 -0.1317  0.7238 -0.2478
 3411TIP3    H131724   4.698   3.268   1.415  0.6051  0.5610  0.1390
 3411TIP3    H231725   4.796   3.376   1.376 -0.3354  1.2119 -0.4681
 3412TIP3   OH231726   2.009   6.259   2.472  0.1343  0.2068 -0.1373
 3412TIP3    H131727   2.026   6.282   2.563 -1.5521 -1.1564  0.5917
 3412TIP3    H231728   1.948   6.326   2.441  0.6604  0.6352 -0.2658
 3413TIP3   OH231729   6.356   5.683  12.171  0.2381 -0.0052 -0.0027
 3413TIP3    H131730   6.439   5.670  12.126  0.1139 -0.2185 -0.1745
 3413TIP3    H231731   6.324   5.594  12.188 -0.5254  0.0561 -1.0049
 3414TIP3   OH231732   1.773   2.834   5.729  0.9068  0.7885 -0.4026
 3414TIP3    H131733   1.865   2.853   5.743  0.9760 -0.5268  1.2932
 3414TIP3    H231734   1.736   2.827   5.818 -0.2420 -1.2687 -0.9633
 3415TIP3   OH231735   2.460   6.011   1.997 -0.6115 -0.1297 -0.2769
 3415TIP3    H131736   2.523   6.058   2.050 -0.6006 -0.3941 -0.0515
 3415TIP3    H231737   2.474   5.919   2.019 -0.2553 -0.2822 -1.1201
 3416TIP3   OH231738   1.697   5.536   4.346 -0.1442 -0.3104 -0.2587
 3416TIP3    H131739   1.693   5.450   4.388 -1.5074 -1.0073 -1.6971
 3416TIP3    H231740   1.748   5.590   4.406 -0.2715 -1.7996  1.2655
 3417TIP3   OH231741   3.731   4.204  12.563 -0.3136  0.2736  0.0937
 3417TIP3    H131742   3.696   4.253  12.488  0.2361 -0.8826 -0.9520
 3417TIP3    H231743   3.823   4.229  12.568  0.1982 -1.2064 -0.9847
 3418TIP3   OH231744   0.906   1.562  12.806 -0.4697 -0.2021 -0.2565
 3418TIP3    H131745   0.985   1.519  12.838  1.0939  2.6196  0.0064
 3418TIP3    H231746   0.836   1.531  12.864  0.4852 -2.3950 -0.1946
 3419TIP3   OH231747   2.977   3.267  10.933  0.3166 -0.6574  0.0803
 3419TIP3    H131748   2.893   3.221  10.936  0.3852 -0.8098 -0.3000
 3419TIP3    H231749   2.986   3.296  10.843  0.1180  0.4163  0.3974
 3420TIP3   OH231750   1.640   2.455  14.202  0.1853 -0.7566 -0.2256
 3420TIP3    H131751   1.711   2.518  14.213 -1.9341  1.4311  2.4271
 3420TIP3    H231752   1.666   2.379  14.255  0.9714 -0.3925 -0.0907
 3421TIP3   OH231753   3.499   1.880   5.627 -0.2381 -0.4619  0.0681
 3421TIP3    H131754   3.462   1.794   5.646  1.3791 -1.9612 -2.8087
 3421TIP3    H231755   3.547   1.868   5.545  0.9727  2.9536  0.0977
 3422TIP3   OH231756   2.933   3.567  11.015 -0.2124  0.6756  0.0660
 3422TIP3    H131757   2.947   3.489  10.960  1.7554  0.6634  0.5066
 3422TIP3    H231758   2.977   3.637  10.968  2.2945  0.4821  1.9686
 3423TIP3   OH231759   5.795   6.681   0.984 -0.0998  0.0459 -0.2984
 3423TIP3    H131760   5.823   6.607   1.038 -0.2363  2.1291  2.9093
 3423TIP3    H231761   5.873   6.708   0.937  0.0773 -1.7366 -1.1033
 3424TIP3   OH231762   4.519   6.757  15.493 -0.1004 -0.1799 -0.2016
 3424TIP3    H131763   4.591   6.730  15.550 -1.5223 -1.3084  1.1637
 3424TIP3    H231764   4.549   6.737  15.405  2.1020  1.4173  0.0795
 3425TIP3   OH231765   6.470   1.700   2.938  0.0462 -0.2093  0.0828
 3425TIP3    H131766   6.432   1.633   2.881 -1.6073 -0.1975  1.0852
 3425TIP3    H231767   6.408   1.773   2.932  1.0264  0.6540  0.1769
 3426TIP3   OH231768   1.783   1.502   0.480 -0.1605  0.5169 -0.0433
 3426TIP3    H131769   1.849   1.434   0.470 -1.0978 -0.2710 -1.0991
 3426TIP3    H231770   1.755   1.522   0.390 -1.9061  0.2576  0.4083
 3427TIP3   OH231771   0.879   3.229  12.286  0.1443 -0.0512  0.6236
 3427TIP3    H131772   0.938   3.158  12.313  0.4786  0.8814  2.5822
 3427TIP3    H231773   0.805   3.185  12.244  1.4980 -1.3537 -0.5139
 3428TIP3   OH231774   6.331   5.543   5.577 -0.6167 -0.4480  0.4568
 3428TIP3    H131775   6.311   5.453   5.553 -0.1571 -0.3103 -0.4922
 3428TIP3    H231776   6.411   5.537   5.629 -0.2583 -0.5521 -0.0924
 3429TIP3   OH231777   1.136   5.293   5.818 -0.6115 -0.3149  0.0089
 3429TIP3    H131778   1.190   5.353   5.766 -1.2908 -0.2484 -0.6360
 3429TIP3    H231779   1.086   5.351   5.876 -0.1304 -0.3634  0.4709
 3430TIP3   OH231780   3.271   2.524  16.076  0.9280 -0.2778  0.0538
 3430TIP3    H131781   3.261   2.613  16.042  1.2463 -0.5854 -0.8747
 3430TIP3    H231782   3.227   2.469  16.011  1.9547 -0.9185 -0.1176
 3431TIP3   OH231783   2.433   5.811  16.129  0.0543  0.6644 -0.0184
 3431TIP3    H131784   2.487   5.733  16.115  0.8227  0.9650  1.1653
 3431TIP3    H231785   2.485   5.866  16.187 -2.0505  0.4242  2.2223
 3432TIP3   OH231786   0.060   6.361  13.274  0.4321 -0.4385  0.4035
 3432TIP3    H131787   0.001   6.393  13.342  1.1587  0.9338  0.4283
 3432TIP3    H231788   0.135   6.421  13.277  0.4570 -0.2922 -1.6400
 3433TIP3   OH231789   4.964   0.444  16.087  0.8199  0.7050  0.0219
 3433TIP3    H131790   4.961   0.358  16.130 -1.2600  0.3524 -0.6912
 3433TIP3    H231791   5.041   0.487  16.124  0.0953 -0.2059  2.9122
 3434TIP3   OH231792   5.136   0.756  16.168  0.0007  0.0251  0.2536
 3434TIP3    H131793   5.043   0.779  16.172 -0.1491  0.1952 -2.5935
 3434TIP3    H231794   5.139   0.663  16.189 -0.6702  0.1928  1.1908
 3435TIP3   OH231795   6.724   0.981  12.500  0.1158  0.2996 -0.0184
 3435TIP3    H131796   6.763   0.991  12.414  0.6696  1.9626  0.3871
 3435TIP3    H231797   6.717   1.071  12.534 -1.7635 -0.1533  0.9382
 3436TIP3   OH231798   5.634   4.992   5.146  0.7719  0.3286 -0.8450
 3436TIP3    H131799   5.602   5.005   5.235 -0.4026  3.0910 -1.5573
 3436TIP3    H231800   5.666   4.902   5.144  0.8093  0.1928  2.3270
 3437TIP3   OH231801   2.519   0.753  13.989 -0.1026  0.1127 -0.5624
 3437TIP3    H131802   2.510   0.663  13.959 -0.5390 -0.3130  0.7656
 3437TIP3    H231803   2.563   0.745  14.074  0.2506  1.1869 -0.6311
 3438TIP3   OH231804   2.212   1.514   5.125  0.1813 -0.2251 -0.1188
 3438TIP3    H131805   2.307   1.524   5.131  0.0737  1.3051 -0.5630
 3438TIP3    H231806   2.199   1.452   5.053  0.8156  0.4321 -0.8057
 3439TIP3   OH231807   5.713   1.901  15.999 -0.1403 -0.5669  0.0646
 3439TIP3    H131808   5.719   1.806  16.001 -1.4575 -0.6829 -0.1953
 3439TIP3    H231809   5.619   1.919  15.989 -0.1695  0.7913  2.0717
 3440TIP3   OH231810   3.385   3.602  11.400 -0.4588 -0.6865 -0.4707
 3440TIP3    H131811   3.356   3.666  11.466  0.8117 -2.3640  1.8260
 3440TIP3    H231812   3.305   3.578  11.354 -1.7898 -0.8498  1.7632
 3441TIP3   OH231813   3.533   4.510  11.891  0.7135 -0.4601 -0.1223
 3441TIP3    H131814   3.580   4.582  11.848  2.8875 -1.6352  0.1212
 3441TIP3    H231815   3.571   4.507  11.979 -0.4122 -0.9936  0.3598
 3442TIP3   OH231816   4.741   6.514   4.956 -0.1710  0.0523 -0.3130
 3442TIP3    H131817   4.831   6.537   4.976 -0.1516 -0.9625  0.8426
 3442TIP3    H231818   4.728   6.545   4.866  0.2775  3.2507  0.5888
 3443TIP3   OH231819   6.306   5.772   3.124 -0.5253  0.9381 -0.0846
 3443TIP3    H131820   6.394   5.811   3.123 -0.3439  0.5531  0.7179
 3443TIP3    H231821   6.247   5.845   3.104 -0.0235  1.1762 -0.7392
 3444TIP3   OH231822   4.711   3.429  15.087 -0.4449  0.0474 -0.1605
 3444TIP3    H131823   4.708   3.514  15.045  2.2228 -0.2542 -1.1405
 3444TIP3    H231824   4.680   3.367  15.021  0.9149 -0.1040 -0.6655
 3445TIP3   OH231825   2.205   1.778  12.513  0.4562  0.5439 -0.6205
 3445TIP3    H131826   2.220   1.703  12.455 -0.3972 -0.6186  0.6126
 3445TIP3    H231827   2.110   1.786  12.518  0.5321  1.9503 -1.0014
 3446TIP3   OH231828   4.049   3.612   1.259 -0.1609  0.4323  0.1246
 3446TIP3    H131829   4.116   3.672   1.226 -0.4307  2.1801  2.5362
 3446TIP3    H231830   4.009   3.576   1.180  0.9753  2.3322 -1.4151
 3447TIP3   OH231831   4.000   2.626  15.249  0.5457 -0.2091  0.3872
 3447TIP3    H131832   4.050   2.545  15.238 -1.6982 -1.5042 -1.2812
 3447TIP3    H231833   4.042   2.689  15.191  0.7575 -1.0191 -0.3608
 3448TIP3   OH231834   6.197   3.160  13.957  0.1408 -0.3429  0.2436
 3448TIP3    H131835   6.214   3.215  13.880 -1.6810  0.1588  0.1475
 3448TIP3    H231836   6.202   3.070  13.924 -1.0207 -0.1353 -0.6097
 3449TIP3   OH231837   1.412   1.807   4.559  0.0656  0.0474 -0.5227
 3449TIP3    H131838   1.405   1.715   4.585 -2.9725  0.4847  0.4956
 3449TIP3    H231839   1.409   1.805   4.464  1.6320 -0.9428 -0.6021
 3450TIP3   OH231840   3.264   6.087  12.893 -0.6717 -0.3464  0.2486
 3450TIP3    H131841   3.294   6.156  12.952 -1.5270 -2.7776  3.8448
 3450TIP3    H231842   3.170   6.078  12.912 -1.2169 -0.6569 -2.2513
 3451TIP3   OH231843   1.474   0.090   0.731  0.1533  0.1059 -0.2574
 3451TIP3    H131844   1.461   0.166   0.674 -0.9764  0.8440  0.9359
 3451TIP3    H231845   1.386   0.056   0.746  0.5055 -0.5210  0.4458
 3452TIP3   OH231846   3.349   1.193   3.090 -0.7981 -0.5184  0.1537
 3452TIP3    H131847   3.407   1.126   3.125 -0.6736 -0.4327  0.1144
 3452TIP3    H231848   3.308   1.232   3.167 -1.1575 -0.8935  0.1569
 3453TIP3   OH231849   2.646   5.942   4.115 -0.4714 -0.4760  0.0972
 3453TIP3    H131850   2.727   5.913   4.073 -0.1229  0.1962  0.2875
 3453TIP3    H231851   2.634   5.882   4.188 -1.6841 -2.3687 -1.5781
 3454TIP3   OH231852   5.541   1.621   2.220 -0.1590 -0.0019  0.4687
 3454TIP3    H131853   5.517   1.636   2.128 -1.0566 -1.0840  0.5083
 3454TIP3    H231854   5.603   1.548   2.216  0.1076  0.2086  0.7056
 3455TIP3   OH231855   5.335   5.088   2.485 -0.2627 -0.2595 -0.2088
 3455TIP3    H131856   5.362   5.008   2.440  0.2858 -0.2407  0.0747
 3455TIP3    H231857   5.363   5.159   2.426 -1.0191 -0.2819 -0.6012
 3456TIP3   OH231858   5.072   4.246   1.419 -0.1823 -0.3424 -0.7445
 3456TIP3    H131859   5.082   4.340   1.408 -0.7248 -0.1330  0.3917
 3456TIP3    H231860   5.136   4.223   1.487 -1.4617 -0.4081  0.4992
 3457TIP3   OH231861   2.749   6.052  16.640  0.2292  0.3282  0.5871
 3457TIP3    H131862   2.697   6.132  16.644 -0.0841  0.1213  0.6596
 3457TIP3    H231863   2.686   5.982  16.655  0.7245  0.1463  1.9405
 3458TIP3   OH231864   0.577   4.279  15.629 -0.0438  0.3885 -0.1686
 3458TIP3    H131865   0.643   4.298  15.695 -1.0211 -2.1070  1.7230
 3458TIP3    H231866   0.614   4.208  15.577  0.5019  1.9861 -2.0675
 3459TIP3   OH231867   1.200   4.625   5.357  0.3588 -0.3370  0.7631
 3459TIP3    H131868   1.162   4.638   5.270 -0.5244  0.4219  1.2439
 3459TIP3    H231869   1.207   4.530   5.366  0.0667 -0.4364  0.0289
 3460TIP3   OH231870   1.226   3.015  11.121 -0.2512 -0.1869  0.1825
 3460TIP3    H131871   1.150   2.960  11.142  0.1191 -1.3949 -1.4464
 3460TIP3    H231872   1.221   3.087  11.185 -0.6935 -2.1238  2.4948
 3461TIP3   OH231873   5.596   2.185  11.650  0.3369 -0.0146 -0.0444
 3461TIP3    H131874   5.596   2.092  11.626 -1.1892 -0.1916  0.5454
 3461TIP3    H231875   5.634   2.187  11.738  1.6202  0.1050 -0.5727
 3462TIP3   OH231876   5.295   1.834   5.534  0.5763 -0.2259 -0.4714
 3462TIP3    H131877   5.275   1.927   5.521  0.2668  0.2702  2.6993
 3462TIP3    H231878   5.388   1.833   5.557  0.5831 -0.7108 -0.5178
 3463TIP3   OH231879   2.840   1.482   5.343  0.2195 -0.6806  0.4727
 3463TIP3    H131880   2.913   1.515   5.291  0.5269  0.2740  1.4828
 3463TIP3    H231881   2.870   1.486   5.433 -1.6743  1.5093  1.1212
 3464TIP3   OH231882   0.622   1.576  14.198 -0.3794 -0.2688 -0.4552
 3464TIP3    H131883   0.635   1.604  14.107  0.6313 -0.1894 -0.2980
 3464TIP3    H231884   0.699   1.524  14.218  0.3932  1.3122  0.9529
 3465TIP3   OH231885   6.706   0.888  12.875  0.1133  0.3847  0.5338
 3465TIP3    H131886   6.674   0.927  12.956 -0.5601  0.9900  0.0061
 3465TIP3    H231887   6.798   0.913  12.871  0.1116  0.4859  1.0355
 3466TIP3   OH231888   2.238   5.296   3.169 -0.0160 -0.1386  0.1985
 3466TIP3    H131889   2.328   5.308   3.200 -0.3812 -0.5123  1.4236
 3466TIP3    H231890   2.249   5.269   3.078  1.1434 -0.9606  0.5524
 3467TIP3   OH231891   5.057   1.199  13.775 -0.2621 -0.1831 -0.1065
 3467TIP3    H131892   5.034   1.256  13.848 -0.9786  1.0395 -1.2478
 3467TIP3    H231893   5.137   1.155  13.804 -2.3396 -2.4729  2.8564
 3468TIP3   OH231894   2.977   4.147  11.837 -0.3947 -0.1490  0.4197
 3468TIP3    H131895   2.981   4.103  11.922  0.3887  1.3304  1.1866
 3468TIP3    H231896   2.992   4.239  11.857  0.8922  0.0996 -1.4400
 3469TIP3   OH231897   2.113   2.590   6.096  0.1803  0.7546  0.1875
 3469TIP3    H131898   2.161   2.613   6.176 -1.2724  1.8960  0.7680
 3469TIP3    H231899   2.021   2.598   6.120 -0.2920  0.7651 -1.5137
 3470TIP3   OH231900   2.689   2.564  13.424  0.2997 -0.1899  0.3776
 3470TIP3    H131901   2.683   2.470  13.404  0.8144  0.0364 -0.9329
 3470TIP3    H231902   2.783   2.582  13.426  0.1978  0.6204 -1.0733
 3471TIP3   OH231903   0.272   0.933   0.867 -0.1081 -0.0075 -0.2995
 3471TIP3    H131904   0.211   1.006   0.851  1.6671  1.3984 -0.9353
 3471TIP3    H231905   0.295   0.902   0.779  0.2386 -0.4102 -0.0693
 3472TIP3   OH231906   3.503   5.920   3.809  0.1819 -0.9639  0.0801
 3472TIP3    H131907   3.487   5.886   3.897  0.8320 -1.9115 -0.1395
 3472TIP3    H231908   3.513   5.841   3.755 -0.8831 -0.4008 -0.9777
 3473TIP3   OH231909   1.560   4.565  16.850 -0.2166  0.1329 -0.0052
 3473TIP3    H131910   1.552   4.637  16.787 -1.4922 -0.2301 -0.2790
 3473TIP3    H231911   1.609   4.498  16.802  1.1829  0.8673  0.3297
 3474TIP3   OH231912   5.660   3.458   5.343 -0.8428  0.0648 -0.3211
 3474TIP3    H131913   5.713   3.462   5.422 -1.9419  1.6922  0.3959
 3474TIP3    H231914   5.590   3.397   5.364 -0.2714 -0.7022 -0.6180
 3475TIP3   OH231915   0.080   5.586   2.564  0.6225 -0.1565  0.1233
 3475TIP3    H131916   0.078   5.521   2.635  0.2324  0.1948  0.4358
 3475TIP3    H231917   0.166   5.627   2.572  0.7784 -0.4682  0.0729
 3476TIP3   OH231918   2.241   0.779  11.517 -0.0326 -0.8601  0.2198
 3476TIP3    H131919   2.204   0.849  11.462  0.6389  0.0766  0.9411
 3476TIP3    H231920   2.293   0.727  11.456  0.2219 -0.1780 -0.1655
 3477TIP3   OH231921   4.726   0.425  11.716  0.5100 -0.3564 -0.0242
 3477TIP3    H131922   4.734   0.338  11.757  1.2485 -0.1420  0.3074
 3477TIP3    H231923   4.806   0.470  11.741  1.2070 -0.3558 -2.0819
 3478TIP3   OH231924   5.280   2.997  11.872 -0.0352  0.4897  0.2061
 3478TIP3    H131925   5.323   3.013  11.956  1.2051 -0.6825 -0.1700
 3478TIP3    H231926   5.250   2.907  11.877 -2.9225  1.3643  0.6019
 3479TIP3   OH231927   4.449   6.567   3.180 -0.7133 -0.2425 -0.4007
 3479TIP3    H131928   4.521   6.505   3.192 -1.3829 -0.6483  1.9688
 3479TIP3    H231929   4.488   6.653   3.197 -0.9183 -0.5344  1.7385
 3480TIP3   OH231930   5.510   0.357  16.121 -0.4114  0.3527 -0.0697
 3480TIP3    H131931   5.503   0.320  16.209 -1.8458  0.4878 -0.0957
 3480TIP3    H231932   5.600   0.388  16.115 -0.4568  0.9302  1.5891
 3481TIP3   OH231933   1.081   5.170  12.522  0.0403 -0.6691 -0.8891
 3481TIP3    H131934   0.993   5.201  12.502 -0.0073 -0.2178 -0.0491
 3481TIP3    H231935   1.136   5.208  12.454  0.0748  1.7986  0.3986
 3482TIP3   OH231936   3.922   1.792  11.683 -0.7654 -0.2780  0.4847
 3482TIP3    H131937   3.953   1.845  11.757  1.4449 -1.4857  0.4883
 3482TIP3    H231938   3.866   1.725  11.723  0.3655 -0.8880  1.0919
 3483TIP3   OH231939   4.016   6.116   1.677  0.0374  0.3867  0.4477
 3483TIP3    H131940   4.094   6.149   1.631  0.2302 -0.9323 -0.2436
 3483TIP3    H231941   4.045   6.102   1.767  0.4986  0.2887  0.2866
 3484TIP3   OH231942   0.009   0.365   1.692 -0.4309 -0.2394 -0.4806
 3484TIP3    H131943   0.027   0.272   1.707  1.0567  0.0206 -0.4416
 3484TIP3    H231944   0.096   0.406   1.690 -0.9524  0.8852 -2.2887
 3485TIP3   OH231945   6.312   6.607  15.161  0.1123  0.3001 -0.2286
 3485TIP3    H131946   6.385   6.594  15.101  0.2951 -2.0847  0.4474
 3485TIP3    H231947   6.338   6.683  15.214  1.3562  0.4684 -1.0331
 3486TIP3   OH231948   4.118   3.975  11.488 -0.5431  0.2070  0.2457
 3486TIP3    H131949   4.193   4.029  11.464 -1.6437  1.5914 -0.1842
 3486TIP3    H231950   4.152   3.917  11.556  0.0339  3.5403  3.1288
 3487TIP3   OH231951   3.226   5.757  11.887 -0.7006 -0.6161  0.2803
 3487TIP3    H131952   3.179   5.839  11.872  0.4860 -0.0034 -0.1733
 3487TIP3    H231953   3.225   5.713  11.803  0.7815  0.0840 -0.1392
 3488TIP3   OH231954   2.374   5.910  17.164 -0.1293 -0.4578 -0.0630
 3488TIP3    H131955   2.311   5.969  17.123 -2.2981 -2.5136  0.1525
 3488TIP3    H231956   2.402   5.957  17.243 -2.1687  0.1090  0.3652
 3489TIP3   OH231957   6.680   3.896   3.339 -0.1327 -0.2416 -0.1791
 3489TIP3    H131958   6.601   3.845   3.323  0.5154 -1.1639 -0.5191
 3489TIP3    H231959   6.723   3.853   3.413  0.3980 -0.1640 -0.4331
 3490TIP3   OH231960   1.150   5.002  15.677  0.4409  0.3897 -0.7162
 3490TIP3    H131961   1.230   4.978  15.725  1.0238  0.5458 -1.5748
 3490TIP3    H231962   1.159   4.957  15.593 -0.6063  0.0441 -0.6625
 3491TIP3   OH231963   4.738   1.712  13.678  0.7935  0.2354 -0.5357
 3491TIP3    H131964   4.815   1.676  13.722  0.0413  0.3406  0.9534
 3491TIP3    H231965   4.733   1.803  13.710  0.3036  0.3570 -0.9511
 3492TIP3   OH231966   6.533   2.801  11.838  0.8602  0.1246  0.0499
 3492TIP3    H131967   6.591   2.738  11.880  2.6761  1.3619 -0.4744
 3492TIP3    H231968   6.446   2.779  11.871  1.8703 -0.4799  2.5366
 3493TIP3   OH231969   1.798   6.661   4.095 -0.3984 -0.2660 -0.2084
 3493TIP3    H131970   1.832   6.745   4.067  0.7571 -0.7850 -0.4353
 3493TIP3    H231971   1.830   6.651   4.185  0.9735 -1.1842 -0.7458
 3494TIP3   OH231972   4.367   6.276  16.310 -0.1937  0.8851 -0.1155
 3494TIP3    H131973   4.365   6.370  16.329  0.4524  0.4888  2.1257
 3494TIP3    H231974   4.458   6.251  16.321 -0.6261 -0.3060  0.9412
 3495TIP3   OH231975   1.036   1.984   1.816 -0.0551 -0.3144 -0.2915
 3495TIP3    H131976   1.019   1.967   1.723 -0.4504 -1.7846  0.0422
 3495TIP3    H231977   1.090   2.064   1.815 -1.2678  0.5457 -1.6909
 3496TIP3   OH231978   2.917   0.230   0.958 -0.2217  0.0896  0.0311
 3496TIP3    H131979   2.877   0.296   0.902 -1.5190 -0.7475 -0.0814
 3496TIP3    H231980   2.917   0.269   1.045 -1.2088  0.1653  0.0108
 3497TIP3   OH231981   0.131   1.510  16.977  0.4332  0.0547  0.3621
 3497TIP3    H131982   0.115   1.543  17.066  2.5293 -0.5462  1.0239
 3497TIP3    H231983   0.200   1.566  16.943 -0.5029  0.4230 -1.0298
 3498TIP3   OH231984   1.715   0.999   3.310 -0.2146  0.2888  0.2239
 3498TIP3    H131985   1.801   1.036   3.290  0.3293 -0.9550  0.1677
 3498TIP3    H231986   1.685   0.962   3.227 -0.3791 -0.1003  0.4515
 3499TIP3   OH231987   5.578   4.911  14.838 -0.1831 -0.0593  0.4001
 3499TIP3    H131988   5.661   4.927  14.794 -0.1863  2.1807  1.0921
 3499TIP3    H231989   5.513   4.960  14.788 -0.2537  2.1787  2.4688
 3500TIP3   OH231990   0.085   2.052   4.448 -0.2885 -0.3286 -0.9702
 3500TIP3    H131991   0.174   2.077   4.474 -0.6976  0.3819 -0.1964
 3500TIP3    H231992   0.076   1.962   4.479  0.8363 -1.1392 -2.8437
 3501TIP3   OH231993   6.823   6.264  13.021  0.0204 -0.3728  0.1115
 3501TIP3    H131994   6.778   6.341  12.988  0.8889 -0.1381 -0.5861
 3501TIP3    H231995   6.859   6.291  13.105  0.1233 -0.0833 -0.0243
 3502TIP3   OH231996   3.339   3.408   3.459  0.0132 -0.1840 -0.1440
 3502TIP3    H131997   3.304   3.480   3.513 -0.0258 -0.2812 -0.0380
 3502TIP3    H231998   3.431   3.402   3.485 -0.0613 -0.3808  0.0795
 3503TIP3   OH231999   1.720   6.830   0.314  0.0289  0.4858  0.3688
 3503TIP3    H132000   1.803   6.785   0.302 -0.4999 -0.3422 -0.2298
 3503TIP3    H232001   1.665   6.768   0.362 -0.5783  0.6308 -0.1266
 3504TIP3   OH232002   0.831   4.471  14.691  0.5421 -0.2407  0.1870
 3504TIP3    H132003   0.905   4.428  14.647  0.5240 -0.5015  0.4094
 3504TIP3    H232004   0.756   4.416  14.670  0.3999  0.0558 -0.0841
 3505TIP3   OH232005   1.893   4.819  16.449  0.4631  0.7547 -0.4824
 3505TIP3    H132006   1.987   4.820  16.432  0.8586  0.4380  1.3906
 3505TIP3    H232007   1.853   4.862  16.373  2.1479  1.2738 -1.1036
 3506TIP3   OH232008   6.122   5.177   5.218 -0.2275  0.2257  0.0651
 3506TIP3    H132009   6.083   5.181   5.306 -1.1314 -1.6312 -0.1984
 3506TIP3    H232010   6.050   5.150   5.162  0.9318 -1.1838 -0.8072
 3507TIP3   OH232011   2.149   4.878  16.236 -0.0214 -0.2919  0.5877
 3507TIP3    H132012   2.108   4.831  16.162  0.9943 -2.7667  1.4852
 3507TIP3    H232013   2.100   4.960  16.242 -3.5694 -2.1676  0.3369
 3508TIP3   OH232014   2.765   0.264   4.104 -0.3462 -0.1658  0.1798
 3508TIP3    H132015   2.724   0.350   4.103  0.2801  0.1377  0.0563
 3508TIP3    H232016   2.779   0.242   4.012 -1.0764 -0.6831  0.1854
 3509TIP3   OH232017   0.053   2.028   1.063  0.4545  0.4044 -0.9148
 3509TIP3    H132018  -0.026   1.994   1.106  1.3510 -1.3013 -0.5331
 3509TIP3    H232019   0.059   1.979   0.981  1.1878  0.4546 -0.8937
 3510TIP3   OH232020   3.951   0.228   1.965  0.5109  0.1450  0.1146
 3510TIP3    H132021   3.970   0.135   1.975  0.0157 -0.3328 -2.4774
 3510TIP3    H232022   3.855   0.233   1.966  0.5465  0.9247  2.0752
 3511TIP3   OH232023   0.536   4.838  10.746 -0.0226  0.6112 -0.1071
 3511TIP3    H132024   0.578   4.752  10.739 -0.2983  0.4323  0.3455
 3511TIP3    H232025   0.607   4.900  10.733  0.2048  0.3144 -0.3130
 3512TIP3   OH232026   3.132   6.263   1.616  0.3197  0.3184  0.0067
 3512TIP3    H132027   3.156   6.356   1.607  2.3308 -0.0237  1.3559
 3512TIP3    H232028   3.210   6.215   1.589  0.5032 -0.9046  2.4230
 3513TIP3   OH232029   3.145   2.094   4.860  0.0840 -0.1574 -0.1390
 3513TIP3    H132030   3.226   2.096   4.809 -0.3792 -2.2140 -1.0337
 3513TIP3    H232031   3.079   2.060   4.801 -1.4901  1.4416  0.5922
 3514TIP3   OH232032   5.054   3.684   1.526 -0.1694 -0.2577 -0.3025
 3514TIP3    H132033   5.034   3.735   1.447 -2.4802 -1.7237 -0.7810
 3514TIP3    H232034   5.020   3.737   1.598 -0.1729  0.0526 -0.5302
 3515TIP3   OH232035   4.980   0.989  14.964 -0.5335  0.1973  0.3366
 3515TIP3    H132036   5.029   1.071  14.965 -1.4300  0.7301  1.2534
 3515TIP3    H232037   4.970   0.969  14.871 -2.3610  2.4006 -0.0350
 3516TIP3   OH232038   3.655   1.545  14.921 -0.2470  0.3808 -0.0677
 3516TIP3    H132039   3.570   1.546  14.965 -0.3908  0.2461 -0.3373
 3516TIP3    H232040   3.678   1.452  14.917  0.4770  0.4883  1.0739
 3517TIP3   OH232041   4.179   5.654   2.625  0.2198 -0.4865 -0.4094
 3517TIP3    H132042   4.179   5.720   2.556 -2.9201  1.5914  1.3090
 3517TIP3    H232043   4.127   5.583   2.590 -1.4866  0.6205 -0.2565
 3518TIP3   OH232044   3.147   3.567  11.173 -0.2213 -0.0952  0.3970
 3518TIP3    H132045   3.211   3.566  11.102  1.8940 -2.7542  2.1205
 3518TIP3    H232046   3.064   3.545  11.131  0.8191 -0.8316 -1.3664
 3519TIP3   OH232047   3.366   6.481  13.617  0.2993  0.4804  0.3246
 3519TIP3    H132048   3.450   6.518  13.590  0.8204  0.1154  1.3878
 3519TIP3    H232049   3.361   6.497  13.711 -1.2924  1.3771  0.1160
 3520TIP3   OH232050   5.607   3.542   0.206  0.0821 -0.1991  0.2972
 3520TIP3    H132051   5.687   3.577   0.246 -0.2613  0.6766  0.2405
 3520TIP3    H232052   5.542   3.545   0.276  0.2582 -1.5513  0.5385
 3521TIP3   OH232053   3.309   0.959   1.882 -0.0630 -0.3930 -0.6912
 3521TIP3    H132054   3.256   0.892   1.840  0.2092 -0.5003 -0.8676
 3521TIP3    H232055   3.392   0.958   1.834  1.1702 -2.1291  1.2954
 3522TIP3   OH232056   0.003   1.858  10.066 -0.0951  0.1270  0.1612
 3522TIP3    H132057   0.023   1.828  10.154  1.2046  0.4675 -0.0070
 3522TIP3    H232058  -0.051   1.788  10.028 -0.5157 -0.0976  1.1584
 3523TIP3   OH232059   5.896   4.352   1.602 -0.0144 -0.1139 -0.2764
 3523TIP3    H132060   5.955   4.358   1.677 -0.3172  0.5364 -0.0821
 3523TIP3    H232061   5.894   4.259   1.580  0.4537 -0.2447  0.2176
 3524TIP3   OH232062   2.248   1.463  16.659  0.0779 -0.5503  0.9009
 3524TIP3    H132063   2.231   1.437  16.569 -0.6124 -0.2463  0.9328
 3524TIP3    H232064   2.343   1.471  16.665  0.0478  0.9630 -0.2318
 3525TIP3   OH232065   4.981   5.117   4.818  0.7995  0.0925  0.2886
 3525TIP3    H132066   4.927   5.189   4.851  2.3185  0.3920  2.3304
 3525TIP3    H232067   4.918   5.058   4.776 -1.0726  0.7201  2.0112
 3526TIP3   OH232068   5.613   2.589   5.659 -0.1535 -0.3756  0.5104
 3526TIP3    H132069   5.640   2.555   5.744  0.4358  0.2707  0.5904
 3526TIP3    H232070   5.675   2.552   5.597 -0.0164 -0.1119  0.4888
 3527TIP3   OH232071   4.810   3.389  14.826 -0.0564  0.0332 -0.2681
 3527TIP3    H132072   4.864   3.378  14.748  0.1370  0.8159 -0.2526
 3527TIP3    H232073   4.869   3.426  14.891 -0.0404 -1.2276  0.4830
 3528TIP3   OH232074   2.971   4.767   2.114 -0.0352  0.2553 -0.0543
 3528TIP3    H132075   3.067   4.771   2.107  0.1149 -0.8243  1.0255
 3528TIP3    H232076   2.955   4.751   2.207 -1.3519  2.3385  0.1314
 3529TIP3   OH232077   3.743   5.918  16.909  0.2170  0.2344 -0.4930
 3529TIP3    H132078   3.672   5.901  16.847 -0.6514 -0.1098  0.5445
 3529TIP3    H232079   3.701   5.969  16.979  0.4272 -1.8360  1.2259
 3530TIP3   OH232080   4.329   4.458   0.275  0.1440  0.3071  0.1223
 3530TIP3    H132081   4.361   4.535   0.322 -0.0785  0.1418  0.5438
 3530TIP3    H232082   4.388   4.450   0.200 -1.1912  2.2680 -1.2402
 3531TIP3   OH232083   2.466   2.484   3.593  0.1033 -0.3174 -0.1964
 3531TIP3    H132084   2.435   2.570   3.566 -0.3284 -0.4071  0.0048
 3531TIP3    H232085   2.484   2.493   3.686 -1.6945 -0.9152  0.2588
 3532TIP3   OH232086   0.159   1.819  13.171  0.1155  0.2598  0.6393
 3532TIP3    H132087   0.249   1.793  13.191 -0.1302 -1.6240 -0.4868
 3532TIP3    H232088   0.161   1.915  13.173  1.8967  0.2493  1.6075
 3533TIP3   OH232089   1.860   2.464   5.365 -0.3508 -1.1750  0.0128
 3533TIP3    H132090   1.860   2.553   5.402 -1.4587 -0.9961 -0.3625
 3533TIP3    H232091   1.947   2.429   5.386 -0.3643 -0.4928  1.3341
 3534TIP3   OH232092   5.243   2.523   1.306 -0.3337  0.4210 -0.4413
 3534TIP3    H132093   5.195   2.540   1.225 -0.8624 -0.5763 -0.3408
 3534TIP3    H232094   5.189   2.562   1.375  0.3190  1.6406 -0.5880
 3535TIP3   OH232095   4.538   4.913  11.338  0.0312  0.1509 -0.3057
 3535TIP3    H132096   4.590   4.922  11.258  1.3257 -0.3221  0.4444
 3535TIP3    H232097   4.464   4.859  11.312 -0.4807  1.3840 -1.5632
 3536TIP3   OH232098   0.268   6.779  15.117  0.2138 -0.1183  0.3486
 3536TIP3    H132099   0.219   6.765  15.035  0.2323 -0.2009  0.3522
 3536TIP3    H232100   0.312   6.863  15.104  1.9674 -1.1428 -0.5908
 3537TIP3   OH232101   6.500   4.470   2.849 -0.5256 -0.4668  0.0659
 3537TIP3    H132102   6.575   4.420   2.880 -0.0490 -0.2425 -0.7063
 3537TIP3    H232103   6.480   4.434   2.763 -1.2953 -0.5090  0.2523
 3538TIP3   OH232104   1.225   5.508  16.379  0.3765 -0.6195 -0.2844
 3538TIP3    H132105   1.210   5.542  16.468  0.6214  0.8835 -0.7816
 3538TIP3    H232106   1.313   5.470  16.382  1.4009  1.5866 -0.4512
 3539TIP3   OH232107   2.272   4.333   6.143 -0.2725  0.0183 -0.2335
 3539TIP3    H132108   2.199   4.391   6.163 -1.0478 -0.5196 -1.3819
 3539TIP3    H232109   2.350   4.389   6.152 -0.8907  0.8400  0.1321
 3540TIP3   OH232110   4.308   3.074  12.301 -0.0209  0.5052  0.5922
 3540TIP3    H132111   4.397   3.100  12.324 -0.1575 -0.1625  1.9529
 3540TIP3    H232112   4.252   3.137  12.347 -0.2834  0.8000 -0.0997
 3541TIP3   OH232113   5.263   5.301  16.036  0.0005 -0.3925 -0.3235
 3541TIP3    H132114   5.253   5.289  16.131 -0.1627 -1.1136 -0.4261
 3541TIP3    H232115   5.339   5.359  16.027  1.6270 -2.3236  0.1818
 3542TIP3   OH232116   3.564   1.031   6.094  0.0266 -0.6139 -0.8562
 3542TIP3    H132117   3.518   1.039   6.010  0.2350  0.1489 -0.9040
 3542TIP3    H232118   3.495   1.010   6.157 -0.0095 -2.1620 -1.3530
 3543TIP3   OH232119   2.455   1.050   4.503 -0.6142 -0.6716 -0.3441
 3543TIP3    H132120   2.457   1.100   4.584  0.4315  0.4293 -1.0238
 3543TIP3    H232121   2.547   1.041   4.477 -0.9361 -0.7900 -1.5332
 3544TIP3   OH232122   4.339   4.788  12.816  0.1398 -0.1336 -0.0495
 3544TIP3    H132123   4.432   4.770  12.808  0.0799 -0.3758 -0.2215
 3544TIP3    H232124   4.321   4.853  12.748  0.1427 -0.2439 -0.1551
 3545TIP3   OH232125   0.391   1.334   3.179  0.0352 -0.7138 -0.0711
 3545TIP3    H132126   0.403   1.297   3.091 -1.3178 -0.0930 -0.5556
 3545TIP3    H232127   0.444   1.414   3.178  0.5543 -1.0514 -0.0788
 3546TIP3   OH232128   2.489   1.966   5.532  0.1102 -0.5175 -0.0428
 3546TIP3    H132129   2.531   1.947   5.616 -2.1973 -0.0466  1.3111
 3546TIP3    H232130   2.445   2.050   5.546 -0.3481 -0.4493 -1.7276
 3547TIP3   OH232131   1.856   3.087   1.182 -0.2498  0.3197 -0.6566
 3547TIP3    H132132   1.884   3.164   1.231 -1.0376 -1.8597  3.7025
 3547TIP3    H232133   1.764   3.076   1.206  0.0219 -2.2969 -0.5225
 3548TIP3   OH232134   0.195   0.307   4.219  0.1194 -0.3759 -0.1618
 3548TIP3    H132135   0.186   0.335   4.310  1.4400 -1.6513  0.4055
 3548TIP3    H232136   0.235   0.382   4.174 -1.0910  0.4816  0.1339
 3549TIP3   OH232137   3.225   0.839   2.222  0.1063 -0.1566  0.8574
 3549TIP3    H132138   3.243   0.752   2.187  0.6119 -0.0642  0.8778
 3549TIP3    H232139   3.149   0.827   2.280 -0.7609 -0.3023 -0.2809
 3550TIP3   OH232140   5.635   3.852   5.324 -0.0951  0.3174  0.2326
 3550TIP3    H132141   5.706   3.878   5.265 -1.2217  0.3785 -1.1439
 3550TIP3    H232142   5.671   3.777   5.372  0.9646  0.4568 -0.3064
 3551TIP3   OH232143   4.696   4.318   1.703  0.3737 -0.2879  0.0660
 3551TIP3    H132144   4.630   4.344   1.639  1.5827  0.5404 -0.9032
 3551TIP3    H232145   4.712   4.397   1.754 -1.1489 -1.1480  1.9761
 3552TIP3   OH232146   1.689   6.640  13.009  0.0427  0.1641 -0.1552
 3552TIP3    H132147   1.724   6.704  13.071  0.7773  0.9805 -1.3669
 3552TIP3    H232148   1.699   6.556  13.053  2.0867  0.5435  0.2036
 3553TIP3   OH232149   2.112   1.669   1.909  0.1766 -0.0856  0.2197
 3553TIP3    H132150   2.147   1.624   1.832  0.1585  1.0219 -0.4612
 3553TIP3    H232151   2.189   1.694   1.960  0.1500 -2.3243  1.5062
 3554TIP3   OH232152   0.269   3.531   2.138 -0.2698 -0.2724 -0.0621
 3554TIP3    H132153   0.235   3.485   2.061 -1.1742  0.2344  0.0286
 3554TIP3    H232154   0.294   3.461   2.198 -1.7655 -0.6632  0.1330
 3555TIP3   OH232155   3.512   0.785   5.226  0.0456  0.2947 -0.0019
 3555TIP3    H132156   3.444   0.777   5.159 -0.2584 -0.6156  0.4107
 3555TIP3    H232157   3.579   0.840   5.184 -0.8558  1.0841 -0.4651
 3556TIP3   OH232158   5.048   2.895  12.566  0.0258 -0.0054  0.5005
 3556TIP3    H132159   5.112   2.887  12.496  0.4487  2.1982  0.5776
 3556TIP3    H232160   4.963   2.893  12.521  0.2070 -0.6640  0.1672
 3557TIP3   OH232161   0.926   0.888  16.350  0.0448 -0.0197 -0.2447
 3557TIP3    H132162   0.866   0.853  16.416  2.4258 -1.5601  1.2544
 3557TIP3    H232163   1.004   0.915  16.400  0.3912  2.6815 -1.9832
 3558TIP3   OH232164   2.195   3.601  12.339  0.2041 -0.3029 -0.4572
 3558TIP3    H132165   2.177   3.509  12.361 -1.2520 -0.3558 -1.7202
 3558TIP3    H232166   2.137   3.650  12.397 -0.7010 -0.2924 -1.3459
 3559TIP3   OH232167   3.756   0.741  16.266  0.0719  0.8701  0.7472
 3559TIP3    H132168   3.753   0.767  16.358  0.9015  1.7916  0.5257
 3559TIP3    H232169   3.689   0.672  16.258 -0.0662  0.8425  2.0090
 3560TIP3   OH232170   3.582   2.683   5.659  0.3554  0.1987 -0.1932
 3560TIP3    H132171   3.523   2.668   5.585 -1.6161  1.1512  1.1342
 3560TIP3    H232172   3.573   2.605   5.713  0.8354  0.0661 -0.2939
 3561TIP3   OH232173   4.570   3.598   1.355  0.4945  0.2176  0.2546
 3561TIP3    H132174   4.575   3.666   1.422  0.2745  0.8225 -0.3349
 3561TIP3    H232175   4.622   3.525   1.391 -0.4022  0.1588  1.4939
 3562TIP3   OH232176   6.489   3.250   3.171  0.1593 -0.1343 -0.4883
 3562TIP3    H132177   6.558   3.190   3.199  1.1965  1.0771 -0.3778
 3562TIP3    H232178   6.435   3.262   3.250  0.3221 -0.4116 -0.3320
 3563TIP3   OH232179   3.380   5.538  11.421  0.1397 -0.2940  0.8224
 3563TIP3    H132180   3.339   5.562  11.337  3.0371  0.3837 -0.5268
 3563TIP3    H232181   3.350   5.448  11.437 -0.1482 -0.6191 -1.2014
 3564TIP3   OH232182   3.151   2.099  15.310 -0.3543 -0.2980  0.0636
 3564TIP3    H132183   3.123   2.031  15.249 -0.1585  0.6348 -1.1108
 3564TIP3    H232184   3.119   2.180  15.270 -0.3362  0.3197  1.2861
 3565TIP3   OH232185   0.460   4.494  11.851 -0.6201  0.1977 -0.0406
 3565TIP3    H132186   0.423   4.576  11.883 -0.1169  0.7551 -0.8434
 3565TIP3    H232187   0.453   4.500  11.756 -0.7046 -0.7551 -0.1095
 3566TIP3   OH232188   4.753   0.381   1.852 -0.3041 -0.0672  0.6936
 3566TIP3    H132189   4.740   0.389   1.758 -1.7189  0.8512  0.9420
 3566TIP3    H232190   4.820   0.312   1.861 -1.5047 -1.5277 -0.8978
 3567TIP3   OH232191   5.959   6.234   5.338 -0.0375 -0.1266 -0.3050
 3567TIP3    H132192   5.896   6.243   5.410  0.1506 -0.5091 -0.0877
 3567TIP3    H232193   6.044   6.246   5.380  0.3176 -3.4310  0.1813
 3568TIP3   OH232194   6.731   5.448  14.796 -0.1349  0.8220  0.4064
 3568TIP3    H132195   6.801   5.427  14.858  0.1652 -0.1636 -0.2454
 3568TIP3    H232196   6.760   5.529  14.754 -0.1129  1.2399  1.1990
 3569TIP3   OH232197   4.689   2.715  13.092  0.7186 -0.2373 -0.6118
 3569TIP3    H132198   4.751   2.775  13.049 -1.0900  1.4973 -0.9594
 3569TIP3    H232199   4.654   2.765  13.166  0.9298 -1.7924  0.5881
 3570TIP3   OH232200   5.411   2.246   4.184  0.9315  0.1276 -0.1602
 3570TIP3    H132201   5.502   2.275   4.177  0.6014  0.9416 -1.2612
 3570TIP3    H232202   5.379   2.245   4.094 -0.2351  0.1215  0.2374
 3571TIP3   OH232203   6.047   4.427   1.397  0.7233 -0.1123  0.4642
 3571TIP3    H132204   5.984   4.410   1.467  1.7758  0.5330  1.6229
 3571TIP3    H232205   6.059   4.343   1.354 -0.6369 -0.3189  0.4693
 3572TIP3   OH232206   5.920   2.726   5.409  0.1230  0.2915 -0.2664
 3572TIP3    H132207   5.912   2.673   5.330 -1.6234  0.9337 -0.5682
 3572TIP3    H232208   5.830   2.737   5.440  0.6809  0.9502  1.2114
 3573TIP3   OH232209   1.192   0.580  17.065 -0.3103  0.0294  0.2374
 3573TIP3    H132210   1.280   0.581  17.028 -0.2407  0.5047  0.4055
 3573TIP3    H232211   1.200   0.532  17.147 -0.2231 -0.0070  0.2073
 3574TIP3   OH232212   3.670   2.105  15.239 -0.0869  0.4884  0.5364
 3574TIP3    H132213   3.710   2.060  15.313  1.6629  1.7556  0.4342
 3574TIP3    H232214   3.724   2.183  15.226 -0.8970  0.7903 -1.4830
 3575TIP3   OH232215   4.890   5.271   1.951  0.6615  0.2311 -0.0114
 3575TIP3    H132216   4.799   5.263   1.980  0.3611 -0.4395 -1.0682
 3575TIP3    H232217   4.942   5.253   2.029 -0.1176  0.0526  0.4761
 3576TIP3   OH232218   1.824   3.467   4.074  0.3157 -0.1874  0.4096
 3576TIP3    H132219   1.895   3.457   4.011  0.6915  1.6036  0.5168
 3576TIP3    H232220   1.747   3.485   4.021 -0.1437 -2.2379  0.2861
 3577TIP3   OH232221   4.657   5.744  15.054  0.1297  0.0213 -0.4115
 3577TIP3    H132222   4.727   5.768  15.114  0.5298 -0.1858 -0.7866
 3577TIP3    H232223   4.581   5.726  15.110  0.6489 -0.7135  0.0769
 3578TIP3   OH232224   4.438   3.491   2.447  0.8198 -0.1324  0.2532
 3578TIP3    H132225   4.500   3.557   2.478  0.1190  0.2290  0.9323
 3578TIP3    H232226   4.487   3.409   2.448  1.7792  0.3964 -0.8225
 3579TIP3   OH232227   2.399   4.652   4.162 -0.2017 -0.2852  0.3904
 3579TIP3    H132228   2.399   4.598   4.083 -2.7728  1.5904 -1.0404
 3579TIP3    H232229   2.430   4.737   4.133 -0.9000  0.3569  1.4543
 3580TIP3   OH232230   5.791   0.483   6.612 -0.6644  0.0390  0.1915
 3580TIP3    H132231   5.736   0.480   6.690 -0.2917  0.1853  0.4649
 3580TIP3    H232232   5.811   0.576   6.600 -2.0458  0.1977 -1.0291
 3581TIP3   OH232233   5.983   6.376   4.607  0.0355 -0.3132  0.2154
 3581TIP3    H132234   5.917   6.360   4.541 -0.5787 -0.6259  0.8948
 3581TIP3    H232235   5.934   6.389   4.688  0.7440  0.5823  0.5251
 3582TIP3   OH232236   1.914   6.683   5.033 -0.1065  0.1683 -0.2503
 3582TIP3    H132237   1.941   6.753   5.092 -1.6443 -0.7759  1.6982
 3582TIP3    H232238   1.844   6.722   4.980  0.9557  0.8800 -1.1771
 3583TIP3   OH232239   0.733   1.115  14.702 -0.1383  0.0911  0.0504
 3583TIP3    H132240   0.719   1.171  14.626 -2.2350 -1.2452 -0.6565
 3583TIP3    H232241   0.826   1.095  14.701 -0.0183  0.5821 -1.8234
 3584TIP3   OH232242   3.784   6.263  13.560  0.4775  0.2024 -0.3659
 3584TIP3    H132243   3.861   6.317  13.580  0.3388 -0.1334  1.2149
 3584TIP3    H232244   3.734   6.263  13.641 -0.2547 -1.1307 -0.7987
 3585TIP3   OH232245   2.220   1.709   0.015 -0.2625 -0.2897  0.2186
 3585TIP3    H132246   2.195   1.739  -0.073  0.4964  1.2561  0.5117
 3585TIP3    H232247   2.308   1.674   0.004 -0.1005  0.0588  0.3862
 3586TIP3   OH232248   3.886   3.941  15.028 -0.3497 -0.0462 -0.1253
 3586TIP3    H132249   3.795   3.963  15.045  0.0097  0.0167  2.0258
 3586TIP3    H232250   3.896   3.851  15.058  0.4337  0.1565  0.2687
 3587TIP3   OH232251   1.291   2.750  12.311  0.3864  0.2724 -0.2173
 3587TIP3    H132252   1.288   2.791  12.397 -1.6546  1.1739 -0.6538
 3587TIP3    H232253   1.287   2.656  12.328 -1.2454  0.4813  0.6600
 3588TIP3   OH232254   1.936   1.966   4.323 -0.1924  0.2047  0.6810
 3588TIP3    H132255   1.846   1.937   4.308 -0.7999 -0.0856  4.1564
 3588TIP3    H232256   1.987   1.885   4.320 -0.0645  0.3017 -0.7117
 3589TIP3   OH232257   3.610   3.519   5.256 -0.3192  0.0178  0.0409
 3589TIP3    H132258   3.566   3.595   5.294  0.2576 -0.1798  1.1639
 3589TIP3    H232259   3.690   3.554   5.216  0.0847 -0.0124  0.7976
 3590TIP3   OH232260   2.275   1.285   4.246 -0.4494  0.2997 -0.1616
 3590TIP3    H132261   2.218   1.210   4.267 -0.7534  0.8866  1.2593
 3590TIP3    H232262   2.360   1.246   4.227 -0.8880 -0.4787 -0.5950
 3591TIP3   OH232263   3.256   6.201   4.723  0.0662 -0.2904 -0.0800
 3591TIP3    H132264   3.273   6.107   4.711 -1.4348 -0.7963  1.3108
 3591TIP3    H232265   3.315   6.227   4.794  1.2265  0.0905 -1.1631
 3592TIP3   OH232266   5.040   4.672  14.928  0.4969  0.2577  0.0187
 3592TIP3    H132267   5.062   4.580  14.940  0.6015  0.2728 -0.0587
 3592TIP3    H232268   5.124   4.718  14.929  0.5178  0.2519 -0.8648
 3593TIP3   OH232269   5.652   6.592  14.243  0.4176 -0.2540 -0.2291
 3593TIP3    H132270   5.702   6.645  14.180  2.9556 -0.2836  1.6077
 3593TIP3    H232271   5.667   6.634  14.327  0.4455 -2.4502  0.9367
 3594TIP3   OH232272   1.733   2.211  14.849  0.5533 -0.3343  0.2488
 3594TIP3    H132273   1.669   2.227  14.779  0.7302 -1.1395 -0.1020
 3594TIP3    H232274   1.786   2.138  14.817  2.2772  0.9170  0.1032
 3595TIP3   OH232275   0.196   0.672   5.602  0.6125  0.0867 -0.3704
 3595TIP3    H132276   0.160   0.688   5.689 -0.9335 -1.1531 -0.7383
 3595TIP3    H232277   0.159   0.742   5.548  0.6089  0.1651 -0.2665
 3596TIP3   OH232278   2.499   4.392   3.679 -0.6839 -0.2690 -0.1543
 3596TIP3    H132279   2.510   4.313   3.626  0.1252  0.3644 -0.9506
 3596TIP3    H232280   2.574   4.448   3.656 -0.2528 -0.0051  1.7247
 3597TIP3   OH232281   0.611   0.445  16.192 -0.0313 -0.4259  0.1579
 3597TIP3    H132282   0.572   0.490  16.118 -0.6788 -0.7425  0.3006
 3597TIP3    H232283   0.677   0.506  16.225  0.8385 -0.6055 -1.1699
 3598TIP3   OH232284   1.356   5.455  16.693 -1.1203 -0.2786  0.1994
 3598TIP3    H132285   1.273   5.501  16.701 -0.0994  1.6548  0.4128
 3598TIP3    H232286   1.400   5.472  16.776  0.3624  0.6613 -0.7240
 3599TIP3   OH232287   1.807   5.096   5.888  0.1101  0.4759 -0.0489
 3599TIP3    H132288   1.817   5.034   5.961 -1.3036  0.1661 -0.0832
 3599TIP3    H232289   1.789   5.180   5.931 -0.6522  0.3076 -0.0205
 3600TIP3   OH232290   2.106   6.545  14.621 -0.5711  0.2155  0.3702
 3600TIP3    H132291   2.033   6.507  14.572 -0.6441  0.7956  0.0161
 3600TIP3    H232292   2.171   6.474  14.626 -0.5960  0.1192 -0.4987
 3601TIP3   OH232293   1.253   1.505   0.072 -0.3840 -0.2088  0.6317
 3601TIP3    H132294   1.191   1.555   0.125 -0.8024 -1.1048  1.0078
 3601TIP3    H232295   1.265   1.558  -0.007 -2.6948 -0.6307 -0.0924
 3602TIP3   OH232296   1.019   3.997   2.189 -0.2267  0.3315 -0.6330
 3602TIP3    H132297   1.052   4.016   2.101  0.5883 -1.1400 -0.6817
 3602TIP3    H232298   1.086   4.033   2.248 -1.0302  1.7875 -0.5749
 3603TIP3   OH232299   5.777   5.997   5.312  0.7226 -0.2587 -0.1380
 3603TIP3    H132300   5.827   6.074   5.285  0.6679 -0.0144  0.4355
 3603TIP3    H232301   5.750   6.017   5.402 -0.2040 -0.4832 -0.3598
 3604TIP3   OH232302   1.486   1.774   1.853 -0.2779 -0.0929 -0.2438
 3604TIP3    H132303   1.420   1.731   1.799 -2.0256  0.4986  1.2844
 3604TIP3    H232304   1.546   1.704   1.879 -1.7319 -1.1835  0.3153
 3605TIP3   OH232305   3.104   0.545  15.302  0.0207 -0.0328 -0.0283
 3605TIP3    H132306   3.023   0.521  15.257 -0.3667 -2.3205  1.7324
 3605TIP3    H232307   3.174   0.510  15.247 -0.3400 -0.7585 -0.0325
 3606TIP3   OH232308   3.711   4.409   5.303  0.1988  0.2137  0.5296
 3606TIP3    H132309   3.769   4.459   5.361 -0.0501 -0.6741  1.5705
 3606TIP3    H232310   3.706   4.462   5.224  1.0158  1.1773  1.0931
 3607TIP3   OH232311   4.323   2.786   1.227 -0.1205  0.3727 -0.1114
 3607TIP3    H132312   4.238   2.828   1.242  0.4108  1.1390  0.8996
 3607TIP3    H232313   4.367   2.791   1.312  2.3034  3.1563 -1.3787
 3608TIP3   OH232314   0.942   4.635   4.765 -0.5032 -0.1352 -0.1520
 3608TIP3    H132315   1.022   4.667   4.722 -1.5628  0.1410 -2.0583
 3608TIP3    H232316   0.927   4.695   4.838  0.1920  0.7557 -0.7259
 3609TIP3   OH232317   4.284   2.345  12.661 -0.0220 -0.0624  0.1245
 3609TIP3    H132318   4.206   2.341  12.604  0.2579 -0.8567 -0.2201
 3609TIP3    H232319   4.339   2.272  12.631  1.9031  1.8075 -1.1392
 3610TIP3   OH232320   5.961   1.880   4.349  0.7233  0.2251  0.5321
 3610TIP3    H132321   5.932   1.830   4.273  2.3832  0.2223 -0.1444
 3610TIP3    H232322   5.883   1.890   4.402 -0.2723 -0.6021 -0.7112
 3611TIP3   OH232323   5.763   5.407   4.187 -0.1469 -0.5332 -0.6053
 3611TIP3    H132324   5.803   5.441   4.107 -0.3453  1.0267 -0.0755
 3611TIP3    H232325   5.838   5.382   4.242  0.1265  1.1080 -0.1576
 3612TIP3   OH232326   2.191   4.392   1.914  0.3585 -0.0651 -0.2814
 3612TIP3    H132327   2.184   4.324   1.980 -0.2716  1.3516  1.1858
 3612TIP3    H232328   2.111   4.384   1.862  0.1601 -0.2724  0.0553
 3613TIP3   OH232329   1.917   4.509  14.522 -0.5112  0.0660 -0.9627
 3613TIP3    H132330   1.831   4.468  14.518  0.0025 -0.9620 -1.9064
 3613TIP3    H232331   1.972   4.445  14.567 -0.3165  0.8871 -0.0004
 3614TIP3   OH232332   5.154   4.417   2.758  0.3670  0.5010 -0.1050
 3614TIP3    H132333   5.154   4.487   2.693 -0.6169 -0.4686 -1.1982
 3614TIP3    H232334   5.247   4.399   2.775  0.6674  0.1724 -1.9423
 3615TIP3   OH232335   1.687   2.211   5.307  0.6229 -0.4532  0.2046
 3615TIP3    H132336   1.669   2.272   5.378 -1.3983 -0.0806 -0.5566
 3615TIP3    H232337   1.755   2.254   5.254  2.3575 -0.8658  1.9712
 3616TIP3   OH232338   1.459   0.634  15.741 -0.6707  0.4115 -0.4270
 3616TIP3    H132339   1.386   0.574  15.752 -1.3106  1.5010  1.8562
 3616TIP3    H232340   1.431   0.693  15.670 -1.7699  0.4446  0.0118
 3617TIP3   OH232341   4.305   6.320  12.203 -0.0516 -0.0652  0.1740
 3617TIP3    H132342   4.302   6.414  12.186 -1.6715  0.5029  2.8876
 3617TIP3    H232343   4.221   6.301  12.244  0.2453 -2.7190 -0.3111
 3618TIP3   OH232344   2.514   1.966   1.337  0.0450 -0.5990 -0.1870
 3618TIP3    H132345   2.554   1.917   1.265  1.0511  1.4524 -1.0955
 3618TIP3    H232346   2.574   1.952   1.411  0.8332 -0.0056 -0.7003
 3619TIP3   OH232347   5.879   5.428   3.175  0.0098  0.3232 -0.0286
 3619TIP3    H132348   5.954   5.449   3.120 -0.0718  0.7915  0.0352
 3619TIP3    H232349   5.818   5.500   3.162 -0.0336  0.4150  0.6291
 3620TIP3   OH232350   5.924   6.612  12.358 -0.0419 -0.0616 -0.1357
 3620TIP3    H132351   5.913   6.539  12.419 -0.3101 -1.2158 -1.5252
 3620TIP3    H232352   5.870   6.682  12.395  1.0012 -0.1790  1.7568
 3621TIP3   OH232353   0.017   4.084   4.899 -0.7415  0.3053  0.2584
 3621TIP3    H132354   0.020   3.997   4.858 -0.1936  0.0286  0.8596
 3621TIP3    H232355   0.065   4.141   4.839  2.0497 -0.5571  1.5451
 3622TIP3   OH232356   4.443   6.368   2.323  0.3150  0.6100 -0.6308
 3622TIP3    H132357   4.417   6.296   2.380  1.3954  1.1744  0.6076
 3622TIP3    H232358   4.362   6.417   2.308  0.0133  0.4548  0.4250
 3623TIP3   OH232359   0.391   6.638  14.072  0.2708  0.1689 -0.3365
 3623TIP3    H132360   0.486   6.649  14.075  0.2632  0.1199  0.2933
 3623TIP3    H232361   0.369   6.640  13.979  0.8614  0.4164 -0.4732
 3624TIP3   OH232362   1.245   5.716  16.680 -0.3924 -0.4410  0.0283
 3624TIP3    H132363   1.271   5.758  16.598  1.2398 -1.2133  0.0968
 3624TIP3    H232364   1.203   5.785  16.731 -0.3849  0.3374 -0.9965
 3625TIP3   OH232365   4.314   5.537   4.135 -0.4534  0.0491  0.0479
 3625TIP3    H132366   4.263   5.461   4.106 -0.8948 -0.0644  1.0834
 3625TIP3    H232367   4.309   5.534   4.231 -0.2541  1.2350  0.1060
 3626TIP3   OH232368   4.826   6.368   2.608  0.6708  0.4350  0.0373
 3626TIP3    H132369   4.789   6.388   2.522  1.1174 -1.5075 -0.6605
 3626TIP3    H232370   4.879   6.445   2.630 -1.8155  2.2530 -0.0026
 3627TIP3   OH232371   0.909   3.833  15.814  0.0046 -0.2305  0.0505
 3627TIP3    H132372   0.822   3.792  15.805  0.6731 -2.9390  3.6245
 3627TIP3    H232373   0.969   3.769  15.775  0.6839 -0.6646  1.7023
 3628TIP3   OH232374   3.458   1.305   3.326  0.1401  0.0233  0.2724
 3628TIP3    H132375   3.430   1.230   3.378  1.0569  1.4586  3.0523
 3628TIP3    H232376   3.544   1.278   3.291 -1.1558 -1.5384 -1.9850
 3629TIP3   OH232377   5.531   1.010   3.495  0.2694  0.2577  0.0534
 3629TIP3    H132378   5.576   0.962   3.426  1.3263 -0.0734  0.9405
 3629TIP3    H232379   5.481   0.943   3.543 -0.3491  0.4628 -0.2985
 3630TIP3   OH232380   0.211   1.525  14.046 -0.1024  0.0750  0.0856
 3630TIP3    H132381   0.238   1.611  14.015  0.4351 -0.2174 -0.2711
 3630TIP3    H232382   0.122   1.537  14.077 -0.7669  0.3078 -1.8489
 3631TIP3   OH232383   2.414   2.875  14.769 -0.2833  0.1340  0.2966
 3631TIP3    H132384   2.435   2.907  14.857 -1.4333  0.1701  0.5852
 3631TIP3    H232385   2.354   2.801  14.785 -1.3058  0.7763 -0.4658
 3632TIP3   OH232386   4.559   0.127   4.471  0.5496 -0.5121 -0.4933
 3632TIP3    H132387   4.641   0.082   4.492  0.0925 -1.2112 -0.1380
 3632TIP3    H232388   4.534   0.090   4.386  1.6001  1.1625 -1.5764
 3633TIP3   OH232389   5.842   1.411  10.500  0.1255  0.4574 -0.1726
 3633TIP3    H132390   5.759   1.441  10.462 -0.8153 -0.2962  1.2386
 3633TIP3    H232391   5.849   1.457  10.584  1.3711  0.8409 -0.4532
 3634TIP3   OH232392   4.844   4.450  15.571  0.3049  0.2268 -0.8124
 3634TIP3    H132393   4.825   4.537  15.606 -1.2910 -0.3578 -0.1380
 3634TIP3    H232394   4.912   4.466  15.504  3.0264  1.4715  1.9810
 3635TIP3   OH232395   3.317   6.658  15.514  0.5345 -0.6233 -0.0633
 3635TIP3    H132396   3.324   6.565  15.535  0.0195 -0.3547  1.4436
 3635TIP3    H232397   3.322   6.662  15.419  0.0105 -2.2392 -0.1860
 3636TIP3   OH232398   3.646   1.399   2.463 -0.0636 -0.3661  0.6460
 3636TIP3    H132399   3.713   1.429   2.401 -0.7792 -0.6924 -0.3062
 3636TIP3    H232400   3.563   1.419   2.420 -0.5736 -0.6166  1.5015
 3637TIP3   OH232401   3.575   5.355  17.016 -0.2475  0.3378  0.0326
 3637TIP3    H132402   3.649   5.294  17.017 -0.1476  0.4166 -1.3323
 3637TIP3    H232403   3.512   5.317  17.078 -0.5205 -1.5862 -1.3389
 3638TIP3   OH232404   1.408   3.001  12.312 -0.1307 -0.1315 -0.1356
 3638TIP3    H132405   1.385   2.908  12.318  1.5924 -0.6775 -1.2483
 3638TIP3    H232406   1.416   3.030  12.402 -0.5982 -1.0955  0.2274
 3639TIP3   OH232407   2.230   1.880  14.520 -0.3002  0.1478 -0.4953
 3639TIP3    H132408   2.236   1.874  14.615  0.3826  0.4939 -0.5109
 3639TIP3    H232409   2.289   1.813  14.487  1.2185  1.4938 -0.6546
 3640TIP3   OH232410   6.827   4.399   4.049 -0.3005  0.5968 -0.0923
 3640TIP3    H132411   6.743   4.419   4.090  0.0212 -0.8483  1.3823
 3640TIP3    H232412   6.880   4.363   4.120  0.6888 -0.9397 -1.5563
 3641TIP3   OH232413   0.556   2.590  16.812  0.0339 -0.8735  0.4142
 3641TIP3    H132414   0.482   2.635  16.852  0.0908  0.6252 -1.0561
 3641TIP3    H232415   0.522   2.558  16.729  0.8680 -0.6967 -0.0040
 3642TIP3   OH232416   6.579   6.141   4.787 -0.4043  0.7420  0.1700
 3642TIP3    H132417   6.530   6.091   4.721 -0.9069  2.0219 -0.4435
 3642TIP3    H232418   6.615   6.073   4.845 -0.6973 -0.3685 -0.8883
 3643TIP3   OH232419   4.245   5.437  16.670  0.2783 -0.0121 -0.3243
 3643TIP3    H132420   4.220   5.503  16.734  1.2064  0.0825 -0.0571
 3643TIP3    H232421   4.250   5.484  16.587  0.8615  0.2382 -0.1483
 3644TIP3   OH232422   3.630   4.582  17.071  0.4099 -0.4593 -0.4496
 3644TIP3    H132423   3.629   4.644  16.998 -1.2529 -1.3181 -1.1984
 3644TIP3    H232424   3.700   4.521  17.048 -0.0027 -0.6376 -1.2634
 3645TIP3   OH232425   3.824   0.369   3.006  0.5421  0.1548 -0.0140
 3645TIP3    H132426   3.813   0.455   3.048  1.8160  0.0015  0.6798
 3645TIP3    H232427   3.840   0.309   3.079 -5.0618 -1.7211  0.1468
 3646TIP3   OH232428   2.207   3.372   4.454 -0.2979  0.1438  0.7056
 3646TIP3    H132429   2.174   3.325   4.377 -0.5783  0.8205  0.3933
 3646TIP3    H232430   2.133   3.427   4.481  0.0681  0.5121  0.9675
 3647TIP3   OH232431   6.783   1.497  14.497  0.3415  0.3405 -0.3454
 3647TIP3    H132432   6.761   1.588  14.512  3.1726  1.5694 -2.6951
 3647TIP3    H232433   6.875   1.490  14.524 -0.2382 -2.2956  1.3181
 3648TIP3   OH232434   0.076   4.973  13.085 -0.1918 -0.2042  0.6632
 3648TIP3    H132435   0.008   4.906  13.092 -0.3620 -0.1049  0.0497
 3648TIP3    H232436   0.084   4.988  12.991 -0.0565  0.5329  0.7903
 3649TIP3   OH232437   4.910   6.425  14.360  0.8556  0.2723 -0.3558
 3649TIP3    H132438   5.000   6.450  14.341  0.8421  0.3756 -0.2824
 3649TIP3    H232439   4.886   6.476  14.437  0.3601  1.0770 -1.0267
 3650TIP3   OH232440   3.770   4.116   0.250 -0.2871  0.4144  0.2128
 3650TIP3    H132441   3.676   4.136   0.259 -0.0272  2.1429 -0.4460
 3650TIP3    H232442   3.813   4.175   0.312  0.3138 -1.3303  1.5104
 3651TIP3   OH232443   2.581   1.960  14.850  0.2496  0.1655 -0.4206
 3651TIP3    H132444   2.638   1.884  14.862 -0.0764  0.1529  1.3651
 3651TIP3    H232445   2.626   2.014  14.785  1.3774 -0.7016 -0.3911
 3652TIP3   OH232446   3.128   3.027   3.130 -0.0905  0.1728 -0.5056
 3652TIP3    H132447   3.068   2.976   3.076  0.4297  0.6755 -1.6022
 3652TIP3    H232448   3.214   3.008   3.094  0.5515 -1.1998  1.5900
 3653TIP3   OH232449   0.163   6.270   0.980  0.0058  0.1424 -0.5366
 3653TIP3    H132450   0.232   6.264   0.913 -0.3922 -0.9892 -0.8615
 3653TIP3    H232451   0.120   6.353   0.962  1.7084  1.2215  0.1046
 3654TIP3   OH232452   1.203   4.714  11.958 -0.0984 -0.7300 -0.0421
 3654TIP3    H132453   1.275   4.775  11.972 -0.3134 -0.3069 -0.7135
 3654TIP3    H232454   1.246   4.633  11.930  0.2250 -1.0922  1.4306
 3655TIP3   OH232455   4.697   2.983  15.921  0.2635 -0.1136  0.0024
 3655TIP3    H132456   4.699   2.930  16.001  0.6536  0.1851  0.1930
 3655TIP3    H232457   4.606   2.979  15.892 -0.5378  2.0457  1.9995
 3656TIP3   OH232458   5.297   1.646   1.113  0.3380 -0.3316  0.1541
 3656TIP3    H132459   5.308   1.574   1.174 -1.1877 -2.9398 -2.4005
 3656TIP3    H232460   5.343   1.719   1.154  3.8080 -3.2216  1.9990
 3657TIP3   OH232461   1.158   2.558  13.016  0.3250 -0.3853 -0.1574
 3657TIP3    H132462   1.196   2.578  13.102  0.8010  0.3415 -0.5327
 3657TIP3    H232463   1.084   2.500  13.036 -0.8800  1.4224  0.9516
 3658TIP3   OH232464   0.893   1.873  15.163  0.3835  0.1898 -0.5020
 3658TIP3    H132465   0.816   1.912  15.122 -0.1881  0.8714  1.1741
 3658TIP3    H232466   0.861   1.835  15.245  1.9607  1.2134  0.6351
 3659TIP3   OH232467   6.183   1.865   5.233  0.0693  0.6838  0.0792
 3659TIP3    H132468   6.235   1.794   5.271  2.6407  2.3246 -0.1213
 3659TIP3    H232469   6.098   1.825   5.213  0.4732 -1.6004  2.4362
 3660TIP3   OH232470   0.469   3.840   5.149 -0.3515  0.0265 -0.4176
 3660TIP3    H132471   0.461   3.745   5.139 -0.3664  0.1032 -1.1983
 3660TIP3    H232472   0.380   3.869   5.171 -0.2950 -0.1643  0.0805
 3661TIP3   OH232473   4.960   0.183  16.929 -0.2549 -0.2233 -0.3054
 3661TIP3    H132474   4.960   0.245  17.002 -0.2858 -1.4299  0.7714
 3661TIP3    H232475   4.879   0.203  16.882 -1.1295 -0.5037  0.9977
 3662TIP3   OH232476   4.294   3.289  16.867  0.6578  0.4548  0.5431
 3662TIP3    H132477   4.256   3.330  16.789  0.4078  0.5197  0.6967
 3662TIP3    H232478   4.389   3.297  16.855  0.7463 -1.9598 -1.0545
 3663TIP3   OH232479   2.623   4.111   3.824  0.1239 -0.3822  0.2893
 3663TIP3    H132480   2.560   4.121   3.896  1.7740 -1.0648  1.9272
 3663TIP3    H232481   2.658   4.023   3.836  0.2980 -0.5830 -1.5179
 3664TIP3   OH232482   6.423   3.249   5.242  0.1799 -0.4455  0.1038
 3664TIP3    H132483   6.343   3.299   5.229  1.5337  1.6161 -0.7341
 3664TIP3    H232484   6.469   3.294   5.313  1.9638  0.2935 -1.4359
 3665TIP3   OH232485   6.558   4.000   4.517 -0.2439  0.3422  0.2443
 3665TIP3    H132486   6.548   4.083   4.564  1.0352 -0.1005  1.3517
 3665TIP3    H232487   6.473   3.957   4.526 -0.2742  0.6315  1.4648
 3666TIP3   OH232488   4.902   4.155  13.851  0.2870  0.9178 -0.1270
 3666TIP3    H132489   4.843   4.196  13.914 -1.8256 -0.1675 -1.3024
 3666TIP3    H232490   4.990   4.183  13.878 -0.6521  1.6642  2.3678
 3667TIP3   OH232491   5.469   3.706   3.359 -0.1932  0.1665 -0.1921
 3667TIP3    H132492   5.565   3.699   3.356  0.0704  2.5508  0.2704
 3667TIP3    H232493   5.438   3.616   3.353  2.0154 -0.5700 -2.0235
 3668TIP3   OH232494   2.361   1.200   2.665 -0.2112 -0.4811  0.6348
 3668TIP3    H132495   2.428   1.241   2.719  0.9552 -0.7746 -0.5192
 3668TIP3    H232496   2.386   1.107   2.661 -0.7249 -0.6112  0.2491
 3669TIP3   OH232497   2.319   3.238  11.717  0.3184  0.7660 -0.0891
 3669TIP3    H132498   2.378   3.198  11.781  0.3683 -0.2129 -0.7298
 3669TIP3    H232499   2.297   3.167  11.657 -1.0476  1.2619 -0.2111
 3670TIP3   OH232500   1.912   3.965   4.716  0.6477 -0.2206  0.4136
 3670TIP3    H132501   1.989   3.981   4.772  0.4381 -0.6700  0.8404
 3670TIP3    H232502   1.874   4.052   4.702 -0.3559 -0.2560  2.5199
 3671TIP3   OH232503   2.322   1.577  14.248  0.4712 -0.0856  1.3465
 3671TIP3    H132504   2.406   1.610  14.216  0.3731  0.3594  1.5403
 3671TIP3    H232505   2.257   1.617  14.190  0.4294 -0.9720  0.7617
 3672TIP3   OH232506   3.491   3.692  13.931  0.2367 -0.7299 -0.3941
 3672TIP3    H132507   3.572   3.660  13.970  0.0673 -0.4694  0.1851
 3672TIP3    H232508   3.518   3.768  13.879  0.1206  0.6683  1.4714
 3673TIP3   OH232509   0.857   5.078   3.073 -0.0546  0.6586 -0.0924
 3673TIP3    H132510   0.850   5.096   2.980  1.2631 -0.9003 -0.5377
 3673TIP3    H232511   0.821   4.989   3.083  0.7099  0.4290  0.7219
 3674TIP3   OH232512   1.003   0.775   0.137 -0.0360 -0.6522  0.1156
 3674TIP3    H132513   0.949   0.822   0.201  1.5938 -1.0114  1.8484
 3674TIP3    H232514   1.043   0.843   0.084 -0.3622 -0.2637  0.3652
 3675TIP3   OH232515   4.406   3.235   1.933 -0.4573  0.4411 -0.1549
 3675TIP3    H132516   4.450   3.301   1.879  1.5192 -1.8234 -1.5364
 3675TIP3    H232517   4.471   3.213   2.000 -1.2134  0.0873  0.4727
 3676TIP3   OH232518   0.647   3.854  11.954  0.2076 -0.4693  0.2725
 3676TIP3    H132519   0.594   3.902  12.018  1.0137  0.4740  0.2568
 3676TIP3    H232520   0.720   3.913  11.934  0.8130 -1.3953 -0.3362
 3677TIP3   OH232521   6.752   3.389   1.650 -0.3074 -0.1205 -0.5015
 3677TIP3    H132522   6.715   3.431   1.573 -0.6770  0.3029 -0.0936
 3677TIP3    H232523   6.844   3.415   1.649 -0.2846 -0.2060 -0.8563
 3678TIP3   OH232524   1.613   0.108  11.730  0.0766  0.0430 -0.5365
 3678TIP3    H132525   1.646   0.051  11.800  0.8355  1.2424  0.1024
 3678TIP3    H232526   1.574   0.182  11.776  0.5207  0.8107 -1.3814
 3679TIP3   OH232527   0.863   2.857   3.401  0.0334 -0.4098  0.5163
 3679TIP3    H132528   0.928   2.886   3.465  0.9314  0.2240 -0.6405
 3679TIP3    H232529   0.908   2.864   3.317 -2.0071  1.4623 -0.4961
 3680TIP3   OH232530   2.686   0.383   5.914 -0.0464  0.1831  0.5988
 3680TIP3    H132531   2.695   0.416   6.004  0.2832  2.2422 -0.1352
 3680TIP3    H232532   2.598   0.345   5.912  0.2922 -0.7687  2.0344
 3681TIP3   OH232533   1.377   6.661   6.884 -0.0258  0.2960 -0.2188
 3681TIP3    H132534   1.462   6.618   6.873 -0.3152 -0.5532  0.6871
 3681TIP3    H232535   1.345   6.673   6.795  1.1242  0.8136 -0.5839
 3682TIP3   OH232536   3.361   1.663  16.402  0.2000  0.6086 -0.2899
 3682TIP3    H132537   3.308   1.714  16.463  0.9418  0.6107  0.3590
 3682TIP3    H232538   3.347   1.572  16.429 -0.1411  0.5483 -0.6606
 3683TIP3   OH232539   5.709   4.400  14.543 -0.3214  0.2083  0.0095
 3683TIP3    H132540   5.644   4.467  14.564  0.8003  0.3949  3.6056
 3683TIP3    H232541   5.774   4.445  14.490 -1.5199  0.8487 -0.9581
 3684TIP3   OH232542   3.517   6.124   0.428  0.0833 -0.3993  0.8747
 3684TIP3    H132543   3.588   6.073   0.468  0.3196  1.6731  3.3760
 3684TIP3    H232544   3.475   6.169   0.502 -0.9606  1.9147 -0.9815
 3685TIP3   OH232545   6.504   4.669   3.900  0.3552  0.3579  0.3106
 3685TIP3    H132546   6.590   4.683   3.940  0.7767  0.1845 -0.5051
 3685TIP3    H232547   6.478   4.757   3.870 -0.1060  0.5424  1.2383
 3686TIP3   OH232548   4.728   2.306   5.352 -0.3655  0.2691 -0.4237
 3686TIP3    H132549   4.733   2.389   5.398  2.8179 -0.3740  0.5968
 3686TIP3    H232550   4.706   2.241   5.419 -0.3849 -0.0566 -0.7358
 3687TIP3   OH232551   3.245   3.620  11.848 -0.5946  0.3193 -0.1766
 3687TIP3    H132552   3.160   3.612  11.804 -0.0203  0.7167 -1.3885
 3687TIP3    H232553   3.300   3.554  11.806  0.2970  1.4825 -0.8739
 3688TIP3   OH232554   2.087   4.430  16.042  0.8909  0.1159  0.6270
 3688TIP3    H132555   2.176   4.425  16.007  0.4733  0.5728 -0.5542
 3688TIP3    H232556   2.037   4.474  15.973 -0.2715 -0.2252  1.2333
 3689TIP3   OH232557   2.123   1.916   1.339 -0.0212  0.3119 -0.2405
 3689TIP3    H132558   2.133   1.909   1.244  0.1068  0.7547 -0.2617
 3689TIP3    H232559   2.187   1.982   1.365 -0.1907  0.3323  0.1320
 3690TIP3   OH232560   4.815   2.697   2.251 -0.4452 -0.0279  0.6030
 3690TIP3    H132561   4.832   2.790   2.239  1.8092 -0.4513 -0.0846
 3690TIP3    H232562   4.782   2.690   2.341  0.9795  1.2915  1.2905
 3691TIP3   OH232563   6.040   1.730  13.463 -0.3084  0.5394 -0.3593
 3691TIP3    H132564   6.117   1.776  13.430 -0.2462  0.9192  0.2888
 3691TIP3    H232565   6.048   1.641  13.428  1.5678 -0.0653  1.4166
 3692TIP3   OH232566   2.686   5.791  14.557 -0.8782  0.2626  0.1401
 3692TIP3    H132567   2.595   5.784  14.584 -1.2445 -0.9459 -1.2450
 3692TIP3    H232568   2.686   5.856  14.487 -0.8892 -0.4644 -0.5603
 3693TIP3   OH232569   6.306   6.154   1.636  0.0799  0.5353 -0.5330
 3693TIP3    H132570   6.368   6.115   1.573  0.1430  0.1546 -0.2397
 3693TIP3    H232571   6.321   6.248   1.629 -0.7500  0.5839 -1.9586
 3694TIP3   OH232572   3.243   6.192   2.334 -0.3318 -0.0288 -0.0429
 3694TIP3    H132573   3.225   6.135   2.408 -1.1954  1.7432  1.1754
 3694TIP3    H232574   3.245   6.280   2.371  1.9374  0.7015 -1.6763
 3695TIP3   OH232575   3.393   0.847  15.915 -0.2568  0.0532 -0.1516
 3695TIP3    H132576   3.458   0.883  15.975 -0.3039  2.6025 -1.5075
 3695TIP3    H232577   3.311   0.847  15.966  0.1624 -0.1950  0.5427
 3696TIP3   OH232578   4.915   6.742   1.865  0.1853 -0.0052  0.1822
 3696TIP3    H132579   4.878   6.657   1.889  0.1494 -0.4540 -1.4015
 3696TIP3    H232580   4.961   6.771   1.945  0.4234 -1.6200  0.6723
 3697TIP3   OH232581   0.600   5.474   1.253 -0.2266  0.6039 -0.4992
 3697TIP3    H132582   0.661   5.544   1.275  0.3384 -0.0012 -0.1172
 3697TIP3    H232583   0.532   5.517   1.200 -0.8340  1.8063  1.1651
 3698TIP3   OH232584   3.495   3.005  12.966  0.2571  0.0165  0.4975
 3698TIP3    H132585   3.478   3.092  12.929 -0.0023 -0.4288 -0.4642
 3698TIP3    H232586   3.544   3.022  13.046  0.7678  1.0259 -0.0082
 3699TIP3   OH232587   5.171   6.456  14.222 -0.1896  0.1354  0.0691
 3699TIP3    H132588   5.264   6.438  14.208  0.2415  2.0164  0.2556
 3699TIP3    H232589   5.128   6.428  14.142  0.0778 -3.4141  1.0116
 3700TIP3   OH232590   1.371   0.343  12.756 -0.3619  0.0897  0.1621
 3700TIP3    H132591   1.300   0.391  12.712  0.5834  1.4128  0.0199
 3700TIP3    H232592   1.386   0.267  12.701  0.1569  1.2257 -1.3309
 3701TIP3   OH232593   2.570   5.747  13.512  0.0379  0.1872 -0.1078
 3701TIP3    H132594   2.567   5.752  13.607  0.1346 -1.4376  0.0092
 3701TIP3    H232595   2.486   5.709  13.487 -0.6661  2.0708 -0.8384
 3702TIP3   OH232596   2.213   5.579  16.365 -0.0379 -0.4611  0.0107
 3702TIP3    H132597   2.175   5.583  16.452 -0.8268 -0.5840 -0.3206
 3702TIP3    H232598   2.196   5.666  16.328  1.8455  0.2018  0.6002
 3703TIP3   OH232599   2.329   4.269  10.774  0.0705 -0.0158 -0.0664
 3703TIP3    H132600   2.260   4.329  10.805  1.0703  1.4773 -0.6207
 3703TIP3    H232601   2.281   4.200  10.728 -1.1518  0.0912  0.9850
 3704TIP3   OH232602   4.405   2.448   1.031 -0.9916 -0.1426 -0.5060
 3704TIP3    H132603   4.382   2.398   1.110  1.4351 -0.7171 -0.1000
 3704TIP3    H232604   4.425   2.536   1.062  0.8081 -0.5882 -0.2972
 3705TIP3   OH232605   3.730   6.766  12.490 -0.0978  0.3548  0.1422
 3705TIP3    H132606   3.715   6.705  12.418  0.6961 -0.5232  0.6990
 3705TIP3    H232607   3.656   6.752  12.550  1.6263 -2.4116  1.8281
 3706TIP3   OH232608   4.862   0.999  13.097  0.0062  0.4001 -0.4010
 3706TIP3    H132609   4.815   1.036  13.023 -0.3156  0.3608 -0.2199
 3706TIP3    H232610   4.798   0.944  13.141 -0.6879  2.6234  1.5520
 3707TIP3   OH232611   5.540   2.932   2.929 -0.1503 -0.4415 -0.2546
 3707TIP3    H132612   5.535   3.002   2.864  0.6477 -0.0252  0.1050
 3707TIP3    H232613   5.509   2.854   2.884  0.0863 -0.0972 -1.0354
 3708TIP3   OH232614   6.621   6.453  16.503  0.3128 -0.4482 -0.4288
 3708TIP3    H132615   6.594   6.459  16.595  0.0149  0.6529 -0.5721
 3708TIP3    H232616   6.716   6.442  16.506  0.1221 -2.4097  0.0370
 3709TIP3   OH232617   0.636   5.389  12.065 -0.2452  0.0797 -0.0095
 3709TIP3    H132618   0.711   5.408  12.008  0.3804 -1.6076  0.1996
 3709TIP3    H232619   0.572   5.457  12.043  0.3857  0.1119 -1.9596
 3710TIP3   OH232620   2.779   4.908   6.070  0.6493  0.0242 -0.2819
 3710TIP3    H132621   2.861   4.933   6.027  0.4182 -0.3018 -0.9213
 3710TIP3    H232622   2.712   4.959   6.026  0.3757 -0.5120 -0.4972
 3711TIP3   OH232623   1.388   0.932  13.179  0.6045 -0.0766  0.0258
 3711TIP3    H132624   1.349   0.867  13.238 -2.7396 -1.0810 -2.8963
 3711TIP3    H232625   1.357   1.016  13.212 -1.0384 -0.6032 -0.0708
 3712TIP3   OH232626   5.291   2.068   5.744  0.3110  0.4377 -0.1547
 3712TIP3    H132627   5.238   2.014   5.803 -0.9953  4.0990  2.3899
 3712TIP3    H232628   5.381   2.036   5.756 -0.3256 -0.8563  1.5488
 3713TIP3   OH232629   3.534   3.818   1.313 -0.1991 -0.2363 -0.6118
 3713TIP3    H132630   3.549   3.794   1.221 -2.0231 -1.6406 -0.6091
 3713TIP3    H232631   3.513   3.912   1.310 -1.6818 -0.5535 -1.8689
 3714TIP3   OH232632   1.043   1.865   2.475 -0.2711 -0.8535 -0.2763
 3714TIP3    H132633   1.128   1.855   2.432  1.0435 -1.7533  2.3030
 3714TIP3    H232634   1.006   1.776   2.477 -1.4399 -0.4180 -1.6460
 3715TIP3   OH232635   1.776   2.819   3.267 -0.2414 -0.1538  0.1750
 3715TIP3    H132636   1.794   2.873   3.189 -0.7729  0.4111  0.4321
 3715TIP3    H232637   1.862   2.789   3.296  0.1540  1.1848  0.4607
 3716TIP3   OH232638   6.739   3.572   3.479 -0.0702 -0.0599 -0.4065
 3716TIP3    H132639   6.657   3.620   3.488 -0.3103 -0.3036 -1.1907
 3716TIP3    H232640   6.712   3.485   3.448  0.5025 -0.0248 -1.0176
 3717TIP3   OH232641   6.316   5.233  16.534  0.4518  0.4529 -0.5980
 3717TIP3    H132642   6.347   5.227  16.624  1.3505  0.0882 -0.9299
 3717TIP3    H232643   6.356   5.159  16.490 -1.9176 -0.8618 -0.7555
 3718TIP3   OH232644   4.901   3.658  12.271 -0.5471  0.6186  0.2414
 3718TIP3    H132645   4.868   3.717  12.204 -2.1232 -0.6074 -0.1298
 3718TIP3    H232646   4.882   3.570  12.238  0.8818 -0.0917  1.1857
 3719TIP3   OH232647   3.203   2.733  14.335 -0.2357 -0.2984 -0.0192
 3719TIP3    H132648   3.129   2.682  14.366  0.4924 -1.5449 -0.2594
 3719TIP3    H232649   3.191   2.738  14.240 -1.3695  1.7596  0.1608
 3720TIP3   OH232650   2.033   2.654   0.971 -0.3046 -0.5619  0.3475
 3720TIP3    H132651   2.043   2.563   0.997 -0.9400 -0.8497 -0.3793
 3720TIP3    H232652   2.121   2.683   0.948 -0.3780 -1.6382 -1.4684
 3721TIP3   OH232653   0.568   1.127   1.307  0.0704 -0.3611 -0.4174
 3721TIP3    H132654   0.568   1.079   1.224 -0.3360  0.0758 -0.6807
 3721TIP3    H232655   0.515   1.205   1.289 -1.4909 -1.1070  0.7425
 3722TIP3   OH232656   5.019   3.931  16.573  0.5466 -0.4203 -0.0398
 3722TIP3    H132657   4.993   3.858  16.517  0.9435 -0.7826  0.2426
 3722TIP3    H232658   5.074   3.986  16.517 -1.2225  0.6450 -0.8127
 3723TIP3   OH232659   5.369   6.446  15.416 -0.1864 -0.0899 -0.0569
 3723TIP3    H132660   5.289   6.460  15.466  1.1713  1.9187  1.6956
 3723TIP3    H232661   5.382   6.527  15.367  1.3250  0.0511  0.5198
 3724TIP3   OH232662   0.433   2.993  11.889 -0.0041  0.6502  0.1034
 3724TIP3    H132663   0.419   3.080  11.927  1.5948  0.7664  0.4844
 3724TIP3    H232664   0.456   2.937  11.963  3.1863  0.8884 -0.5924
 3725TIP3   OH232665   3.668   1.942   2.174  0.5855  0.3252  0.1867
 3725TIP3    H132666   3.758   1.938   2.144  0.6150  1.2498  0.1054
 3725TIP3    H232667   3.646   2.036   2.172 -0.0372  0.2255  1.1702
 3726TIP3   OH232668   5.648   1.237   0.924  0.1183 -0.8602 -0.3068
 3726TIP3    H132669   5.690   1.220   0.839 -1.5044  2.3258 -1.9210
 3726TIP3    H232670   5.712   1.290   0.971  0.5789 -1.7366  0.0926
 3727TIP3   OH232671   1.475   2.859  11.318 -0.2335 -0.1189 -0.4884
 3727TIP3    H132672   1.538   2.931  11.321  0.4759 -0.7202 -0.7468
 3727TIP3    H232673   1.409   2.882  11.383  0.8582 -0.0310  0.6311
 3728TIP3   OH232674   6.698   2.364  16.122 -0.1087  0.2442  0.3911
 3728TIP3    H132675   6.607   2.375  16.151 -0.6013  0.7157 -1.2692
 3728TIP3    H232676   6.701   2.275  16.087  0.1638  0.1334  0.6801
 3729TIP3   OH232677   0.745   4.527  11.419  0.2700 -0.2512 -0.2340
 3729TIP3    H132678   0.694   4.605  11.439  2.4486  0.8947  1.2940
 3729TIP3    H232679   0.735   4.471  11.496  0.5428 -0.4730 -0.3562
 3730TIP3   OH232680   5.928   6.523  14.062  0.7073 -0.0740 -0.2262
 3730TIP3    H132681   5.856   6.466  14.036  1.7668 -1.1665 -0.8559
 3730TIP3    H232682   5.928   6.593  13.997 -0.0229  0.1347 -0.0001
 3731TIP3   OH232683   3.850   1.570   1.617 -0.2394 -0.3319 -0.3816
 3731TIP3    H132684   3.807   1.549   1.534 -1.6570 -0.4258  0.3548
 3731TIP3    H232685   3.811   1.510   1.680  0.5395  0.0083  0.4528
 3732TIP3   OH232686   6.478   2.210  15.854 -0.2200 -0.0104 -0.9029
 3732TIP3    H132687   6.468   2.305  15.867 -0.0312 -0.2029  0.9817
 3732TIP3    H232688   6.551   2.202  15.793  2.2220  1.0791  1.6292
 3733TIP3   OH232689   6.164   5.460  16.257 -0.3941  0.0402 -0.5681
 3733TIP3    H132690   6.186   5.414  16.176 -0.6010  0.3780 -0.8219
 3733TIP3    H232691   6.109   5.533  16.228 -0.7384 -0.0249 -0.0846
 3734TIP3   OH232692   3.939   4.110   5.968  0.0253  0.9293 -0.5624
 3734TIP3    H132693   4.020   4.132   6.012  1.1550 -1.1322 -1.4435
 3734TIP3    H232694   3.906   4.033   6.015 -0.7316  0.9742 -0.9932
 3735TIP3   OH232695   3.561   0.568   4.087 -0.1156 -0.3853 -0.3339
 3735TIP3    H132696   3.604   0.581   4.003  1.7627 -0.2743  0.5933
 3735TIP3    H232697   3.555   0.472   4.096 -0.2108 -0.3994 -0.5412
 3736TIP3   OH232698   1.709   2.019   5.852  0.0610  0.0754 -0.2535
 3736TIP3    H132699   1.705   1.973   5.936  1.9741 -1.1334 -0.7709
 3736TIP3    H232700   1.753   2.102   5.873  0.0793  0.0002  0.0135
 3737TIP3   OH232701   5.436   6.016   3.898 -0.0265 -0.1128 -0.1019
 3737TIP3    H132702   5.446   6.075   3.972 -0.0431 -0.3475  0.0874
 3737TIP3    H232703   5.433   5.929   3.937 -0.5135 -0.2036 -0.3385
 3738TIP3   OH232704   5.182   0.978   3.424 -0.8609 -0.5392  0.6845
 3738TIP3    H132705   5.089   0.994   3.439 -1.0376 -2.3900  1.7706
 3738TIP3    H232706   5.219   0.969   3.511  0.2542 -0.3319  0.2426
 3739TIP3   OH232707   5.714   0.855   0.842 -0.6765 -0.2287 -0.3628
 3739TIP3    H132708   5.696   0.897   0.926  0.3583  1.4755 -0.9369
 3739TIP3    H232709   5.632   0.863   0.793 -0.3941  1.6008 -0.6148
 3740TIP3   OH232710   6.306   0.782   4.768  0.4225 -0.5780 -0.1691
 3740TIP3    H132711   6.381   0.768   4.825  0.4396 -1.9556 -0.4784
 3740TIP3    H232712   6.260   0.698   4.770 -0.3276 -0.1997 -1.0978
 3741TIP3   OH232713   0.994   3.752  15.469 -0.3852  0.0346 -0.0599
 3741TIP3    H132714   0.905   3.747  15.504 -0.6527 -0.7645 -0.8144
 3741TIP3    H232715   1.051   3.746  15.545 -0.9592 -0.7505  0.3216
 3742TIP3   OH232716   5.458   1.080  11.284 -0.0794  0.0668  0.3293
 3742TIP3    H132717   5.372   1.065  11.244  1.1027 -3.4655 -1.3511
 3742TIP3    H232718   5.498   1.148  11.230 -0.9561  0.0094 -0.4165
 3743TIP3   OH232719   2.750   3.963   4.089  0.0327  0.6859 -0.7374
 3743TIP3    H132720   2.788   4.025   4.151 -0.0105 -1.0422  1.1247
 3743TIP3    H232721   2.667   3.937   4.129  0.5007 -1.2775 -0.9421
 3744TIP3   OH232722   4.360   6.709   1.652  0.2178  0.1214 -0.0266
 3744TIP3    H132723   4.449   6.681   1.669  0.0290 -0.6872 -0.3260
 3744TIP3    H232724   4.365   6.757   1.569  0.3613 -0.0089 -0.0925
 3745TIP3   OH232725   1.322   0.466  12.409  0.4148  0.3769  0.3022
 3745TIP3    H132726   1.400   0.521  12.400  0.5994  0.0160 -0.4614
 3745TIP3    H232727   1.294   0.478  12.499  1.0558  0.9132  0.4403
 3746TIP3   OH232728   6.125   3.074  10.517  0.1902  0.0272  0.3425
 3746TIP3    H132729   6.209   3.051  10.557 -0.3329 -0.7584  1.0161
 3746TIP3    H232730   6.072   3.107  10.590 -0.8117 -1.5200  0.3539
 3747TIP3   OH232731   2.967   0.538  13.794  0.0319 -0.3539 -0.0668
 3747TIP3    H132732   2.960   0.461  13.850 -0.7418 -1.1841 -1.2590
 3747TIP3    H232733   2.928   0.511  13.711  1.6610  0.6579 -1.2047
 3748TIP3   OH232734   6.535   6.377   0.109  0.1321  0.1845  0.3939
 3748TIP3    H132735   6.451   6.346   0.142 -1.0853  0.8703 -1.8181
 3748TIP3    H232736   6.559   6.449   0.168 -1.5939  0.9346  0.2446
 3749TIP3   OH232737   4.007   5.343   1.448 -0.2822 -0.0144 -0.4250
 3749TIP3    H132738   3.940   5.307   1.390  0.9782 -1.0193 -1.3129
 3749TIP3    H232739   4.067   5.270   1.463  0.6468  0.8687  0.3175
 3750TIP3   OH232740   1.714   3.550   3.508 -0.4541  0.4314 -0.3717
 3750TIP3    H132741   1.801   3.535   3.471 -0.3450 -0.3030  0.1513
 3750TIP3    H232742   1.662   3.583   3.435 -0.4587 -1.7338 -1.4482
 3751TIP3   OH232743   3.377   1.795  14.340  0.5809 -0.2459 -0.4302
 3751TIP3    H132744   3.370   1.871  14.397  1.6165 -0.6313  0.2465
 3751TIP3    H232745   3.295   1.747  14.354 -0.4705  1.1546 -1.5242
 3752TIP3   OH232746   6.301   1.605  12.954  0.3337  0.1672 -0.0180
 3752TIP3    H132747   6.336   1.682  12.910  1.0372 -0.2137 -0.1478
 3752TIP3    H232748   6.344   1.605  13.040  2.1416 -1.3215 -0.8545
 3753TIP3   OH232749   0.955   2.824   1.630  0.2347 -0.1909  0.3054
 3753TIP3    H132750   0.897   2.874   1.574 -0.1220 -1.0874 -0.1482
 3753TIP3    H232751   0.930   2.848   1.719  0.5008  0.8984  0.0993
 3754TIP3   OH232752   1.166   2.181  10.846  0.2270 -0.3505 -0.0112
 3754TIP3    H132753   1.202   2.255  10.796  0.1194 -0.4936 -0.3000
 3754TIP3    H232754   1.073   2.182  10.827 -0.0559  0.4270  1.2557
 3755TIP3   OH232755   5.508   4.002   1.734  0.3878  0.4031  0.4562
 3755TIP3    H132756   5.429   3.998   1.789  1.1370 -0.4248  1.5134
 3755TIP3    H232757   5.534   4.094   1.737 -0.1367  0.5484  0.6969
 3756TIP3   OH232758   4.257   6.271  14.665  0.5125  0.4271 -0.0327
 3756TIP3    H132759   4.259   6.175  14.659  1.2674  0.4616 -0.4990
 3756TIP3    H232760   4.252   6.289  14.759  2.2292 -0.0718  0.2027
 3757TIP3   OH232761   3.396   1.890   2.063 -0.8046 -0.0039  0.2943
 3757TIP3    H132762   3.342   1.889   1.984 -0.7772  0.9967  0.2572
 3757TIP3    H232763   3.365   1.815   2.114 -1.3706 -0.1768 -0.2937
 3758TIP3   OH232764   3.957   5.892   6.199  0.2294 -0.2793  0.0973
 3758TIP3    H132765   3.938   5.934   6.284 -1.6175 -3.4850  1.4600
 3758TIP3    H232766   3.910   5.946   6.136  1.6217  2.1877  1.0066
 3759TIP3   OH232767   0.366   3.700  13.085  0.4265  0.6171 -0.3394
 3759TIP3    H132768   0.310   3.753  13.142 -1.2860 -0.8275 -0.5608
 3759TIP3    H232769   0.388   3.758  13.013  2.4260  2.4142  1.5601
 3760TIP3   OH232770   0.860   2.259   0.933  0.2694  0.1292 -0.1986
 3760TIP3    H132771   0.907   2.319   0.875 -1.3749  3.7575  1.8708
 3760TIP3    H232772   0.927   2.228   0.995  0.7952  1.7658  0.0991
 3761TIP3   OH232773   6.430   3.475  14.292 -0.5191  0.6895 -0.6154
 3761TIP3    H132774   6.474   3.411  14.236 -0.7574  0.7986 -0.9318
 3761TIP3    H232775   6.484   3.478  14.372  0.0661  0.8440 -1.0046
 3762TIP3   OH232776   0.596   0.360  17.017 -0.3755 -0.0056  0.2468
 3762TIP3    H132777   0.666   0.313  17.061  0.9857  1.6872  0.0104
 3762TIP3    H232778   0.550   0.406  17.087 -0.3643 -0.0296  0.2689
 3763TIP3   OH232779   3.826   1.053   5.572 -0.4480  0.3235  0.7636
 3763TIP3    H132780   3.901   1.062   5.631  1.8302  2.2701 -2.1714
 3763TIP3    H232781   3.773   1.131   5.588 -0.1177  0.5748  0.6468
 3764TIP3   OH232782   1.857   0.678  13.961 -0.0889 -0.1429  0.2544
 3764TIP3    H132783   1.897   0.661  13.876  0.6515 -0.2985  0.6234
 3764TIP3    H232784   1.885   0.767  13.984 -1.1245  0.2878 -0.1187
 3765TIP3   OH232785   3.509   0.372  14.655  0.2728 -0.2210  0.0623
 3765TIP3    H132786   3.450   0.394  14.727 -0.4109  0.1425 -0.5905
 3765TIP3    H232787   3.545   0.456  14.627 -1.3289  0.0007 -1.5703
 3766TIP3   OH232788   1.461   3.159  16.482  0.4591 -0.4236 -0.9037
 3766TIP3    H132789   1.453   3.063  16.488  0.2072 -0.4115 -1.0509
 3766TIP3    H232790   1.412   3.182  16.404  0.5607 -0.1767 -0.8938
 3767TIP3   OH232791   3.861   5.540  11.911  0.0271 -0.0435 -0.7416
 3767TIP3    H132792   3.794   5.606  11.931 -0.8194 -1.1884  0.3264
 3767TIP3    H232793   3.813   5.469  11.870 -0.1976 -2.4434  3.1727
 3768TIP3   OH232794   1.114   2.472   6.122  0.0170  0.4012  0.1878
 3768TIP3    H132795   1.087   2.467   6.214 -0.0638  0.3573  0.1611
 3768TIP3    H232796   1.138   2.382   6.100 -1.1261  0.1731 -0.1953
 3769TIP3   OH232797   5.927   1.582   6.519  0.0926 -0.1803  0.3700
 3769TIP3    H132798   6.017   1.613   6.521 -0.0865  0.7131 -2.1085
 3769TIP3    H232799   5.875   1.661   6.501 -0.6754 -1.2548 -2.8576
 3770TIP3   OH232800   1.035   6.460   0.567  0.0236 -0.5202  0.0649
 3770TIP3    H132801   0.965   6.463   0.502  0.4345  0.4252 -0.3502
 3770TIP3    H232802   1.061   6.368   0.569 -0.5218 -0.7005 -0.5404
 3771TIP3   OH232803   5.164   2.497   3.573  0.0360  0.2149  0.5117
 3771TIP3    H132804   5.110   2.422   3.551 -0.3685  0.9095 -0.9431
 3771TIP3    H232805   5.252   2.460   3.584 -0.1978 -0.4980  0.0477
 3772TIP3   OH232806   6.127   2.449  10.928  0.1709 -0.0259  0.7258
 3772TIP3    H132807   6.223   2.448  10.924  0.1930  1.2637  0.4865
 3772TIP3    H232808   6.102   2.526  10.877 -0.8516  1.3721  3.1593
 3773TIP3   OH232809   0.177   3.268   2.021 -0.0552 -0.3014 -0.2538
 3773TIP3    H132810   0.214   3.277   1.933  2.2499 -0.9935  0.5749
 3773TIP3    H232811   0.094   3.315   2.016 -0.4388 -1.0422 -3.0207
 3774TIP3   OH232812   3.561   4.471   0.400 -0.6711  0.3379 -0.1548
 3774TIP3    H132813   3.645   4.431   0.423 -1.3193 -1.2482 -0.3935
 3774TIP3    H232814   3.564   4.479   0.304 -1.2212 -0.8538 -0.3005
 3775TIP3   OH232815   2.308   6.583  13.301 -0.8071  1.2209 -0.1951
 3775TIP3    H132816   2.364   6.659  13.283 -0.3174  1.0829  0.6710
 3775TIP3    H232817   2.221   6.611  13.273 -0.6326  2.1003  0.0810
 3776TIP3   OH232818   4.640   6.778  14.846  0.3864  0.3849  0.0576
 3776TIP3    H132819   4.732   6.795  14.865  0.3360 -0.1295  0.8073
 3776TIP3    H232820   4.592   6.836  14.904  0.2289 -1.3227  1.7480
 3777TIP3   OH232821   3.203   2.950  15.268  0.0231 -0.1158 -1.0550
 3777TIP3    H132822   3.121   2.900  15.277  0.2093 -0.1742  0.7762
 3777TIP3    H232823   3.212   2.996  15.352  0.7482  1.6635 -2.0490
 3778TIP3   OH232824   5.428   0.210   1.204 -0.4668 -0.7545  0.2469
 3778TIP3    H132825   5.441   0.115   1.199 -0.2703 -0.8201  1.7103
 3778TIP3    H232826   5.456   0.234   1.292  2.1784  1.1068 -0.9721
 3779TIP3   OH232827   0.658   5.618   4.602 -0.5139 -0.0428  0.1119
 3779TIP3    H132828   0.647   5.581   4.690  1.1107 -0.7496  0.0420
 3779TIP3    H232829   0.678   5.711   4.618 -0.7215 -0.0580  0.4679
 3780TIP3   OH232830   3.331   2.789   4.941  0.7165  0.3426  0.0533
 3780TIP3    H132831   3.287   2.704   4.928  0.2935  0.7615 -1.4392
 3780TIP3    H232832   3.263   2.845   4.979 -0.1761  1.0374 -2.4059
 3781TIP3   OH232833   6.656   3.054  14.119 -0.1446 -0.2001  0.2966
 3781TIP3    H132834   6.616   2.967  14.118 -0.9329  0.1532 -1.4492
 3781TIP3    H232835   6.695   3.064  14.032 -1.5145  1.8205 -0.1630
 3782TIP3   OH232836   4.585   3.327   4.756  0.8287  0.0583  0.2595
 3782TIP3    H132837   4.516   3.357   4.815 -0.8388  1.1916 -2.1323
 3782TIP3    H232838   4.658   3.386   4.774  0.6194 -0.0361  1.5904
 3783TIP3   OH232839   3.081   4.742  16.013  0.1176  0.1566 -0.1665
 3783TIP3    H132840   3.106   4.832  16.033 -0.9809  0.9403 -2.1076
 3783TIP3    H232841   2.987   4.745  15.999 -0.0089 -1.3959  0.1316
 3784TIP3   OH232842   2.625   1.012   5.918 -0.4953  0.0942 -0.7598
 3784TIP3    H132843   2.589   0.925   5.935 -0.6621 -0.2405 -2.5997
 3784TIP3    H232844   2.697   1.021   5.980 -0.6796 -1.2309 -0.3332
 3785TIP3   OH232845   0.597   6.602  12.834  0.0717  0.1113  0.3882
 3785TIP3    H132846   0.587   6.519  12.881  0.8310  0.4103  1.1093
 3785TIP3    H232847   0.692   6.618  12.833 -0.1010  1.3269  0.9074
 3786TIP3   OH232848   0.917   6.216  17.046 -0.1416  0.4794  0.2884
 3786TIP3    H132849   0.931   6.300  17.090 -1.9186  0.9608  0.0216
 3786TIP3    H232850   0.843   6.177  17.093  1.1924 -1.3647  0.9715
 3787TIP3   OH232851   0.972   1.519  11.469 -0.0789 -0.0355 -0.2813
 3787TIP3    H132852   0.943   1.466  11.544  1.7590 -0.5963  0.0709
 3787TIP3    H232853   1.040   1.466  11.427 -0.0074  0.9501 -1.4595
 3788TIP3   OH232854   1.144   0.200  11.669 -0.5638 -0.8952  0.7345
 3788TIP3    H132855   1.093   0.279  11.680  0.2883 -0.4665  1.8808
 3788TIP3    H232856   1.122   0.168  11.582  1.5803  2.4548 -1.2199
 3789TIP3   OH232857   4.220   2.910  11.141 -0.2878 -0.3280 -0.8798
 3789TIP3    H132858   4.247   2.871  11.058  2.6486 -2.2770  0.8118
 3789TIP3    H232859   4.296   2.898  11.199 -2.6234 -0.2487  2.4778
 3790TIP3   OH232860   3.830   4.662  11.316  0.2445  0.3048 -0.2919
 3790TIP3    H132861   3.770   4.735  11.332 -1.4911 -0.6745 -1.9497
 3790TIP3    H232862   3.850   4.668  11.222  2.0498  0.0365  0.0255
 3791TIP3   OH232863   3.064   2.067   5.744  0.3207 -0.2811  0.2159
 3791TIP3    H132864   3.085   2.010   5.818 -0.4014 -1.2251 -0.2905
 3791TIP3    H232865   3.146   2.070   5.694  0.9562  0.7270  1.2501
 3792TIP3   OH232866   4.343   6.085  17.108  0.2573  0.5559 -0.6779
 3792TIP3    H132867   4.358   6.138  17.030  0.0273 -1.0182 -1.8269
 3792TIP3    H232868   4.422   6.099  17.161  1.4415 -0.0423 -2.2046
 3793TIP3   OH232869   1.996   3.825   4.490 -0.0729  0.6563  0.3593
 3793TIP3    H132870   1.985   3.868   4.575  0.0577  0.4266  0.4941
 3793TIP3    H232871   1.925   3.761   4.486 -0.3276  0.9521  0.1158
 3794TIP3   OH232872   1.328   2.782  12.042  0.1083  0.1951 -0.7503
 3794TIP3    H132873   1.418   2.798  12.012 -0.5453  3.9465 -1.2096
 3794TIP3    H232874   1.333   2.789  12.137  0.1434  1.8073 -0.8473
 3795TIP3   OH232875   5.234   3.653   4.953  0.2595 -0.4442 -0.0826
 3795TIP3    H132876   5.182   3.704   5.015 -1.4273 -0.6184 -1.2916
 3795TIP3    H232877   5.170   3.600   4.906  1.4246 -0.0106 -2.2924
 3796TIP3   OH232878   5.862   6.724  15.351 -0.4033  0.3662  0.2120
 3796TIP3    H132879   5.914   6.675  15.286 -0.0161  0.5386  0.3918
 3796TIP3    H232880   5.847   6.661  15.422  0.3533  0.5989  0.5810
 3797TIP3   OH232881   0.434   5.154   0.473  0.2487 -0.4729 -0.1605
 3797TIP3    H132882   0.353   5.204   0.486  0.2688 -0.9902  2.3046
 3797TIP3    H232883   0.404   5.071   0.435 -0.5504 -1.0471  1.6169
 3798TIP3   OH232884   2.013   1.821  12.222  0.8199  0.4255  0.3250
 3798TIP3    H132885   2.087   1.837  12.164 -0.2602  0.1812 -1.2066
 3798TIP3    H232886   2.002   1.902  12.271  1.2944  0.9239 -0.3746
 3799TIP3   OH232887   3.335   5.916   1.793 -0.3768  0.1206  0.4557
 3799TIP3    H132888   3.305   6.000   1.828  1.2298  0.2898  1.5760
 3799TIP3    H232889   3.291   5.850   1.847 -2.3826  0.1587 -1.0411
 3800TIP3   OH232890   2.059   5.075   0.696  0.5288  0.6196 -0.3362
 3800TIP3    H132891   2.078   5.002   0.637  0.2678 -0.0571  0.4014
 3800TIP3    H232892   1.964   5.080   0.698  0.5503  1.1464 -0.5795
 3801TIP3   OH232893   1.062   6.395  15.852 -0.0343 -0.6240 -0.3459
 3801TIP3    H132894   1.021   6.429  15.931  0.3442 -1.7381  0.3631
 3801TIP3    H232895   1.013   6.434  15.780 -0.7150  0.0089  0.4459
 3802TIP3   OH232896   4.699   5.157   4.681 -0.1753 -0.7236 -0.0621
 3802TIP3    H132897   4.634   5.095   4.649 -2.5279  1.6962 -0.3507
 3802TIP3    H232898   4.735   5.197   4.602  1.6916 -1.9375  0.0981
 3803TIP3   OH232899   4.727   0.755   0.796  0.1172 -0.1951 -0.2162
 3803TIP3    H132900   4.678   0.694   0.852 -1.0501  1.3721  0.5454
 3803TIP3    H232901   4.807   0.708   0.774 -1.3516 -2.5800 -0.8737
 3804TIP3   OH232902   1.865   1.666  10.572  0.0952  0.4313  0.5320
 3804TIP3    H132903   1.958   1.665  10.595 -0.1150  0.5814  1.3915
 3804TIP3    H232904   1.855   1.744  10.517  0.4943  0.3549  0.3446
 3805TIP3   OH232905   2.112   1.225   2.944 -0.3974  0.0580  0.5058
 3805TIP3    H132906   2.140   1.287   3.011  1.3982 -0.4295  0.2543
 3805TIP3    H232907   2.065   1.157   2.993  0.9508 -0.3346  1.3255
 3806TIP3   OH232908   6.228   3.444  17.059 -0.8050 -0.1033 -0.4377
 3806TIP3    H132909   6.267   3.443  17.147  0.1009 -2.7325 -0.7578
 3806TIP3    H232910   6.152   3.387  17.066 -0.6682 -0.4190 -1.3748
 3807TIP3   OH232911   2.538   5.113   4.317 -0.2619  0.2775  0.0291
 3807TIP3    H132912   2.470   5.176   4.292 -1.3430 -0.8054  0.0850
 3807TIP3    H232913   2.616   5.165   4.331 -0.8099  1.4609 -1.0849
 3808TIP3   OH232914   5.094   2.971  10.592 -0.0144 -0.1550  0.9648
 3808TIP3    H132915   5.187   2.947  10.593  0.0270  0.0115  1.7172
 3808TIP3    H232916   5.049   2.888  10.605 -0.0593 -0.5193 -1.1416
 3809TIP3   OH232917   3.409   3.995   3.185  0.6283 -0.0568 -0.0683
 3809TIP3    H132918   3.314   4.005   3.197  0.8171  0.0155  1.7650
 3809TIP3    H232919   3.439   4.083   3.160  0.0344 -0.4749 -2.4871
 3810TIP3   OH232920   4.962   0.798  17.077  0.3655 -0.3610 -0.6411
 3810TIP3    H132921   4.954   0.866  17.143  1.5445  0.2630 -1.1060
 3810TIP3    H232922   4.872   0.770  17.059  0.0133 -0.4546  1.1080
 3811TIP3   OH232923   0.481   0.726   4.921 -0.3341  0.1028 -0.1892
 3811TIP3    H132924   0.541   0.760   4.987 -1.6573 -0.6877  1.5470
 3811TIP3    H232925   0.483   0.631   4.934 -1.8001  0.0412 -0.1681
 3812TIP3   OH232926   0.821   5.994  13.195 -0.1183 -0.7477 -0.4911
 3812TIP3    H132927   0.908   6.026  13.170 -0.3097 -0.0820 -0.3231
 3812TIP3    H232928   0.777   5.976  13.111 -0.8453  1.7160 -0.7051
 3813TIP3   OH232929   2.668   2.184   3.548 -0.1290  0.3916  0.6913
 3813TIP3    H132930   2.742   2.138   3.589 -0.0455  0.3793  0.5285
 3813TIP3    H232931   2.591   2.138   3.580  0.0171 -1.3466 -1.2036
 3814TIP3   OH232932   3.950   1.647   3.956  0.1216  0.0425 -0.4327
 3814TIP3    H132933   3.985   1.584   3.894 -0.8802  0.7601 -1.8001
 3814TIP3    H232934   3.994   1.628   4.039 -0.6660 -2.8924 -0.5911
 3815TIP3   OH232935   1.374   5.647   6.878  0.0292 -0.2748  0.3204
 3815TIP3    H132936   1.416   5.576   6.927  0.2964 -1.1503 -1.1287
 3815TIP3    H232937   1.337   5.604   6.801 -0.7030  1.0095 -0.0629
 3816TIP3   OH232938   5.249   6.174  13.498  0.5384  0.0749  0.3275
 3816TIP3    H132939   5.328   6.156  13.548  0.3823  0.0447  0.5624
 3816TIP3    H232940   5.214   6.087  13.476  1.3365  0.0633 -0.9988
 3817TIP3   OH232941   4.230   2.632   4.368  0.3422  0.5589  0.0349
 3817TIP3    H132942   4.283   2.701   4.408  0.1559  0.1456  1.0458
 3817TIP3    H232943   4.140   2.661   4.380  0.2774  0.3357  0.0896
 3818TIP3   OH232944   4.360   3.291  12.590  0.2897 -0.3350 -0.2295
 3818TIP3    H132945   4.285   3.314  12.645 -0.1440 -0.5109 -0.7370
 3818TIP3    H232946   4.372   3.197  12.604  1.1988 -0.0855  0.7936
 3819TIP3   OH232947   3.008   5.908  11.788  0.0455 -0.5081 -0.0324
 3819TIP3    H132948   2.988   5.861  11.707  1.0842 -2.1715  0.6191
 3819TIP3    H232949   2.939   5.882  11.849 -0.9007  0.9687 -0.4217
 3820TIP3   OH232950   6.030   1.952  14.855 -0.1609  0.3394  0.3898
 3820TIP3    H132951   5.947   1.934  14.899 -0.5093  0.1550 -0.3191
 3820TIP3    H232952   6.095   1.955  14.925 -0.5469 -0.8427  0.8178
 3821TIP3   OH232953   1.725   4.454   1.297  0.1140  0.4935 -0.1659
 3821TIP3    H132954   1.701   4.379   1.243 -0.6418 -0.2460  1.1568
 3821TIP3    H232955   1.741   4.525   1.234 -1.4137 -0.1456 -1.3169
 3822TIP3   OH232956   4.550   6.556   2.762 -0.2182 -0.4589 -0.2245
 3822TIP3    H132957   4.497   6.566   2.682  1.4842  0.3697 -1.3258
 3822TIP3    H232958   4.563   6.646   2.793 -0.4812 -0.7458  0.7465
 3823TIP3   OH232959   5.300   0.939   0.075  0.2418  0.4847 -0.2129
 3823TIP3    H132960   5.217   0.973   0.042  0.5032  0.0673 -1.3294
 3823TIP3    H232961   5.274   0.875   0.141 -0.2685  3.0430  2.2986
 3824TIP3   OH232962   4.648   2.400   1.960 -0.3691  0.1149 -0.1622
 3824TIP3    H132963   4.701   2.352   1.897  2.8492  1.3464  1.4120
 3824TIP3    H232964   4.687   2.381   2.045 -0.7546  3.1592  0.8241
 3825TIP3   OH232965   1.554   6.645  11.887 -0.5487 -0.6319 -0.7047
 3825TIP3    H132966   1.481   6.706  11.874 -0.6818 -0.1098  1.9571
 3825TIP3    H232967   1.528   6.592  11.963  1.5973 -0.7920 -0.0244
 3826TIP3   OH232968   3.092   1.498  15.951  0.4032 -0.0741 -0.3546
 3826TIP3    H132969   3.036   1.548  16.010 -0.3507 -1.0516 -0.2108
 3826TIP3    H232970   3.036   1.477  15.876 -0.1042 -2.7228  0.6481
 3827TIP3   OH232971   2.608   3.820   3.792  0.0550  0.4558  0.1108
 3827TIP3    H132972   2.659   3.739   3.790 -1.3848 -0.4981  0.4420
 3827TIP3    H232973   2.535   3.801   3.851 -0.2958  2.0144  0.2138
 3828TIP3   OH232974   2.946   5.791  12.917 -0.0721 -0.1645  0.2808
 3828TIP3    H132975   2.993   5.718  12.878 -0.2739  0.1916 -0.6585
 3828TIP3    H232976   3.007   5.865  12.913 -0.3391  0.0459 -0.0155
 3829TIP3   OH232977   4.015   5.484   3.974  0.0103  0.2411 -0.3231
 3829TIP3    H132978   3.923   5.498   3.953 -0.4487 -0.2656  1.1956
 3829TIP3    H232979   4.050   5.571   3.988 -0.4582  0.3953 -0.0926
 3830TIP3   OH232980   3.778   3.678   0.433 -0.0241  0.2095  0.0400
 3830TIP3    H132981   3.810   3.636   0.512 -1.0417 -0.0259  0.3385
 3830TIP3    H232982   3.854   3.726   0.399  1.4445 -2.4845 -0.7679
 3831TIP3   OH232983   1.264   4.698  16.751 -0.1056 -0.1380 -0.0357
 3831TIP3    H132984   1.254   4.658  16.837 -1.8602  1.2899  0.4928
 3831TIP3    H232985   1.232   4.631  16.690 -1.1109 -0.3093  0.6462
 3832TIP3   OH232986   4.195   0.450  16.246 -0.0101 -0.1104 -0.5350
 3832TIP3    H132987   4.246   0.526  16.272  0.4751 -0.7750  0.5010
 3832TIP3    H232988   4.111   0.461  16.291  0.8046 -1.2256  1.3590
 3833TIP3   OH232989   2.791   3.274   0.412 -0.0611  0.0884  0.3452
 3833TIP3    H132990   2.728   3.219   0.458  0.7694 -1.2865 -0.0952
 3833TIP3    H232991   2.876   3.245   0.445  0.4035  1.0419  0.0168
 3834TIP3   OH232992   4.062   0.858  13.902 -0.3450  0.2811 -0.1866
 3834TIP3    H132993   3.990   0.801  13.875 -0.8795  0.5029  0.7278
 3834TIP3    H232994   4.091   0.900  13.821 -0.2960 -0.8792 -0.7925
 3835TIP3   OH232995   4.868   6.370   3.288  0.8331  0.3403 -0.6446
 3835TIP3    H132996   4.833   6.306   3.226  1.2745 -1.4262  0.8411
 3835TIP3    H232997   4.963   6.362   3.279  0.9114 -0.2318  0.5117
 3836TIP3   OH232998   5.248   2.042  17.064 -0.1322  0.0594  0.8978
 3836TIP3    H132999   5.227   1.982  17.135  0.2247 -2.2138 -0.8193
 3836TIP3    H233000   5.238   1.991  16.984 -0.0319  2.3642 -0.7133
 3837TIP3   OH233001   3.851   0.495   3.575 -0.1893 -0.0705 -0.1231
 3837TIP3    H133002   3.814   0.445   3.503  0.8897  0.3648 -1.0117
 3837TIP3    H233003   3.946   0.482   3.567  0.2409  2.8316 -1.0102
 3838TIP3   OH233004   3.281   0.526   5.900  0.7318 -0.1661  0.1309
 3838TIP3    H133005   3.348   0.470   5.859 -0.2520 -0.2144 -1.4899
 3838TIP3    H233006   3.216   0.464   5.934 -0.9755 -0.1115 -2.7283
 3839TIP3   OH233007   6.544   2.686  15.667 -0.1694  0.1855 -0.2807
 3839TIP3    H133008   6.522   2.779  15.682 -0.4481  0.0109  0.4742
 3839TIP3    H233009   6.466   2.650  15.626 -0.9229 -0.1761  1.3640
 3840TIP3   OH233010   4.600   2.435  14.123 -0.2581 -0.2437  0.2715
 3840TIP3    H133011   4.570   2.526  14.121  0.7337  0.1449  1.4854
 3840TIP3    H233012   4.596   2.411  14.216 -3.4667 -2.5162 -0.2660
 3841TIP3   OH233013   4.559   0.184   5.421  0.0396  0.0269 -0.2743
 3841TIP3    H133014   4.508   0.257   5.456 -0.8692 -1.4622  1.7283
 3841TIP3    H233015   4.624   0.225   5.363  0.9990  2.6390  2.4074
 3842TIP3   OH233016   0.008   0.985  11.748  0.0183  0.2942  0.2199
 3842TIP3    H133017  -0.072   0.957  11.703  1.3339 -1.3216 -1.2584
 3842TIP3    H233018   0.018   0.922  11.819 -0.5927  1.1797  1.1083
 3843TIP3   OH233019   4.502   2.317  16.952  0.1489  0.1256  0.4912
 3843TIP3    H133020   4.496   2.258  17.027 -2.8921  0.1280  0.3821
 3843TIP3    H233021   4.542   2.397  16.987  1.4835 -0.8878  1.3648
 3844TIP3   OH233022   5.073   1.329  13.529 -1.0378  0.0643  0.0122
 3844TIP3    H133023   5.060   1.275  13.607  1.2457  0.7871  0.9830
 3844TIP3    H233024   5.128   1.277  13.472 -0.3721  0.6203  0.1335
 3845TIP3   OH233025   2.734   5.442  13.824 -0.3719  0.2643  0.4219
 3845TIP3    H133026   2.739   5.367  13.764 -1.2490  1.8191 -1.7433
 3845TIP3    H233027   2.817   5.489  13.811 -0.7666  0.8701 -0.0054
 3846TIP3   OH233028   4.202   6.041   3.653  0.0203 -0.2215  0.5654
 3846TIP3    H133029   4.160   6.103   3.712 -0.6160 -0.2959  0.2071
 3846TIP3    H233030   4.221   6.091   3.574  1.4259  0.0308  1.0387
 3847TIP3   OH233031   0.218   0.129  12.706  0.0076  0.1396  0.1747
 3847TIP3    H133032   0.311   0.109  12.715  0.2828  0.5797 -1.3067
 3847TIP3    H233033   0.176   0.044  12.693 -0.1339 -0.2857  2.8922
 3848TIP3   OH233034   4.413   2.371  15.929 -0.2265  0.2446 -0.2261
 3848TIP3    H133035   4.378   2.324  16.005  1.2977 -1.2024 -0.3668
 3848TIP3    H233036   4.466   2.440  15.967 -0.5837  0.3982  0.0053
 3849TIP3   OH233037   5.141   0.198  14.775 -0.6038  0.4430  0.3566
 3849TIP3    H133038   5.183   0.228  14.855  0.7148  1.3742 -0.6344
 3849TIP3    H233039   5.142   0.274  14.717 -2.9996  0.2675 -0.0189
 3850TIP3   OH233040   2.997   1.342  13.702  0.7215 -0.3942  0.0051
 3850TIP3    H133041   3.068   1.286  13.732  1.4670  0.0902 -0.7632
 3850TIP3    H233042   3.036   1.430  13.699  0.4623 -0.2966 -1.5287
 3851TIP3   OH233043   3.935   6.779   0.489 -0.0671  0.0440 -0.1923
 3851TIP3    H133044   3.914   6.780   0.583 -1.1177 -1.4193 -0.3733
 3851TIP3    H233045   3.870   6.720   0.451  2.4596 -2.2266 -1.3103
 3852TIP3   OH233046   6.434   4.857   4.390 -0.0959 -0.0238  0.1875
 3852TIP3    H133047   6.355   4.908   4.410  1.0085  2.6205 -1.5259
 3852TIP3    H233048   6.485   4.861   4.471 -0.2795  1.2124  0.2698
 3853TIP3   OH233049   2.138   0.868   2.219  1.0239 -0.0003 -0.4551
 3853TIP3    H133050   2.214   0.811   2.212  0.3450 -0.7562 -2.2559
 3853TIP3    H233051   2.063   0.811   2.205  0.0402  0.6614  1.6302
 3854TIP3   OH233052   1.565   2.478   3.159 -0.0391  0.1213  0.2967
 3854TIP3    H133053   1.588   2.551   3.102 -2.1982 -0.4887 -1.5131
 3854TIP3    H233054   1.476   2.455   3.134 -0.4389 -1.3727  2.7370
 3855TIP3   OH233055   2.718   3.529   0.433  0.5972  0.8942 -0.2092
 3855TIP3    H133056   2.644   3.531   0.373  1.1491 -0.6169 -0.9908
 3855TIP3    H233057   2.759   3.444   0.418  0.3692  0.1214  2.7772
 3856TIP3   OH233058   1.334   2.607   4.255 -0.0126  0.3244 -0.0605
 3856TIP3    H133059   1.316   2.698   4.281  0.8066  0.8458 -1.2178
 3856TIP3    H233060   1.331   2.609   4.159  3.6610  0.0031 -0.3266
 3857TIP3   OH233061   4.811   1.889  16.123  0.2411  0.4556 -0.3458
 3857TIP3    H133062   4.805   1.798  16.154 -0.2507  0.5748 -0.0783
 3857TIP3    H233063   4.721   1.913  16.103  0.3407  0.9696 -0.1837
 3858TIP3   OH233064   2.079   2.444   0.688 -0.3815  0.0546 -0.2917
 3858TIP3    H133065   1.990   2.435   0.722  0.2438 -0.3177  1.3380
 3858TIP3    H233066   2.109   2.354   0.674 -0.6075  0.1900 -1.9070
 3859TIP3   OH233067   4.461   1.587   2.014  0.0942  0.2795  0.0199
 3859TIP3    H133068   4.488   1.496   2.023 -0.1571  0.1058 -0.8769
 3859TIP3    H233069   4.374   1.583   1.975  0.8006  0.8994 -1.7851
 3860TIP3   OH233070   1.326   6.584   5.224 -0.3380  0.2858  0.2921
 3860TIP3    H133071   1.276   6.624   5.153  0.5042  0.5868 -0.1442
 3860TIP3    H233072   1.416   6.612   5.209  0.0394 -0.5918  0.8246
 3861TIP3   OH233073   1.813   6.749  14.665 -0.2720  1.0773 -0.1326
 3861TIP3    H133074   1.890   6.761  14.610 -0.0665  1.1308  0.1650
 3861TIP3    H233075   1.787   6.837  14.690  0.3232  1.0069  0.7954
 3862TIP3   OH233076   0.777   1.801   4.775  0.8171 -0.2383  0.6994
 3862TIP3    H133077   0.798   1.858   4.849  0.0777  3.5923 -1.7807
 3862TIP3    H233078   0.857   1.798   4.723  0.3200  0.0740 -0.1042
 3863TIP3   OH233079   2.416   1.224  13.935  0.0119 -0.0069 -0.0158
 3863TIP3    H133080   2.377   1.186  14.014  0.2030  0.6531  0.4060
 3863TIP3    H233081   2.411   1.155  13.870  0.9600 -0.9898  0.9218
 3864TIP3   OH233082   2.872   3.067   3.825 -0.2260 -0.6665  0.3277
 3864TIP3    H133083   2.851   2.973   3.826 -2.7885 -0.3135 -2.7274
 3864TIP3    H233084   2.952   3.073   3.773  0.4051 -1.1724  1.2143
 3865TIP3   OH233085   1.968   4.432   1.095  0.9205  0.3893  0.3637
 3865TIP3    H133086   2.002   4.344   1.086  0.7695  0.2278  1.2572
 3865TIP3    H233087   2.007   4.465   1.176  1.2540  1.2747 -0.1405
 3866TIP3   OH233088   0.797   0.190   0.584 -0.2752  0.4177  0.4630
 3866TIP3    H133089   0.768   0.268   0.632 -0.2402  1.8858 -1.7738
 3866TIP3    H233090   0.828   0.131   0.653 -0.0615  2.4590  2.2559
 3867TIP3   OH233091   3.093   3.255   3.441  0.4884 -0.5475  0.1039
 3867TIP3    H133092   3.178   3.294   3.422 -0.0382  0.0869 -1.0408
 3867TIP3    H233093   3.029   3.316   3.404 -0.5289 -0.5138  1.8193
 3868TIP3   OH233094   6.421   5.280   3.348 -0.2912 -0.6346 -0.3267
 3868TIP3    H133095   6.411   5.229   3.428 -0.3660 -0.4913 -0.2443
 3868TIP3    H233096   6.389   5.367   3.370  0.1312 -0.4625 -0.3695
 3869TIP3   OH233097   5.851   6.147   1.817  0.2929  0.1700 -0.0438
 3869TIP3    H133098   5.834   6.085   1.888  0.6175 -0.1576 -0.2531
 3869TIP3    H233099   5.852   6.094   1.738 -0.3244  0.5753 -0.3274
 3870TIP3   OH233100   5.182   5.281  12.810 -0.3390 -0.2438 -0.1596
 3870TIP3    H133101   5.162   5.315  12.722 -2.5268 -2.6809 -0.7283
 3870TIP3    H233102   5.237   5.204  12.794  1.8655  0.9897  0.9032
 3871TIP3   OH233103   5.041   5.473   6.092 -0.1660  0.0097  0.4530
 3871TIP3    H133104   5.065   5.436   6.177  0.6628 -0.0056  0.2286
 3871TIP3    H233105   5.003   5.558   6.113 -0.7498 -0.3453  0.8832
 3872TIP3   OH233106   3.254   4.089   4.462  0.0327  0.2565  0.3233
 3872TIP3    H133107   3.230   4.159   4.523  1.0851  0.8223  0.1204
 3872TIP3    H233108   3.314   4.130   4.401 -1.6198 -0.0976 -1.6339
 3873TIP3   OH233109   4.461   6.103   6.150  0.3966  0.2998 -0.6628
 3873TIP3    H133110   4.466   6.180   6.206 -0.2943  0.0210 -0.2122
 3873TIP3    H233111   4.374   6.067   6.166  0.6000 -0.4008 -1.0983
 3874TIP3   OH233112   0.134   6.072   1.640  0.4498 -0.2316  0.1967
 3874TIP3    H133113   0.138   5.978   1.656 -0.6398  0.1620  3.5998
 3874TIP3    H233114   0.056   6.084   1.586 -0.4403 -1.1806  1.2197
 3875TIP3   OH233115   4.243   5.507   3.014  0.1058  0.1199 -0.2368
 3875TIP3    H133116   4.156   5.471   3.001 -0.7525  2.2992 -0.8274
 3875TIP3    H233117   4.301   5.446   2.967 -1.0300 -1.4269  0.2811
 3876TIP3   OH233118   6.775   5.950  11.851 -0.1293 -0.5348 -0.2333
 3876TIP3    H133119   6.731   6.012  11.793 -0.2820 -1.5149 -1.1816
 3876TIP3    H233120   6.780   5.996  11.935 -3.4510 -0.5373  0.1002
 3877TIP3   OH233121   0.926   3.695  14.870  0.6243  0.0907 -0.5440
 3877TIP3    H133122   0.994   3.653  14.924  0.8597 -0.2836 -1.1164
 3877TIP3    H233123   0.892   3.765  14.925 -0.0041 -1.0405  0.5763
 3878TIP3   OH233124   5.789   0.407  16.124  0.4214  0.0387  0.1080
 3878TIP3    H133125   5.802   0.431  16.032  0.0245  3.5425  0.8337
 3878TIP3    H233126   5.821   0.482  16.173 -0.4099 -1.2575  2.8062
 3879TIP3   OH233127   0.076   6.418  16.482 -0.1126  0.1901  0.0153
 3879TIP3    H133128   0.132   6.493  16.499  0.6602 -0.2996 -0.2829
 3879TIP3    H233129   0.075   6.410  16.387  0.3450 -0.5581  0.0657
 3880TIP3   OH233130   3.555   3.176  15.450 -0.3311  0.0283  0.3802
 3880TIP3    H133131   3.468   3.205  15.421  0.5053  1.5532 -0.7576
 3880TIP3    H233132   3.614   3.203  15.380  1.2869  0.4554  1.8423
 3881TIP3   OH233133   0.172   0.170   0.425  0.0341  0.1187  0.2064
 3881TIP3    H133134   0.151   0.264   0.419 -0.1004  0.1175  0.6371
 3881TIP3    H233135   0.184   0.154   0.518  1.6181  0.0365  0.0140
 3882TIP3   OH233136   5.012   1.560   4.507 -0.1212 -0.2558  0.8237
 3882TIP3    H133137   5.041   1.598   4.590  2.0209  1.3238 -0.5256
 3882TIP3    H233138   4.933   1.609   4.485  1.1393  1.7375  0.4135
 3883TIP3   OH233139   1.954   1.884  15.766  0.1607  0.2540  0.1482
 3883TIP3    H133140   1.942   1.793  15.737  0.8440 -0.4456  1.9278
 3883TIP3    H233141   2.039   1.909  15.731 -0.0298  0.2020 -0.3513
 3884TIP3   OH233142   3.669   5.363   5.861 -0.2036 -0.0341 -0.5566
 3884TIP3    H133143   3.620   5.423   5.805 -0.5370 -0.4763 -0.7417
 3884TIP3    H233144   3.608   5.292   5.880  0.2790 -0.4655 -0.5887
 3885TIP3   OH233145   3.618   3.032  11.849  0.0886 -0.0187  0.3872
 3885TIP3    H133146   3.691   3.026  11.910  0.0740 -1.0147  0.3242
 3885TIP3    H233147   3.549   3.077  11.898  0.9277  1.4814  0.2467
 3886TIP3   OH233148   1.246   1.735  14.306  0.0792  0.4236 -0.1011
 3886TIP3    H133149   1.212   1.670  14.367  2.3496 -0.3992  0.4040
 3886TIP3    H233150   1.341   1.726  14.312  0.5147  3.7769 -0.0499
 3887TIP3   OH233151   2.816   1.759   4.514  0.4033  0.6909  0.0310
 3887TIP3    H133152   2.749   1.765   4.582 -0.2461 -3.6296  0.0539
 3887TIP3    H233153   2.898   1.747   4.562 -0.1176 -2.8837  0.3060
 3888TIP3   OH233154   1.356   2.702   0.910 -0.3562 -0.4124  0.2597
 3888TIP3    H133155   1.306   2.784   0.907 -0.8883 -0.7242  0.4700
 3888TIP3    H233156   1.429   2.721   0.969 -0.6992 -0.2047  0.6226
 3889TIP3   OH233157   6.140   0.039  16.818 -0.2184  0.3499 -0.5161
 3889TIP3    H133158   6.126   0.130  16.795 -1.5112  0.9608  2.2657
 3889TIP3    H233159   6.053   0.001  16.822  0.1373 -0.4086  0.4500
 3890TIP3   OH233160   5.578   4.335   5.230  0.5463  0.3102  0.2059
 3890TIP3    H133161   5.536   4.262   5.274 -0.4549  0.5013 -0.3988
 3890TIP3    H233162   5.652   4.358   5.286  0.3931 -0.6371  0.8133
 3891TIP3   OH233163   0.695   6.258   5.388  0.1661 -0.7158  0.3493
 3891TIP3    H133164   0.679   6.170   5.354  0.7491 -0.3416 -0.9580
 3891TIP3    H233165   0.783   6.279   5.358  0.4380 -0.0729  1.5351
 3892TIP3   OH233166   0.753   4.215  16.496 -0.0641  0.3000  0.1834
 3892TIP3    H133167   0.762   4.309  16.485 -0.7501  0.5426  1.5565
 3892TIP3    H233168   0.791   4.196  16.581  0.5575 -0.7621 -0.2997
 3893TIP3   OH233169   6.343   4.776  17.048 -0.8247  0.1876 -0.1043
 3893TIP3    H133170   6.339   4.870  17.031  2.0665  0.1578 -1.5510
 3893TIP3    H233171   6.418   4.766  17.108 -1.0404 -1.2019 -0.0266
 3894TIP3   OH233172   4.066   5.284   3.628  0.8319 -0.1525  0.4206
 3894TIP3    H133173   4.109   5.352   3.575 -2.2090  1.3117 -0.4278
 3894TIP3    H233174   4.018   5.232   3.564  1.0252 -1.4859  1.3385
 3895TIP3   OH233175   2.721   0.582   1.868 -0.0132 -0.1226 -0.0249
 3895TIP3    H133176   2.677   0.659   1.832 -1.2848 -0.7768  0.0695
 3895TIP3    H233177   2.744   0.608   1.957 -1.8022 -0.3120  0.5465
 3896TIP3   OH233178   3.284   6.493   5.051 -0.1371  0.4059 -0.0254
 3896TIP3    H133179   3.360   6.499   4.994  0.1935 -0.3874  0.3083
 3896TIP3    H233180   3.313   6.437   5.124 -0.6305  1.1762  0.7780
 3897TIP3   OH233181   0.871   5.898  14.733  0.1072  0.0887  0.1499
 3897TIP3    H133182   0.909   5.810  14.723  0.5418  0.5067 -2.9255
 3897TIP3    H233183   0.942   5.957  14.708 -1.2389  1.1096 -1.4253
 3898TIP3   OH233184   1.750   4.681  16.997  0.7262  0.4074  0.2949
 3898TIP3    H133185   1.826   4.626  17.016  1.0312  0.6232 -0.2511
 3898TIP3    H233186   1.686   4.622  16.958  1.3591  0.5531 -1.0541
 3899TIP3   OH233187   6.237   6.736   2.367 -0.3992 -0.0288 -0.2105
 3899TIP3    H133188   6.279   6.765   2.447 -0.7822  2.9148 -0.9646
 3899TIP3    H233189   6.307   6.693   2.317  0.9201  1.7739  0.0006
 3900TIP3   OH233190   2.668   6.116   3.544 -0.1851 -0.3426 -0.7257
 3900TIP3    H133191   2.758   6.123   3.573  0.5165  0.6877 -2.9629
 3900TIP3    H233192   2.625   6.062   3.611  2.3804 -2.0230 -0.3078
 3901TIP3   OH233193   2.420   2.303   1.636 -0.2214 -0.3083  0.3991
 3901TIP3    H133194   2.490   2.238   1.639  0.5622  0.4573 -0.5691
 3901TIP3    H233195   2.405   2.326   1.728  0.5158 -0.7704  0.6437
 3902TIP3   OH233196   1.860   2.398  15.684 -0.3317 -0.2089  0.2815
 3902TIP3    H133197   1.789   2.372  15.744  1.0296 -0.8542  1.6895
 3902TIP3    H233198   1.880   2.488  15.710 -0.4911 -0.0972  0.0198
 3903TIP3   OH233199   0.461   1.370   4.691 -0.3215 -0.3062  0.1782
 3903TIP3    H133200   0.460   1.398   4.782  1.9330 -1.7331  0.7142
 3903TIP3    H233201   0.534   1.419   4.652 -0.6663 -0.4050 -0.6107
 3904TIP3   OH233202   2.984   3.849   0.446 -0.0751 -0.2213 -0.1441
 3904TIP3    H133203   2.987   3.918   0.512  2.2455 -0.5908  0.2026
 3904TIP3    H233204   3.059   3.792   0.466 -0.0693 -1.0728 -2.3102
 3905TIP3   OH233205   1.365   4.392  10.975 -0.0488 -0.1075 -0.0542
 3905TIP3    H133206   1.334   4.404  11.065 -0.9967  2.5271 -0.6411
 3905TIP3    H233207   1.345   4.301  10.955 -1.1991 -0.3566  1.9163
 3906TIP3   OH233208   0.032   5.714   5.832 -0.1658  0.3795  0.4784
 3906TIP3    H133209  -0.054   5.755   5.843 -1.0301 -0.8516 -1.1822
 3906TIP3    H233210   0.012   5.621   5.819  1.3045  0.2631 -1.3009
 3907TIP3   OH233211   2.899   3.123  15.287  0.1449  0.3436  0.0152
 3907TIP3    H133212   2.922   3.033  15.264 -0.9700  0.0578 -0.0073
 3907TIP3    H233213   2.828   3.146  15.227 -1.3670  0.3331  1.7373
 3908TIP3   OH233214   1.868   2.025  14.706  0.3797  0.8984 -0.5668
 3908TIP3    H133215   1.803   1.999  14.640  1.3414 -3.5630 -0.0342
 3908TIP3    H233216   1.942   2.058  14.654  0.0020  0.2525 -1.5448
 3909TIP3   OH233217   6.308   2.444   5.018 -0.4090  0.0961 -0.0771
 3909TIP3    H133218   6.377   2.380   5.032 -0.2187  0.3390  0.0942
 3909TIP3    H233219   6.262   2.413   4.940 -0.2129 -0.1550 -0.0943
 3910TIP3   OH233220   3.296   0.725  16.470 -0.0228 -0.2256 -0.5019
 3910TIP3    H133221   3.348   0.726  16.390  1.4407 -2.2291  0.3181
 3910TIP3    H233222   3.360   0.731  16.540 -1.0334 -1.1095  0.5381
 3911TIP3   OH233223   6.389   3.464  16.735  0.6583 -0.1033  0.0651
 3911TIP3    H133224   6.423   3.465  16.824  0.6372 -2.0591  0.1506
 3911TIP3    H233225   6.400   3.373  16.707  0.3358  0.3942 -1.8017
 3912TIP3   OH233226   1.833   1.727   0.177  0.0063  0.1301  0.1264
 3912TIP3    H133227   1.924   1.734   0.208 -0.6039  0.2751  2.0489
 3912TIP3    H233228   1.784   1.783   0.237 -1.5649 -1.1188  0.0606
 3913TIP3   OH233229   3.112   4.113   3.989 -0.1877  0.3906  0.5754
 3913TIP3    H133230   3.109   4.194   3.938 -2.0621 -0.2295 -0.3872
 3913TIP3    H233231   3.057   4.130   4.065  0.1866  0.3175  0.8677
 3914TIP3   OH233232   4.550   6.065  11.330 -0.0338  0.0152 -0.6265
 3914TIP3    H133233   4.556   6.155  11.360 -0.6192  0.0163 -0.5039
 3914TIP3    H233234   4.636   6.028  11.349 -0.6109 -0.2214  1.8591
 3915TIP3   OH233235   0.460   0.401   0.074 -0.6428 -0.1665 -0.2346
 3915TIP3    H133236   0.442   0.455   0.152 -0.6806  0.2535 -0.5310
 3915TIP3    H233237   0.410   0.443   0.004  2.3072  1.7669 -1.3882
 3916TIP3   OH233238   1.965   0.229  13.243  1.0072 -0.8202 -0.5057
 3916TIP3    H133239   2.008   0.308  13.274  0.7556 -0.2602 -1.5442
 3916TIP3    H233240   1.893   0.214  13.306  1.1775 -0.3504 -0.1962
 3917TIP3   OH233241   5.382   5.500   2.371 -0.2875 -0.3444  0.5140
 3917TIP3    H133242   5.369   5.487   2.464 -1.6124  1.4574  0.6448
 3917TIP3    H233243   5.313   5.562   2.346 -0.2399 -1.1135 -1.7527
 3918TIP3   OH233244   3.236   4.298  12.167  0.1308  0.2457  0.2769
 3918TIP3    H133245   3.287   4.378  12.163  1.2145 -0.4048  0.5629
 3918TIP3    H233246   3.268   4.253  12.245  0.4324 -1.0240 -0.5385
 3919TIP3   OH233247   6.168   0.240  12.963 -0.3094  0.2435  0.2810
 3919TIP3    H133248   6.180   0.308  12.897 -1.2980  0.5639  0.4205
 3919TIP3    H233249   6.242   0.251  13.023  1.2039 -0.7118 -1.3148
 3920TIP3   OH233250   5.704   3.405  16.522  0.2609  0.2634 -0.0607
 3920TIP3    H133251   5.725   3.491  16.486  1.7045  0.7638  1.8477
 3920TIP3    H233252   5.617   3.417  16.560 -0.2666  0.3750 -1.2441
 3921TIP3   OH233253   1.574   1.996   6.099  0.2686 -0.3752  0.3065
 3921TIP3    H133254   1.570   2.069   6.161  1.5258  1.2349 -1.3914
 3921TIP3    H233255   1.499   2.011   6.040  0.5007 -0.4824 -0.0172
 3922TIP3   OH233256   5.794   6.413   6.159 -0.4267  0.2745  0.3792
 3922TIP3    H133257   5.707   6.394   6.196 -0.3597  0.3067  0.5519
 3922TIP3    H233258   5.855   6.364   6.215 -0.4545 -1.0089 -0.6641
 3923TIP3   OH233259   4.296   1.626   4.699 -0.5222 -0.2939 -0.0899
 3923TIP3    H133260   4.340   1.545   4.724  0.1533  0.3570  0.9258
 3923TIP3    H233261   4.206   1.600   4.678 -0.6621 -1.1288  1.4231
 3924TIP3   OH233262   3.871   1.179   4.391  0.1989  0.1121 -0.0293
 3924TIP3    H133263   3.826   1.133   4.463  0.4359 -1.6178 -0.9298
 3924TIP3    H233264   3.913   1.109   4.341  0.2617  1.3013 -1.7134
 3925TIP3   OH233265   0.913   4.765  12.430 -0.7425 -0.4185 -0.4841
 3925TIP3    H133266   0.893   4.841  12.486 -1.2840  1.6216 -3.2379
 3925TIP3    H233267   0.992   4.728  12.469 -1.0085  0.9263  1.5463
 3926TIP3   OH233268   5.442   3.569   0.443 -0.6041 -0.3593 -0.1615
 3926TIP3    H133269   5.408   3.480   0.452 -0.0547 -0.7660 -1.7006
 3926TIP3    H233270   5.468   3.594   0.531  1.6768 -2.7531 -0.0015
 3927TIP3   OH233271   4.568   4.015  15.994  0.4524 -0.3219 -0.0166
 3927TIP3    H133272   4.597   3.933  16.033  1.4858 -0.3424 -0.7906
 3927TIP3    H233273   4.638   4.077  16.013  0.5910 -0.1241 -1.1276
 3928TIP3   OH233274   0.082   4.535   4.443 -0.1686  0.5904  0.2689
 3928TIP3    H133275   0.019   4.526   4.371  0.4915 -1.6232 -0.1275
 3928TIP3    H233276   0.167   4.518   4.402  0.4891  1.6582  1.1453
 3929TIP3   OH233277   6.629   4.468  13.105 -0.2206  0.3650  0.5382
 3929TIP3    H133278   6.538   4.440  13.097  0.3326 -1.2483 -0.5431
 3929TIP3    H233279   6.678   4.387  13.125  1.0246  1.1371  0.7618
 3930TIP3   OH233280   6.251   4.708   1.750  0.3483 -0.1819  0.2875
 3930TIP3    H133281   6.278   4.676   1.664  0.4163 -2.7834  1.1888
 3930TIP3    H233282   6.158   4.685   1.755  1.0086 -2.9653  2.0036
 3931TIP3   OH233283   6.197   0.672  11.674  0.1992  0.0505  0.5044
 3931TIP3    H133284   6.288   0.671  11.644  0.1025  0.1688  0.2009
 3931TIP3    H233285   6.164   0.758  11.647  0.1896  0.2672  1.2077
 3932TIP3   OH233286   1.833   1.337  12.003  0.1422  0.4353  0.2259
 3932TIP3    H133287   1.901   1.294  12.056  0.1968  0.2248 -0.0141
 3932TIP3    H233288   1.835   1.291  11.920 -2.8728 -2.1490  1.4144
 3933TIP3   OH233289   4.073   0.483  12.892  0.2200 -0.3546  0.3634
 3933TIP3    H133290   4.141   0.501  12.957 -0.7861 -0.6440  1.5218
 3933TIP3    H233291   4.023   0.564  12.887 -0.8058 -0.8905  1.3306
 3934TIP3   OH233292   4.012   0.059  12.653 -0.3051  0.1934  0.4151
 3934TIP3    H133293   4.001   0.154  12.653 -0.6123  0.1781 -1.0311
 3934TIP3    H233294   3.923   0.024  12.657 -0.1592 -0.0633  1.9193
 3935TIP3   OH233295   6.108   5.202  15.851  0.4077  0.2837 -0.2474
 3935TIP3    H133296   6.013   5.215  15.838 -0.1521  0.6023  3.3090
 3935TIP3    H233297   6.128   5.122  15.803 -2.0317 -0.6690  0.1739
 3936TIP3   OH233298   2.249   4.904  12.260  0.1329 -0.1436  0.3533
 3936TIP3    H133299   2.205   4.869  12.184  0.0890 -4.3252  2.0427
 3936TIP3    H233300   2.341   4.881  12.247  0.0764 -1.2027  1.6098
 3937TIP3   OH233301   4.151   1.043   4.262 -0.2530 -0.3142 -0.3893
 3937TIP3    H133302   4.243   1.067   4.271 -0.4169 -0.1803  1.2490
 3937TIP3    H233303   4.152   0.957   4.221  0.8496 -2.0848  2.9352
 3938TIP3   OH233304   4.798   4.239   5.111  0.0409  0.2283 -0.1714
 3938TIP3    H133305   4.848   4.198   5.182 -1.2215 -2.0659 -0.5137
 3938TIP3    H233306   4.718   4.271   5.153  1.3723  3.3694  0.2637
 3939TIP3   OH233307   3.374   3.582   0.328  0.7650  0.4974 -0.2748
 3939TIP3    H133308   3.424   3.644   0.380 -0.0069  0.5493  0.4142
 3939TIP3    H233309   3.411   3.496   0.350 -0.3304  0.4008  1.2681
 3940TIP3   OH233310   6.623   0.899  13.130 -0.1367  0.8752  0.1535
 3940TIP3    H133311   6.711   0.868  13.153  0.5869  2.9123  0.3151
 3940TIP3    H233312   6.564   0.842  13.179  1.1412  0.4360  1.2469
 3941TIP3   OH233313   1.741   2.271   5.622 -0.4119 -0.0457 -0.1872
 3941TIP3    H133314   1.804   2.338   5.594  0.1705  0.2705  1.7284
 3941TIP3    H233315   1.666   2.321   5.655  0.1302 -0.2815  1.4932
 3942TIP3   OH233316   0.035   6.418   1.573  0.2585  0.0150  0.0177
 3942TIP3    H133317  -0.028   6.352   1.546 -0.2595  0.3872  0.2962
 3942TIP3    H233318   0.039   6.410   1.669 -2.0496  2.3199  0.4160
 3943TIP3   OH233319   2.830   5.063   2.741  0.3240  0.2467 -0.0151
 3943TIP3    H133320   2.802   4.972   2.754 -0.6281  0.5722  0.2853
 3943TIP3    H233321   2.911   5.070   2.791  0.7853 -0.6181 -0.6068
 3944TIP3   OH233322   5.710   0.408   3.438 -0.3056 -0.3531  0.0362
 3944TIP3    H133323   5.758   0.458   3.504  0.3365 -0.6558 -0.2035
 3944TIP3    H233324   5.703   0.320   3.475  0.5503 -0.6722 -0.5442
 3945TIP3   OH233325   3.890   2.899   4.163 -0.2635 -0.1073  0.6988
 3945TIP3    H133326   3.904   2.987   4.198  0.3872  0.7332 -1.5232
 3945TIP3    H233327   3.965   2.883   4.107 -0.7540 -1.7888  0.4562
 3946TIP3   OH233328   6.718   1.967  12.595 -0.3322  0.0882 -0.3411
 3946TIP3    H133329   6.731   2.049  12.549  3.8855 -0.0470  0.2455
 3946TIP3    H233330   6.735   1.899  12.530  0.8680 -0.1965  0.2492
 3947TIP3   OH233331   4.781   6.738   1.546  0.4026  0.2872  0.3269
 3947TIP3    H133332   4.849   6.739   1.478  0.5289  1.4913  0.4420
 3947TIP3    H233333   4.799   6.816   1.599  0.6315 -0.9130  2.0988
 3948TIP3   OH233334   0.512   1.297   1.706  0.4675 -0.4813  0.1053
 3948TIP3    H133335   0.503   1.233   1.635 -0.0882 -0.2319 -0.0499
 3948TIP3    H233336   0.603   1.288   1.734  0.4835 -1.1208 -0.1278
 3949TIP3   OH233337   3.740   3.199   2.294  0.4716 -0.5775  0.0739
 3949TIP3    H133338   3.649   3.210   2.319  0.1436 -1.0198 -0.8656
 3949TIP3    H233339   3.744   3.231   2.204  1.6853  1.3584  0.7481
 3950TIP3   OH233340   5.958   5.165  16.498 -0.1211 -0.1544  0.0478
 3950TIP3    H133341   6.007   5.201  16.424  1.6926  0.2057  1.3539
 3950TIP3    H233342   5.965   5.232  16.566 -2.1444 -0.2729  0.4225
 3951TIP3   OH233343   0.225   3.891  10.584 -0.0256 -0.4208  0.4026
 3951TIP3    H133344   0.314   3.925  10.582 -0.1443 -0.0927  0.6160
 3951TIP3    H233345   0.236   3.798  10.602  0.2399 -0.1938  1.5726
 3952TIP3   OH233346   6.017   5.300   0.333 -0.2507 -0.0982  0.0439
 3952TIP3    H133347   5.958   5.228   0.311  0.1919  0.0992 -1.9782
 3952TIP3    H233348   5.966   5.379   0.318  0.3409  0.0629 -1.3400
 3953TIP3   OH233349   5.364   5.413  12.404  0.1072  0.3515 -0.5135
 3953TIP3    H133350   5.336   5.468  12.331  0.7473  0.3433 -0.7689
 3953TIP3    H233351   5.457   5.397  12.388  0.1805  0.0954  0.1396
 3954TIP3   OH233352   5.442   2.719   1.395 -0.3679  0.5785 -0.3888
 3954TIP3    H133353   5.350   2.733   1.374 -0.6016 -0.2634  0.0363
 3954TIP3    H233354   5.451   2.750   1.485 -0.4773 -0.3037 -0.0706
 3955TIP3   OH233355   5.254   3.176  11.686 -0.0987  0.4101  0.2587
 3955TIP3    H133356   5.193   3.142  11.621 -0.2666 -1.0434  1.1358
 3955TIP3    H233357   5.241   3.121  11.763  1.9904  0.3506  0.6323
 3956TIP3   OH233358   4.887   0.137   1.702  0.3726  0.3751 -0.0617
 3956TIP3    H133359   4.967   0.180   1.731 -0.5139  0.5141  2.3914
 3956TIP3    H233360   4.878   0.062   1.761 -0.2216 -0.8801 -1.6715
 3957TIP3   OH233361   5.827   4.444   5.019  0.2611  0.1771  0.5148
 3957TIP3    H133362   5.835   4.349   5.020  1.2862  0.2507  1.2627
 3957TIP3    H233363   5.883   4.473   5.091  0.4811  1.3844 -0.1212
 3958TIP3   OH233364   2.933   3.146   1.128 -0.1803 -0.2956  0.4461
 3958TIP3    H133365   2.921   3.136   1.034  0.1162 -2.2579  0.5698
 3958TIP3    H233366   2.905   3.236   1.147 -0.1618  0.1578 -1.5082
 3959TIP3   OH233367   4.012   5.960   0.832  0.0224 -0.3127 -0.3288
 3959TIP3    H133368   4.045   6.035   0.881 -0.1280 -0.5807  0.1984
 3959TIP3    H233369   3.949   5.918   0.891 -2.9665  1.3714 -2.0546
 3960TIP3   OH233370   0.231   5.525  12.344  0.0181  0.5771 -0.5401
 3960TIP3    H133371   0.279   5.591  12.393 -0.2047  0.9946 -0.8784
 3960TIP3    H233372   0.153   5.508  12.396  0.8335 -0.5944  0.3536
 3961TIP3   OH233373   6.077   3.468   3.798  0.2278 -0.4967  0.2285
 3961TIP3    H133374   6.005   3.421   3.756  0.1786 -0.0468 -0.1975
 3961TIP3    H233375   6.049   3.559   3.801 -0.6104 -0.7704  3.0413
 3962TIP3   OH233376   6.614   5.205   6.073 -0.2322 -0.0491  0.3671
 3962TIP3    H133377   6.602   5.289   6.116 -0.0523 -0.1433  0.6063
 3962TIP3    H233378   6.708   5.200   6.054 -0.0592 -0.6301  1.2847
 3963TIP3   OH233379   6.139   2.701   2.759  0.0087 -0.1652 -0.4845
 3963TIP3    H133380   6.152   2.793   2.736  0.8014 -0.1253  0.0718
 3963TIP3    H233381   6.064   2.702   2.819 -1.3059 -0.1389 -2.0790
 3964TIP3   OH233382   4.286   5.657  15.715 -0.4234 -0.5399 -0.1929
 3964TIP3    H133383   4.234   5.737  15.714  1.7032  0.9393  0.5413
 3964TIP3    H233384   4.375   5.686  15.733  0.2268 -3.1806  1.5260
 3965TIP3   OH233385   4.409   0.689  14.498  0.0785  0.3905 -0.1603
 3965TIP3    H133386   4.464   0.761  14.469  0.2533 -0.1940 -1.3765
 3965TIP3    H233387   4.464   0.611  14.488 -0.7346 -0.1289 -0.7917
 3966TIP3   OH233388   6.227   3.034   1.577  0.1514  0.2613  0.0962
 3966TIP3    H133389   6.247   2.999   1.490 -0.5401  0.4033 -0.1264
 3966TIP3    H233390   6.159   3.100   1.561  1.2974  1.5782  0.5257
 3967TIP3   OH233391   5.816   1.841   6.476  0.3204  0.0279  0.3188
 3967TIP3    H133392   5.805   1.864   6.384 -0.3054 -1.3803  0.0149
 3967TIP3    H233393   5.889   1.895   6.505 -1.2187  2.5913 -0.2162
 3968TIP3   OH233394   4.822   3.488   4.815  0.1767  0.2613  0.3693
 3968TIP3    H133395   4.860   3.574   4.832  0.5909 -0.2263  2.1029
 3968TIP3    H233396   4.896   3.432   4.795 -0.0471  0.1842 -0.2763
 3969TIP3   OH233397   5.393   3.408   0.783  0.0075  0.2355  0.1202
 3969TIP3    H133398   5.315   3.449   0.822 -0.0880  0.1436  0.0284
 3969TIP3    H233399   5.447   3.384   0.858 -0.4856 -0.5533  0.2364
 3970TIP3   OH233400   1.328   5.723  11.658 -0.1681 -0.2300  0.2788
 3970TIP3    H133401   1.310   5.754  11.569  0.2229  1.2282  0.6703
 3970TIP3    H233402   1.305   5.798  11.714 -0.3283 -1.0935  1.3995
 3971TIP3   OH233403   6.397   0.923   5.961 -0.3117 -0.0136 -0.5470
 3971TIP3    H133404   6.316   0.943   5.914 -1.0730 -0.1547  0.6765
 3971TIP3    H233405   6.373   0.857   6.025  0.9447 -0.6074 -0.6531
 3972TIP3   OH233406   4.335   5.222  10.909  0.1772  0.2251 -0.3453
 3972TIP3    H133407   4.297   5.307  10.886 -1.3397 -0.0997  0.8095
 3972TIP3    H233408   4.281   5.190  10.982  1.8327 -0.9150  0.4569
 3973TIP3   OH233409   6.765   5.453   5.656  0.6101 -0.3851 -0.5956
 3973TIP3    H133410   6.692   5.500   5.698  1.2039 -0.9871  1.1851
 3973TIP3    H233411   6.759   5.364   5.691  0.9776 -1.0006 -2.0480
 3974TIP3   OH233412   0.964   6.151   6.218 -0.1934  0.2977  0.0238
 3974TIP3    H133413   1.004   6.237   6.229 -0.8322  0.2971  3.3346
 3974TIP3    H233414   0.989   6.103   6.297 -1.1329 -2.0578 -1.0127
 3975TIP3   OH233415   6.624   0.622   1.632  0.0860  0.2094  0.0027
 3975TIP3    H133416   6.598   0.548   1.578  2.0944  0.0269 -0.7929
 3975TIP3    H233417   6.611   0.592   1.722 -2.7191  0.3071 -0.2699
 3976TIP3   OH233418   5.214   2.314  16.569 -0.0089 -0.6017 -0.2145
 3976TIP3    H133419   5.305   2.325  16.598 -0.6361  0.9195  1.3415
 3976TIP3    H233420   5.199   2.220  16.574  0.7880 -0.6636  1.8494
 3977TIP3   OH233421   3.377   6.324  14.167  0.1370  0.2848 -0.0459
 3977TIP3    H133422   3.391   6.379  14.244  0.9847 -0.6531  0.5111
 3977TIP3    H233423   3.454   6.266  14.165 -0.5438 -0.6334 -0.7875
 3978TIP3   OH233424   6.781   3.653  16.087  0.9217  0.2102 -0.1421
 3978TIP3    H133425   6.830   3.631  16.008  1.7160 -0.3406  0.4756
 3978TIP3    H233426   6.700   3.692  16.056  1.2034 -0.0366 -1.2226
 3979TIP3   OH233427   1.829   4.206   2.219  0.0016 -0.6123 -0.3582
 3979TIP3    H133428   1.836   4.285   2.165 -0.9522  0.1960  0.6772
 3979TIP3    H233429   1.904   4.210   2.277 -0.9826  0.4897  0.8956
 3980TIP3   OH233430   3.396   3.178   1.382  0.8172  0.2944  0.5236
 3980TIP3    H133431   3.329   3.112   1.400  0.7371  0.2712  0.1404
 3980TIP3    H233432   3.413   3.170   1.289  0.6129  1.0071  0.4183
 3981TIP3   OH233433   6.368   6.272  15.585  0.6558 -0.6567 -0.2752
 3981TIP3    H133434   6.443   6.220  15.558  0.6454 -0.4269 -0.7476
 3981TIP3    H233435   6.364   6.260  15.680  1.6321 -0.2184 -0.1658
 3982TIP3   OH233436   4.606   2.825  12.288 -0.4849 -0.3613  0.3156
 3982TIP3    H133437   4.565   2.891  12.232 -0.4104 -0.6965 -0.1445
 3982TIP3    H233438   4.698   2.827  12.264 -0.7723 -2.0232 -1.1896
 3983TIP3   OH233439   0.026   2.623  13.847  0.1959  0.6403  0.1638
 3983TIP3    H133440   0.082   2.613  13.924  0.1712 -2.2195 -0.0821
 3983TIP3    H233441  -0.026   2.543  13.845 -1.0647  1.4416 -1.8564
 3984TIP3   OH233442   0.211   0.039  14.710 -0.3746 -0.1369  0.1225
 3984TIP3    H133443   0.212   0.135  14.707 -1.2409 -0.1361 -2.6470
 3984TIP3    H233444   0.302   0.016  14.730  0.2344  1.2804 -0.7685
 3985TIP3   OH233445   4.307   5.320   4.458  0.6699  0.3404  0.2630
 3985TIP3    H133446   4.233   5.293   4.513  0.7754  2.2902  1.4734
 3985TIP3    H233447   4.281   5.407   4.425  1.4311  0.0255 -1.2496
 3986TIP3   OH233448   5.091   1.366   6.467 -0.0956 -0.1879 -0.1779
 3986TIP3    H133449   5.153   1.342   6.536 -0.7773  0.3704  0.6433
 3986TIP3    H233450   5.088   1.461   6.470 -1.5942 -0.2314  0.3570
 3987TIP3   OH233451   5.148   6.189  15.395 -0.5373 -0.0118 -0.2408
 3987TIP3    H133452   5.098   6.238  15.460 -0.7823  0.6331 -0.9085
 3987TIP3    H233453   5.081   6.143  15.343 -0.4170  0.4945 -0.8486
 3988TIP3   OH233454   0.620   2.797   4.959  0.3079 -0.2611  0.1944
 3988TIP3    H133455   0.667   2.868   4.915 -0.1757  1.0047  1.6194
 3988TIP3    H233456   0.649   2.802   5.050 -0.8235 -0.9546  0.6118
 3989TIP3   OH233457   0.445   6.335   6.340  0.3413 -0.2526  0.3243
 3989TIP3    H133458   0.390   6.333   6.262  0.6913 -1.6326  0.0864
 3989TIP3    H233459   0.409   6.406   6.394 -0.2877  0.3025 -0.8052
 3990TIP3   OH233460   5.419   1.670   3.581 -0.3815 -0.6657 -0.2486
 3990TIP3    H133461   5.355   1.676   3.652 -0.2833 -0.0871 -0.2115
 3990TIP3    H233462   5.413   1.753   3.535 -1.2573 -1.4464 -1.6341
 3991TIP3   OH233463   4.685   5.485   5.603 -0.1744 -0.1886 -0.2248
 3991TIP3    H133464   4.675   5.563   5.549  1.8926  1.1374  1.1500
 3991TIP3    H233465   4.622   5.497   5.674 -0.7171 -0.3924 -0.6662
 3992TIP3   OH233466   0.794   5.162  14.112 -0.1513  0.7270  0.6715
 3992TIP3    H133467   0.804   5.247  14.156 -0.2256  0.9182  0.3263
 3992TIP3    H233468   0.795   5.184  14.019 -2.3208  0.6095  0.5668
 3993TIP3   OH233469   1.271   6.501  13.459 -0.4846 -0.2066  0.1646
 3993TIP3    H133470   1.359   6.536  13.449  0.0684 -1.9702 -1.9335
 3993TIP3    H233471   1.223   6.568  13.508  1.6306  1.4026  0.1406
 3994TIP3   OH233472   3.240   3.647   3.216 -0.1120  0.4437  0.0416
 3994TIP3    H133473   3.176   3.577   3.206  0.3008  0.0791 -0.0781
 3994TIP3    H233474   3.209   3.697   3.292 -1.5722  1.4111 -1.1497
 3995TIP3   OH233475   4.500   5.242  15.608  0.3981  0.2280  0.2015
 3995TIP3    H133476   4.425   5.194  15.574  1.9440 -1.2488 -1.3409
 3995TIP3    H233477   4.487   5.244  15.703 -1.5865  0.0742 -0.0341
 3996TIP3   OH233478   6.046   0.231   3.028 -0.0011 -0.3036  0.1324
 3996TIP3    H133479   6.078   0.224   3.118  2.3499 -0.7273 -0.6592
 3996TIP3    H233480   5.961   0.186   3.029 -0.7892  1.1077  2.4336
 3997TIP3   OH233481   5.357   2.058  10.534  0.0375  0.3862  0.2016
 3997TIP3    H133482   5.302   2.127  10.572 -0.7434 -0.6097  0.9273
 3997TIP3    H233483   5.295   1.997  10.494  0.6883 -0.1943  0.0640
 3998TIP3   OH233484   1.047   1.864   3.606 -0.3622  0.4159 -0.0701
 3998TIP3    H133485   0.995   1.867   3.687 -2.1554  0.5191 -1.1672
 3998TIP3    H233486   1.003   1.800   3.551  0.7886  0.3989 -1.0143
 3999TIP3   OH233487   4.151   3.366  13.821  0.1040  0.2892  0.0963
 3999TIP3    H133488   4.106   3.444  13.853 -0.5440 -0.1242  0.2170
 3999TIP3    H233489   4.103   3.293  13.861  1.3008 -0.1577  0.7879
 4000TIP3   OH233490   3.379   6.625  12.155  0.1769  0.2983 -0.0904
 4000TIP3    H133491   3.333   6.631  12.072 -2.7094 -0.7765  1.2908
 4000TIP3    H233492   3.384   6.531  12.174  1.7545  0.4605  0.5068
 4001TIP3   OH233493   6.270   0.756  12.929  0.1189  0.2154  0.4277
 4001TIP3    H133494   6.311   0.822  12.872 -0.5765 -1.5286 -2.3084
 4001TIP3    H233495   6.344   0.702  12.959  0.3207 -0.5985 -1.3419
 4002TIP3   OH233496   0.136   4.370   3.135  0.4756  0.5368 -0.5555
 4002TIP3    H133497   0.111   4.346   3.225  0.7606  0.7272 -0.4234
 4002TIP3    H233498   0.232   4.370   3.136  0.5164 -0.9433 -1.2572
 4003TIP3   OH233499   6.499   1.166   1.448 -0.4681  0.2270  0.3274
 4003TIP3    H133500   6.548   1.218   1.385 -0.4860 -0.2818 -0.1167
 4003TIP3    H233501   6.407   1.184   1.427 -0.4841  0.9631  0.9772
 4004TIP3   OH233502   6.268   4.232   0.201  0.3705 -0.3203 -0.8389
 4004TIP3    H133503   6.331   4.184   0.254  0.0957 -0.3798 -0.5620
 4004TIP3    H233504   6.283   4.202   0.111  1.1695  0.1503 -0.8673
 4005TIP3   OH233505   3.607   6.266  15.585 -0.2026 -0.2716 -0.2669
 4005TIP3    H133506   3.611   6.171  15.592 -0.1091 -0.2441  0.1409
 4005TIP3    H233507   3.660   6.287  15.509  0.9627 -0.4547  0.4708
 4006TIP3   OH233508   5.119   3.524  12.388 -0.3416 -0.8049  0.2815
 4006TIP3    H133509   5.038   3.566  12.357 -0.4443 -1.1129  0.1306
 4006TIP3    H233510   5.171   3.513  12.308  0.5076  0.7991  0.5727
 4007TIP3   OH233511   2.708   1.325   5.773 -0.2773 -0.0034 -0.1086
 4007TIP3    H133512   2.779   1.389   5.762  0.5823 -0.6434  1.3512
 4007TIP3    H233513   2.735   1.273   5.849 -2.0332 -0.6722  0.0928
 4008TIP3   OH233514   6.335   5.368   0.526  0.2487 -0.7767  0.2049
 4008TIP3    H133515   6.254   5.361   0.576  0.2210  0.0781  0.3000
 4008TIP3    H233516   6.347   5.463   0.513  1.2663 -0.8867  0.2681
 4009TIP3   OH233517   3.406   4.532   3.195  0.5074  0.0059  0.7209
 4009TIP3    H133518   3.346   4.457   3.196  1.9044 -1.2164 -0.8363
 4009TIP3    H233519   3.450   4.528   3.280 -0.1451 -0.3149  1.0597
 4010TIP3   OH233520   1.712   2.973  15.735 -0.3127  0.5360  0.1695
 4010TIP3    H133521   1.801   3.008  15.732  0.3348 -1.0218 -0.3340
 4010TIP3    H233522   1.697   2.954  15.828  0.5906 -0.7786  0.0873
 4011TIP3   OH233523   4.946   4.892  11.510 -0.1344 -0.2536  0.4608
 4011TIP3    H133524   4.916   4.891  11.601 -0.1435  1.0963  0.4994
 4011TIP3    H233525   5.038   4.919  11.516 -0.3253  0.5244  0.0428
 4012TIP3   OH233526   0.459   6.294  10.641 -0.1530 -0.3045 -0.3567
 4012TIP3    H133527   0.510   6.225  10.599 -1.4013 -0.4206 -1.7692
 4012TIP3    H233528   0.382   6.304  10.586 -1.5223  0.0833  1.5371
 4013TIP3   OH233529   3.995   4.833  16.894  0.5589 -0.4735 -0.1022
 4013TIP3    H133530   3.938   4.901  16.859  1.7546  1.0031  0.7148
 4013TIP3    H233531   3.963   4.752  16.854 -1.6257  0.3888 -0.2162
 4014TIP3   OH233532   6.794   1.893  12.845 -0.5707  0.2450  0.2519
 4014TIP3    H133533   6.756   1.907  12.758  0.5443  0.6794 -0.1926
 4014TIP3    H233534   6.783   1.800  12.862 -0.6070  0.1136 -0.4590
 4015TIP3   OH233535   3.830   2.695  12.762 -0.7570 -0.2823  0.4671
 4015TIP3    H133536   3.795   2.673  12.675  0.7424  0.2042 -0.2982
 4015TIP3    H233537   3.925   2.698  12.749 -0.5610  0.7268  1.9117
 4016TIP3   OH233538   0.429   0.674  10.743 -0.4478  0.3306  0.6455
 4016TIP3    H133539   0.380   0.625  10.677 -0.3346 -0.3085  1.0298
 4016TIP3    H233540   0.373   0.749  10.764 -0.4982  0.5198 -0.1496
 4017TIP3   OH233541   3.297   0.663   5.100 -0.4402  0.5190 -0.2116
 4017TIP3    H133542   3.306   0.570   5.081 -0.3768  0.7592 -1.3909
 4017TIP3    H233543   3.208   0.684   5.073  0.1291  1.1799 -1.6546
 4018TIP3   OH233544   0.949   6.561  14.463 -0.2630 -0.5754 -0.3794
 4018TIP3    H133545   0.876   6.511  14.426 -0.3623 -1.5441  1.0445
 4018TIP3    H233546   0.919   6.652  14.461 -1.3007 -0.9015 -0.3027
 4019TIP3   OH233547   0.213   1.102  14.904  0.0349  0.2608 -0.1186
 4019TIP3    H133548   0.188   1.166  14.970 -2.4814 -0.3737 -0.3479
 4019TIP3    H233549   0.255   1.032  14.953 -0.5135  0.4480  0.6433
 4020TIP3   OH233550   2.590   5.256   1.732 -0.5187 -0.3041  0.3388
 4020TIP3    H133551   2.660   5.231   1.793  0.8807  1.1245 -0.6057
 4020TIP3    H233552   2.628   5.326   1.679 -1.9743 -0.8992 -1.6247
 4021TIP3   OH233553   4.354   5.422  13.145  0.8205 -0.3631  0.8668
 4021TIP3    H133554   4.316   5.337  13.125  0.9569  0.1142 -1.7988
 4021TIP3    H233555   4.447   5.412  13.125  1.1040  0.0438  1.9175
 4022TIP3   OH233556   3.190   5.807  11.334 -0.0112 -0.1990 -0.1652
 4022TIP3    H133557   3.252   5.872  11.303 -1.2835  0.3850 -1.6091
 4022TIP3    H233558   3.197   5.734  11.273  1.6016 -1.6278  1.5949
 4023TIP3   OH233559   3.549   1.077  14.694 -0.0413  0.1064 -0.4586
 4023TIP3    H133560   3.591   1.002  14.736  1.5107  0.7386 -0.8215
 4023TIP3    H233561   3.549   1.055  14.601 -1.0532 -0.1247 -0.4168
 4024TIP3   OH233562   1.430   4.321   4.796  0.1056  0.3114  0.3461
 4024TIP3    H133563   1.451   4.414   4.790  0.1727  0.5574  3.0680
 4024TIP3    H233564   1.511   4.280   4.825 -0.4523 -0.2543  1.1626
 4025TIP3   OH233565   3.319   3.980  11.884 -0.1052 -0.1142 -0.9669
 4025TIP3    H133566   3.335   3.950  11.794  0.3438  1.4925 -1.4661
 4025TIP3    H233567   3.358   4.067  11.887 -0.7191  0.1409  0.6005
 4026TIP3   OH233568   4.830   5.831   2.158  0.6061 -0.3711  0.3623
 4026TIP3    H133569   4.783   5.753   2.131  0.1408  0.6913 -2.1718
 4026TIP3    H233570   4.779   5.867   2.230 -0.3552 -1.2682  0.1450
 4027TIP3   OH233571   1.439   6.516  15.837  0.4111 -0.2022  0.1108
 4027TIP3    H133572   1.532   6.529  15.816  0.1582  0.0687 -0.8917
 4027TIP3    H233573   1.417   6.589  15.895  0.1796  1.3200 -1.7808
 4028TIP3   OH233574   0.288   5.625  13.690 -0.1070 -0.5247  0.1379
 4028TIP3    H133575   0.292   5.652  13.598  1.4911 -0.3446  0.2346
 4028TIP3    H233576   0.196   5.636  13.714 -0.6758 -1.1066 -1.5910
 4029TIP3   OH233577   6.604   6.743  13.423 -0.0378  0.8018 -0.5032
 4029TIP3    H133578   6.643   6.791  13.496  2.9706  0.2303 -1.5994
 4029TIP3    H233579   6.540   6.804  13.386 -1.2329  1.3240  2.1427
 4030TIP3   OH233580   4.105   3.737  12.981 -0.5794 -0.0907  0.9289
 4030TIP3    H133581   4.060   3.654  12.996 -2.2700  0.9441  1.8864
 4030TIP3    H233582   4.098   3.784  13.064  1.2582  0.6313  0.7258
 4031TIP3   OH233583   6.253   5.063  12.871 -0.3656  0.2813 -0.3307
 4031TIP3    H133584   6.222   5.128  12.808 -1.5607  1.1209  1.0694
 4031TIP3    H233585   6.173   5.031  12.914  0.0719 -2.8090 -1.5718
 4032TIP3   OH233586   0.048   5.228  13.990  0.1701  0.2490  0.1953
 4032TIP3    H133587   0.129   5.275  13.970  0.8204 -0.6506  0.6314
 4032TIP3    H233588   0.009   5.211  13.904  1.0175 -0.2819 -0.1061
 4033TIP3   OH233589   3.273   6.647   0.388  0.6111 -0.3336 -0.3143
 4033TIP3    H133590   3.324   6.680   0.462  3.0160  1.8659 -2.7192
 4033TIP3    H233591   3.268   6.553   0.403  2.7879 -0.2350  1.6360
 4034TIP3   OH233592   2.785   6.619   1.502  0.2057 -0.1544 -0.6966
 4034TIP3    H133593   2.774   6.683   1.431 -0.1906  3.9353  2.6666
 4034TIP3    H233594   2.703   6.570   1.503 -1.0344  1.7908 -1.2543
 4035TIP3   OH233595   3.964   5.002  16.524  0.2285 -0.0288  0.2658
 4035TIP3    H133596   4.028   4.954  16.576 -0.3698  0.1621  1.2038
 4035TIP3    H233597   3.981   5.094  16.544 -0.8117  0.0007  1.1364
 4036TIP3   OH233598   3.355   6.027   0.687  0.1270 -0.1584  0.0664
 4036TIP3    H133599   3.441   6.029   0.730  0.8160  0.5581 -1.2515
 4036TIP3    H233600   3.295   6.062   0.752  1.1786  1.2011  0.3561
 4037TIP3   OH233601   2.771   5.856  16.138  0.3248  0.3833  0.7003
 4037TIP3    H133602   2.685   5.874  16.100  0.8329  0.8735 -0.2636
 4037TIP3    H233603   2.766   5.892  16.226 -0.6411 -0.1027  0.8644
 4038TIP3   OH233604   5.236   6.348   2.603  0.6551 -0.2261  0.1200
 4038TIP3    H133605   5.199   6.433   2.579  1.1375  0.5224  1.9158
 4038TIP3    H233606   5.185   6.285   2.551 -0.6434  1.0364 -0.2178
 4039TIP3   OH233607   6.204   3.943   1.805  0.0510  0.1732 -0.2580
 4039TIP3    H133608   6.199   4.018   1.746  0.2604 -0.2712 -0.8486
 4039TIP3    H233609   6.278   3.892   1.773 -0.9322 -1.0112 -0.7232
 4040TIP3   OH233610   2.390   3.005  15.618 -0.0648  0.0032  0.6408
 4040TIP3    H133611   2.423   2.995  15.529  0.7465 -1.8750  1.1085
 4040TIP3    H233612   2.295   2.992  15.610 -0.0347  0.1345  0.0242
 4041TIP3   OH233613   3.060   4.490  16.191  0.3583 -0.7826 -0.2621
 4041TIP3    H133614   3.085   4.578  16.162 -0.9701 -0.3689 -0.2305
 4041TIP3    H233615   3.109   4.477  16.273 -1.4901  1.1022  1.2495
 4042TIP3   OH233616   6.819   0.351  14.443  0.5369  0.1210 -0.3173
 4042TIP3    H133617   6.783   0.274  14.399  1.2658  0.0310 -0.7552
 4042TIP3    H233618   6.768   0.424  14.408 -0.0555 -0.1347 -0.0126
 4043TIP3   OH233619   3.269   5.802   3.934 -0.0879  0.0217 -0.3728
 4043TIP3    H133620   3.264   5.797   3.839 -0.3342  1.3860 -0.4548
 4043TIP3    H233621   3.223   5.884   3.956 -0.5126 -0.5410  0.9553
 4044TIP3   OH233622   4.795   4.604   4.774  0.5729 -0.1582  0.1877
 4044TIP3    H133623   4.795   4.629   4.866 -0.0610 -1.1384  0.4621
 4044TIP3    H233624   4.743   4.524   4.770 -1.6830  1.2648 -1.3990
 4045TIP3   OH233625   2.405   3.243   5.542  0.4798  0.6299  0.2848
 4045TIP3    H133626   2.336   3.309   5.552  0.7885  0.7781  1.6819
 4045TIP3    H233627   2.442   3.260   5.455 -1.0327  0.7389 -0.3697
 4046TIP3   OH233628   1.781   3.539   2.533  0.4153  0.1907  0.7338
 4046TIP3    H133629   1.851   3.536   2.468  1.2584  0.5195  1.6034
 4046TIP3    H233630   1.710   3.488   2.495  1.0281  0.0776 -0.2808
 4047TIP3   OH233631   4.442   0.496  16.577  0.7122 -0.3269  0.0455
 4047TIP3    H133632   4.406   0.548  16.505  0.0967 -0.7820  0.0231
 4047TIP3    H233633   4.524   0.461  16.542  0.0691 -1.1257 -0.6892
 4048TIP3   OH233634   1.831   3.623  11.626 -0.0905  0.2466  0.2659
 4048TIP3    H133635   1.840   3.673  11.707 -2.2520  4.5946 -1.7857
 4048TIP3    H233636   1.907   3.648  11.573 -0.0287 -0.4534  0.0141
 4049TIP3   OH233637   0.364   6.129  12.413 -0.2076 -0.4363  0.2166
 4049TIP3    H133638   0.415   6.144  12.492 -2.2342 -1.1266  1.7531
 4049TIP3    H233639   0.273   6.139  12.441 -1.0283 -1.3176 -1.9062
 4050TIP3   OH233640   4.700   0.467  17.193  0.3049 -0.9367  0.7186
 4050TIP3    H133641   4.650   0.449  17.272 -0.5186  0.3380  0.5058
 4050TIP3    H233642   4.697   0.562  17.183 -1.0717 -1.1524 -1.7597
 4051TIP3   OH233643   5.557   6.366   4.506 -0.5279 -0.1302 -0.2281
 4051TIP3    H133644   5.494   6.300   4.479 -0.0746 -0.1954 -1.1672
 4051TIP3    H233645   5.628   6.316   4.547  0.4604 -0.4135 -2.1413
 4052TIP3   OH233646   1.887   1.327  11.585  0.4113  0.3458  0.1275
 4052TIP3    H133647   1.803   1.368  11.604  0.4367  0.3813  0.1626
 4052TIP3    H233648   1.896   1.336  11.490 -0.5464 -1.4235 -0.1672
 4053TIP3   OH233649   0.667   4.327   0.254  0.1143  0.6347 -0.1486
 4053TIP3    H133650   0.632   4.249   0.210 -0.7565  1.3198 -0.6824
 4053TIP3    H233651   0.745   4.295   0.299 -0.1689 -0.5329 -0.4444
 4054TIP3   OH233652   1.426   6.813   4.961 -0.0243 -0.1161  0.6189
 4054TIP3    H133653   1.359   6.856   5.014 -1.6755 -3.4322  1.4732
 4054TIP3    H233654   1.390   6.814   4.872 -2.1997 -3.2904  1.3129
 4055TIP3   OH233655   4.466   1.809   4.041  0.2755  0.3942 -0.0536
 4055TIP3    H133656   4.406   1.882   4.050  0.1982  0.4038 -0.6108
 4055TIP3    H233657   4.410   1.732   4.036  0.1350  0.5797 -2.8453
 4056TIP3   OH233658   1.675   5.961  12.553  0.2921 -0.5832  0.2787
 4056TIP3    H133659   1.635   6.044  12.577 -0.1099 -0.4211 -0.8793
 4056TIP3    H233660   1.683   5.965  12.458  1.2231 -1.4465  0.3014
 4057TIP3   OH233661   2.495   4.627  13.425 -0.0031 -0.1753 -0.0868
 4057TIP3    H133662   2.533   4.569  13.360 -0.2989 -0.7623  0.2553
 4057TIP3    H233663   2.499   4.577  13.507 -1.2684 -0.1591 -0.0003
 4058TIP3   OH233664   0.132   3.827  14.079 -0.9528  0.2712  0.1893
 4058TIP3    H133665   0.095   3.838  13.991 -2.2386 -1.0613  0.5181
 4058TIP3    H233666   0.163   3.737  14.081 -0.3051  0.4992  0.8851
 4059TIP3   OH233667   6.637   1.274   0.649  0.0557 -0.1786  0.0123
 4059TIP3    H133668   6.626   1.369   0.639  0.4916 -0.0662  0.5063
 4059TIP3    H233669   6.612   1.257   0.740 -0.6187 -0.6364 -0.2587
 4060TIP3   OH233670   5.050   2.594   2.416 -0.4718 -0.2544  0.4397
 4060TIP3    H133671   4.983   2.659   2.400 -0.9584 -1.1181 -1.3575
 4060TIP3    H233672   5.128   2.628   2.371 -0.4008 -0.3886  0.4599
 4061TIP3   OH233673   0.926   3.432  14.697 -0.0621  0.2002 -0.6287
 4061TIP3    H133674   0.936   3.436  14.792 -0.7394 -0.3538 -0.5177
 4061TIP3    H233675   0.868   3.505  14.676 -0.3653 -0.0104 -0.5367
 4062TIP3   OH233676   3.028   1.540  10.928 -0.0849 -0.3566  0.2219
 4062TIP3    H133677   3.074   1.462  10.898  0.1227  0.2048 -0.9662
 4062TIP3    H233678   2.937   1.525  10.903  0.0002 -0.1084 -0.2416
 4063TIP3   OH233679   2.352   2.230   1.073  0.3197  0.1999  0.8263
 4063TIP3    H133680   2.367   2.205   0.982  1.0164 -0.0813  1.0142
 4063TIP3    H233681   2.388   2.319   1.080  0.9809 -0.0727  1.0116
 4064TIP3   OH233682   5.404   0.702  12.418  0.0656  0.7675 -0.3755
 4064TIP3    H133683   5.414   0.773  12.355 -0.6248  1.0222 -0.2052
 4064TIP3    H233684   5.429   0.623  12.370 -0.5804  0.9385 -1.0095
 4065TIP3   OH233685   0.612   3.617  11.013  0.1080  0.0530 -0.4726
 4065TIP3    H133686   0.661   3.600  10.933 -0.1168  2.4524 -1.1992
 4065TIP3    H233687   0.609   3.713  11.020 -2.2580 -0.0299  0.8974
 4066TIP3   OH233688   5.071   6.225   0.143 -0.0987  0.0789  0.5199
 4066TIP3    H133689   5.129   6.245   0.217  0.3090 -2.8528  1.0799
 4066TIP3    H233690   5.129   6.190   0.076 -0.8191  0.3390 -0.2526
 4067TIP3   OH233691   3.004   0.736  16.253  0.3265 -0.2948 -0.0248
 4067TIP3    H133692   2.909   0.738  16.239  0.3976 -1.8736 -0.8833
 4067TIP3    H233693   3.018   0.664  16.315  0.9254  0.2699  0.5108
 4068TIP3   OH233694   2.076   6.830  15.943 -0.5268 -0.1460  0.0909
 4068TIP3    H133695   2.094   6.922  15.920 -1.5770  0.2795  0.9061
 4068TIP3    H233696   2.040   6.793  15.863  0.0188  0.1122 -0.2852
 4069TIP3   OH233697   6.013   2.891  14.613  0.1534 -0.4223  0.0759
 4069TIP3    H133698   5.961   2.965  14.582 -0.1201 -1.0128 -0.9197
 4069TIP3    H233699   6.088   2.932  14.657  0.2702  0.4641 -0.8945
 4070TIP3   OH233700   4.291   2.509   0.770 -0.2491 -0.4080 -0.5310
 4070TIP3    H133701   4.270   2.593   0.730  2.2520  0.2360 -0.6446
 4070TIP3    H233702   4.248   2.511   0.855 -1.4184  0.3410 -1.1104
 4071TIP3   OH233703   0.373   4.392   5.883  0.1253 -0.4140 -0.2893
 4071TIP3    H133704   0.384   4.358   5.972 -0.0273 -3.2006 -1.2295
 4071TIP3    H233705   0.281   4.376   5.862 -0.2989  1.8711 -0.3774
 4072TIP3   OH233706   1.327   2.542  10.953 -0.0752  0.0106 -0.6737
 4072TIP3    H133707   1.389   2.478  10.918 -0.3532  0.0085 -1.1742
 4072TIP3    H233708   1.268   2.561  10.879 -0.8779 -0.2490 -0.1170
 4073TIP3   OH233709   4.897   0.874   2.348 -0.2406 -0.5140 -0.4546
 4073TIP3    H133710   4.903   0.866   2.253  0.7932 -3.8436 -0.2602
 4073TIP3    H233711   4.814   0.918   2.364 -1.1010 -1.1002 -2.8993
 4074TIP3   OH233712   1.986   1.667  11.323 -0.6828 -0.1243  0.0554
 4074TIP3    H133713   2.005   1.596  11.262  0.3167  0.4903 -0.3815
 4074TIP3    H233714   1.900   1.699  11.296 -1.0103 -0.9679  0.0735
 4075TIP3   OH233715   2.932   5.011  14.998  0.2570  0.1053  0.0564
 4075TIP3    H133716   3.023   5.034  15.014 -0.0175  2.0446 -0.8921
 4075TIP3    H233717   2.934   4.958  14.918  0.5912 -0.2899  0.3238
 4076TIP3   OH233718   5.091   5.677  12.151 -0.3184  0.9004 -0.0471
 4076TIP3    H133719   5.059   5.722  12.073 -0.0158  1.7225  0.3014
 4076TIP3    H233720   5.150   5.739  12.193  0.6068 -0.0462  0.1066
 4077TIP3   OH233721   4.821   5.266   5.697 -0.2378 -0.1011  0.4280
 4077TIP3    H133722   4.795   5.244   5.787 -0.9588  0.4215  0.3500
 4077TIP3    H233723   4.767   5.341   5.674 -0.7380 -0.8028 -0.7783
 4078TIP3   OH233724   0.598   6.426  13.282  0.2966  0.0594  0.6182
 4078TIP3    H133725   0.664   6.360  13.301  0.3107  0.2791  1.3781
 4078TIP3    H233726   0.611   6.493  13.349 -1.2006 -0.2674  1.2913
 4079TIP3   OH233727   3.322   4.258  16.275  0.1523  0.2724  0.0204
 4079TIP3    H133728   3.315   4.311  16.354  1.5520 -0.6324  0.8084
 4079TIP3    H233729   3.232   4.245  16.246 -0.5546 -0.6546  2.3543
 4080TIP3   OH233730   0.687   4.363   3.331 -0.3068 -0.1802 -0.3750
 4080TIP3    H133731   0.596   4.332   3.336 -0.1330 -0.7016 -0.3827
 4080TIP3    H233732   0.719   4.357   3.421  0.2583 -1.6803 -0.6438
 4081TIP3   OH233733   2.980   0.888   2.940 -0.1303 -0.2950  0.3940
 4081TIP3    H133734   2.948   0.848   3.021  0.3004 -1.2292  0.1157
 4081TIP3    H233735   2.900   0.917   2.895 -0.5368 -1.6530  0.1947
 4082TIP3   OH233736   2.810   6.586  14.276  0.3995  0.5150 -0.3589
 4082TIP3    H133737   2.823   6.629  14.360  1.4271 -1.0915  0.3500
 4082TIP3    H233738   2.886   6.528  14.266 -0.4101 -0.3884 -1.7292
 4083TIP3   OH233739   4.047   0.512   5.717 -0.2549 -0.0159 -0.1129
 4083TIP3    H133740   3.987   0.548   5.782  1.3674  0.3612  1.2598
 4083TIP3    H233741   4.055   0.419   5.741 -0.1436 -0.0159 -0.1492
 4084TIP3   OH233742   6.380   5.124   2.846 -0.2293  0.4914 -0.9359
 4084TIP3    H133743   6.383   5.197   2.907 -1.6086 -0.6992  0.6704
 4084TIP3    H233744   6.306   5.144   2.788 -0.9116  0.1629 -0.1899
 4085TIP3   OH233745   0.976   1.818  14.311  0.0398 -0.0217 -0.0164
 4085TIP3    H133746   0.955   1.828  14.404 -0.8264 -1.5886 -0.0165
 4085TIP3    H233747   1.072   1.822  14.308  0.1537 -1.3123  1.1468
 4086TIP3   OH233748   0.849   6.111  12.070  0.4553 -0.1003  0.1637
 4086TIP3    H133749   0.789   6.130  12.142  0.9899 -0.0648  0.6100
 4086TIP3    H233750   0.803   6.046  12.017  0.1071 -0.2212  0.6053
 4087TIP3   OH233751   4.217   1.197  16.301  0.2745 -0.1889 -0.0817
 4087TIP3    H133752   4.245   1.158  16.384  1.4029 -2.1154 -1.2912
 4087TIP3    H233753   4.134   1.154  16.281  0.3137 -0.1840 -0.2550
 4088TIP3   OH233754   3.706   3.043  13.853  0.2785 -0.3036  0.7591
 4088TIP3    H133755   3.664   2.984  13.914 -0.4209 -0.9344 -0.2936
 4088TIP3    H233756   3.681   3.131  13.881  0.0022 -0.5822  1.3838
 4089TIP3   OH233757   3.331   4.495  15.583  0.3536 -0.1665 -0.2480
 4089TIP3    H133758   3.248   4.541  15.571  0.3348 -0.2588 -0.4747
 4089TIP3    H233759   3.340   4.441  15.505  0.2120 -0.8146  0.1734
 4090TIP3   OH233760   0.830   0.886   4.314 -0.9223  0.4373 -1.2842
 4090TIP3    H133761   0.811   0.979   4.322 -2.9837  0.0387 -0.9348
 4090TIP3    H233762   0.781   0.857   4.237 -1.3989 -0.6139 -0.6057
 4091TIP3   OH233763   1.068   1.188  13.690 -0.6749 -0.1613 -0.1559
 4091TIP3    H133764   1.071   1.214  13.782 -0.0839 -3.4896  0.9326
 4091TIP3    H233765   0.998   1.122  13.686  1.5688 -2.6731 -1.1924
 4092TIP3   OH233766   0.949   6.202   2.477  0.0713 -0.0070  0.4907
 4092TIP3    H133767   0.894   6.157   2.413 -0.4379 -1.0715  1.6332
 4092TIP3    H233768   0.900   6.282   2.499 -1.3253 -1.1663  1.8434
 4093TIP3   OH233769   2.023   5.712  13.768 -0.4573 -0.2874  0.1212
 4093TIP3    H133770   1.989   5.755  13.690 -0.2722 -1.3567 -0.5741
 4093TIP3    H233771   2.116   5.699  13.750 -0.5089 -0.9736  0.3048
 4094TIP3   OH233772   4.769   5.028  10.903 -0.0430  0.5031 -0.7887
 4094TIP3    H133773   4.710   5.095  10.870  1.5127  1.3948 -1.9333
 4094TIP3    H233774   4.787   4.972  10.827 -1.3444 -1.2889  0.1544
 4095TIP3   OH233775   4.751   1.166   1.152 -0.0218  0.0288  0.2064
 4095TIP3    H133776   4.747   1.178   1.057  0.9364  0.8506  0.2488
 4095TIP3    H233777   4.841   1.136   1.168  0.1188  0.7958  0.9347
 4096TIP3   OH233778   1.442   3.014  14.908  0.2452  0.1908 -0.0302
 4096TIP3    H133779   1.489   3.095  14.887  0.7964 -0.4086 -1.2651
 4096TIP3    H233780   1.505   2.962  14.957  0.2285  0.1275 -0.0760
 4097TIP3   OH233781   6.406   0.877   5.592 -0.3683  0.2239  0.2199
 4097TIP3    H133782   6.401   0.793   5.546 -1.6353 -0.5926  1.7231
 4097TIP3    H233783   6.322   0.882   5.638  0.4794  1.4269  1.6667
 4098TIP3   OH233784   4.870   4.175  15.241  0.5549 -0.0330 -0.3387
 4098TIP3    H133785   4.832   4.164  15.327  2.2898 -0.3289  0.4355
 4098TIP3    H233786   4.855   4.091  15.197  3.2070 -1.4364  1.2016
 4099TIP3   OH233787   2.915   2.463   5.749 -0.1304 -0.5150  0.2586
 4099TIP3    H133788   2.978   2.422   5.691 -0.9071 -0.7221 -0.4571
 4099TIP3    H233789   2.830   2.442   5.711 -0.5852  2.9148 -1.0196
 4100TIP3   OH233790   4.966   1.772  11.868 -0.0354  0.1341  0.5978
 4100TIP3    H133791   5.026   1.725  11.925  2.9261  0.4027 -2.0225
 4100TIP3    H233792   5.014   1.849  11.840 -1.6607  0.4924 -1.5219
 4101TIP3   OH233793   3.565   4.996  16.772 -0.2262  0.1198 -0.4373
 4101TIP3    H133794   3.590   4.936  16.702  2.5793  0.6153  0.0128
 4101TIP3    H233795   3.608   4.961  16.850 -0.4992  1.4190  0.3255
 4102TIP3   OH233796   3.120   4.589  15.325 -0.0231  0.2705  0.0596
 4102TIP3    H133797   3.101   4.499  15.300  1.4251 -0.1751  0.4805
 4102TIP3    H233798   3.075   4.601  15.408 -1.2227  0.3460 -0.5831
 4103TIP3   OH233799   0.841   4.048  13.332 -0.1131 -0.1711 -0.2480
 4103TIP3    H133800   0.884   4.113  13.387  0.3226  0.9119 -1.8087
 4103TIP3    H233801   0.898   3.972  13.336 -0.8349 -0.6972  1.9263
 4104TIP3   OH233802   6.035   1.763  13.031  0.1713  0.0326 -0.3735
 4104TIP3    H133803   6.075   1.715  12.959  0.5234 -0.9628  0.4603
 4104TIP3    H233804   5.984   1.697  13.078 -1.3875  1.0044 -0.6467
 4105TIP3   OH233805   6.145   5.994  13.611 -0.2114  0.0655 -0.0964
 4105TIP3    H133806   6.050   6.004  13.614 -0.1548  0.4382  0.5595
 4105TIP3    H233807   6.173   6.055  13.542 -0.6309 -1.6028 -1.8501
 4106TIP3   OH233808   0.431   2.425  12.705 -0.6185 -0.4050 -0.5815
 4106TIP3    H133809   0.463   2.511  12.733  0.1255 -0.2726 -1.7728
 4106TIP3    H233810   0.352   2.410  12.757 -1.2177  1.3500 -0.9321
 4107TIP3   OH233811   2.109   0.186   3.427 -0.0555 -0.5718 -0.0363
 4107TIP3    H133812   2.178   0.156   3.486 -2.3167  0.7117  3.5989
 4107TIP3    H233813   2.075   0.106   3.387  1.5532 -1.5167  0.3999
 4108TIP3   OH233814   0.335   1.065   3.853 -0.8299  0.2808  0.3815
 4108TIP3    H133815   0.346   0.987   3.908 -2.0467  0.1012  0.3953
 4108TIP3    H233816   0.254   1.104   3.883 -1.8397 -0.1336 -1.6522
 4109TIP3   OH233817   3.988   6.238  16.349 -0.1504 -0.2832  0.2829
 4109TIP3    H133818   4.022   6.208  16.265 -2.2586  0.6992 -1.0094
 4109TIP3    H233819   3.961   6.157  16.394 -2.0491 -0.6790 -1.4323
 4110TIP3   OH233820   2.256   3.769  15.481 -0.0016 -0.1048 -0.1122
 4110TIP3    H133821   2.257   3.723  15.565 -0.7036  1.2504  0.6672
 4110TIP3    H233822   2.225   3.703  15.419 -0.3893 -0.8736  0.8563
 4111TIP3   OH233823   4.287   5.882   6.912 -0.2609  0.6049 -0.2932
 4111TIP3    H133824   4.287   5.796   6.870 -0.4580  0.6020 -0.2898
 4111TIP3    H233825   4.208   5.881   6.966  0.5120  0.2176  0.8736
 4112TIP3   OH233826   1.808   5.153  16.449  0.3173  0.2675 -0.6023
 4112TIP3    H133827   1.777   5.244  16.445  0.0593  0.2901  1.0264
 4112TIP3    H233828   1.812   5.134  16.543  1.3731 -1.0738 -0.8993
 4113TIP3   OH233829   6.499   4.945  11.596 -0.0328  0.1310  0.3027
 4113TIP3    H133830   6.548   4.866  11.571 -0.5239 -0.6742  1.7775
 4113TIP3    H233831   6.556   4.992  11.656 -0.1228  0.4139  0.1706
 4114TIP3   OH233832   5.358   6.630  14.478 -0.5283  0.1386  0.4989
 4114TIP3    H133833   5.372   6.679  14.396  0.0620 -1.0307 -0.1205
 4114TIP3    H233834   5.367   6.538  14.453  0.0751 -0.2296  1.9620
 4115TIP3   OH233835   0.159   1.754  17.135 -0.4258  0.0321  0.3747
 4115TIP3    H133836   0.227   1.758  17.067 -0.6476  0.2440  0.1644
 4115TIP3    H233837   0.118   1.840  17.133  0.1898  0.3700  1.4282
 4116TIP3   OH233838   6.464   0.592   5.508  0.7527 -0.0404 -0.2359
 4116TIP3    H133839   6.547   0.622   5.546  1.4956 -2.5844  0.3995
 4116TIP3    H233840   6.482   0.502   5.481 -1.0917  0.1991 -2.5429
 4117TIP3   OH233841   6.740   6.128   2.476  0.0441 -0.2174 -0.1435
 4117TIP3    H133842   6.771   6.211   2.439 -0.2924 -0.3724 -0.7758
 4117TIP3    H233843   6.756   6.137   2.570  1.4522 -0.0611 -0.3762
 4118TIP3   OH233844   5.289   0.505  14.346  0.3633 -0.3202 -0.0742
 4118TIP3    H133845   5.374   0.497  14.304 -0.4436  0.4989 -1.9513
 4118TIP3    H233846   5.301   0.573  14.412  1.4610 -1.1222  0.5977
 4119TIP3   OH233847   4.240   0.536   2.468 -0.2193  0.3173  0.0038
 4119TIP3    H133848   4.274   0.568   2.552 -0.8411 -0.4405  0.5549
 4119TIP3    H233849   4.205   0.450   2.488  1.2921 -0.6837 -1.4372
 4120TIP3   OH233850   0.291   4.782  13.462  0.2374  0.4785 -0.7017
 4120TIP3    H133851   0.324   4.708  13.512 -0.8754  0.0313 -0.5930
 4120TIP3    H233852   0.198   4.785  13.483  0.7140  3.8106  1.8148
 4121TIP3   OH233853   1.103   5.345  11.362  0.4466  0.3377 -0.0302
 4121TIP3    H133854   1.108   5.437  11.386 -1.1431  0.8006 -1.2763
 4121TIP3    H233855   1.025   5.312  11.406  0.6350 -0.2437 -0.1127
 4122TIP3   OH233856   0.667   3.948  14.831  0.0690  0.5290 -0.1324
 4122TIP3    H133857   0.669   4.035  14.792 -3.2782  1.1582  0.8589
 4122TIP3    H233858   0.625   3.893  14.764  0.5576  0.0470 -0.0523
 4123TIP3   OH233859   2.620   2.940  14.589  0.2972 -0.5983  0.3197
 4123TIP3    H133860   2.546   2.922  14.646 -0.2090  1.5579  0.4573
 4123TIP3    H233861   2.582   2.987  14.514  1.3876 -0.2296 -0.0327
 4124TIP3   OH233862   1.498   1.740  10.965  0.0866 -0.2043 -0.4873
 4124TIP3    H133863   1.421   1.720  10.911 -0.1367 -1.0958  0.1427
 4124TIP3    H233864   1.569   1.692  10.922  0.5362  1.4206 -1.6572
 4125TIP3   OH233865   6.684   0.859   2.385 -0.3066  0.0421  0.1439
 4125TIP3    H133866   6.595   0.890   2.399  0.5323  2.9161 -0.1130
 4125TIP3    H233867   6.714   0.830   2.471 -0.9750  0.6523  0.5976
 4126TIP3   OH233868   0.354   5.163  12.415  0.2163  0.6610  0.2950
 4126TIP3    H133869   0.292   5.224  12.375 -2.1560 -1.2852  0.7750
 4126TIP3    H233870   0.325   5.077  12.386 -0.1171 -0.6810  4.1133
 4127TIP3   OH233871   6.691   6.475  13.436  0.1060 -0.1418 -0.0757
 4127TIP3    H133872   6.668   6.563  13.405 -0.3519 -0.6007 -1.1018
 4127TIP3    H233873   6.621   6.419  13.403  0.7079 -0.9931  0.0465
 4128TIP3   OH233874   0.546   5.614  16.175  0.8578 -0.7514 -0.1891
 4128TIP3    H133875   0.614   5.658  16.124  0.7848 -0.1785  0.1991
 4128TIP3    H233876   0.508   5.683  16.229 -1.4872 -0.6031 -1.8892
 4129TIP3   OH233877   2.955   0.335  14.042 -0.3439 -0.5960 -0.5770
 4129TIP3    H133878   2.880   0.305  13.990 -0.2175 -0.0748 -1.0743
 4129TIP3    H233879   2.917   0.388  14.111 -0.5453 -1.6244  0.1221
 4130TIP3   OH233880   1.755   1.702   3.565 -0.3056  0.2254 -0.4496
 4130TIP3    H133881   1.745   1.774   3.502  0.2464  0.8911  0.2004
 4130TIP3    H233882   1.725   1.738   3.648 -0.8878 -0.5998 -0.2922
 4131TIP3   OH233883   1.212   2.039   0.859  0.1704 -0.2319 -0.1038
 4131TIP3    H133884   1.137   1.984   0.837 -0.5606  0.8214 -0.3439
 4131TIP3    H233885   1.257   1.992   0.929 -1.2918 -0.3965  0.7544
 4132TIP3   OH233886   5.530   1.062  15.617  0.4128  0.2953  0.6091
 4132TIP3    H133887   5.604   1.008  15.593 -0.7496 -0.2294 -2.1406
 4132TIP3    H233888   5.464   1.045  15.550 -1.9469  1.2861  2.5039
 4133TIP3   OH233889   4.473   5.711  12.262 -0.7821 -0.6981  0.6179
 4133TIP3    H133890   4.550   5.654  12.257  0.5237  0.7107  2.7507
 4133TIP3    H233891   4.399   5.652  12.275  0.3493 -2.0025  1.3630
 4134TIP3   OH233892   0.824   2.843  13.146 -0.3287  0.2234 -0.0409
 4134TIP3    H133893   0.831   2.796  13.229  1.3644 -0.4509 -0.5136
 4134TIP3    H233894   0.860   2.782  13.081  2.5065  2.2708 -0.6119
 4135TIP3   OH233895   2.228   6.085  16.202 -0.7351  0.4585 -0.5111
 4135TIP3    H133896   2.189   6.130  16.278 -1.4242 -1.5571  0.4143
 4135TIP3    H233897   2.314   6.126  16.191 -1.2664  1.8743  0.3586
 4136TIP3   OH233898   1.467   3.523  16.759 -0.0039  0.3769 -0.4667
 4136TIP3    H133899   1.432   3.517  16.848  0.4557 -1.1245 -0.3510
 4136TIP3    H233900   1.547   3.575  16.767 -0.2039  0.6263 -0.0867
 4137TIP3   OH233901   5.091   3.185  13.329 -0.1307  0.0666 -0.0734
 4137TIP3    H133902   5.033   3.150  13.396 -1.8621 -0.2486 -1.6614
 4137TIP3    H233903   5.119   3.270  13.363  0.7947 -1.0015  1.9782
 4138TIP3   OH233904   6.201   2.866  14.108  0.6594 -0.2493 -0.2431
 4138TIP3    H133905   6.183   2.882  14.015 -0.4147  0.2721  0.0314
 4138TIP3    H233906   6.252   2.786  14.109  0.0690 -0.6629 -1.2425
 4139TIP3   OH233907   5.621   2.793  12.874 -0.7710 -0.0612 -0.4697
 4139TIP3    H133908   5.535   2.814  12.909 -0.6673  1.1600 -0.9246
 4139TIP3    H233909   5.632   2.699  12.893 -1.9735 -0.1151  0.0383
 4140TIP3   OH233910   1.195   4.476   4.069 -0.7991 -0.2105 -0.1114
 4140TIP3    H133911   1.208   4.386   4.040 -1.5962 -0.1629 -0.6248
 4140TIP3    H233912   1.183   4.526   3.989  0.6104  0.5379  0.1060
 4141TIP3   OH233913   3.915   5.817   1.016 -0.0206 -0.3988  0.8228
 4141TIP3    H133914   3.938   5.801   1.108 -0.0917  0.6269  1.0339
 4141TIP3    H233915   3.916   5.731   0.976  2.7037 -0.5876  1.1408
 4142TIP3   OH233916   1.016   0.386   0.748 -0.2105 -0.1243 -0.2117
 4142TIP3    H133917   1.087   0.451   0.748  0.1999 -0.4952  2.1756
 4142TIP3    H233918   1.023   0.344   0.662  1.8371  0.5281 -0.4215
 4143TIP3   OH233919   0.695   0.096  10.917  0.2225  0.1526  0.1564
 4143TIP3    H133920   0.739   0.019  10.955  1.2169 -0.0740 -1.3842
 4143TIP3    H233921   0.619   0.060  10.872  1.6109 -0.2128 -2.0303
 4144TIP3   OH233922   0.963   2.604  13.661  0.2038 -0.5030  0.1937
 4144TIP3    H133923   0.912   2.667  13.610 -1.6704  0.8421  3.4345
 4144TIP3    H233924   0.916   2.521  13.651 -2.6278  0.6000  2.7076
 4145TIP3   OH233925   4.596   1.766  11.519  0.0725 -0.1216  0.4063
 4145TIP3    H133926   4.572   1.677  11.494 -0.7447  0.5625 -1.4612
 4145TIP3    H233927   4.689   1.760  11.541 -0.4214 -1.7747  2.2731
 4146TIP3   OH233928   2.752   5.915  10.638 -0.2513 -0.1674  0.2459
 4146TIP3    H133929   2.793   5.994  10.601 -1.6196  1.5348  2.1310
 4146TIP3    H233930   2.659   5.936  10.641 -0.6737 -1.9767  0.5709
 4147TIP3   OH233931   2.790   1.510  16.861  0.0561 -0.0757  0.4003
 4147TIP3    H133932   2.735   1.583  16.890  1.1216 -0.0400  2.5427
 4147TIP3    H233933   2.875   1.550  16.844 -0.1529 -0.3603 -1.4278
 4148TIP3   OH233934   2.361   1.186  15.737  0.2418  0.0346 -0.4858
 4148TIP3    H133935   2.330   1.220  15.821 -0.8584 -0.2091 -0.7747
 4148TIP3    H233936   2.384   1.264  15.687  0.8044  0.1866 -0.0065
 4149TIP3   OH233937   5.352   2.099   6.430  0.1046 -0.0462  0.4033
 4149TIP3    H133938   5.439   2.127   6.457 -0.4678  0.5383  1.7344
 4149TIP3    H233939   5.346   2.007   6.458  1.1746 -0.9295 -1.9808
 4150TIP3   OH233940   3.092   3.632  14.537  0.1987 -0.2179  0.5894
 4150TIP3    H133941   3.022   3.647  14.473  0.8117  1.0823  0.1834
 4150TIP3    H233942   3.139   3.715  14.541 -0.2002 -0.0427  3.2515
 4151TIP3   OH233943   4.639   6.624   6.610 -0.0371 -0.6345  0.2805
 4151TIP3    H133944   4.580   6.693   6.578 -1.3064 -1.8046  0.0030
 4151TIP3    H233945   4.637   6.634   6.705  0.2624  0.0775  0.2201
 4152TIP3   OH233946   2.681   4.778   5.241 -0.2302 -0.1369  0.2610
 4152TIP3    H133947   2.614   4.846   5.235 -0.8680 -0.8348 -3.4329
 4152TIP3    H233948   2.763   4.826   5.251 -0.7922  1.1559 -0.9756
 4153TIP3   OH233949   5.168   0.436  16.946 -0.4653  0.8847 -0.3009
 4153TIP3    H133950   5.089   0.416  16.997 -0.7227 -1.3409 -1.4419
 4153TIP3    H233951   5.201   0.517  16.984  0.2832 -1.3442  4.5884
 4154TIP3   OH233952   2.382   3.946  14.163  0.2865  0.4367 -0.2402
 4154TIP3    H133953   2.424   4.028  14.191 -0.8529  1.1851 -0.6457
 4154TIP3    H233954   2.414   3.881  14.225 -0.0940  1.5357  1.1651
 4155TIP3   OH233955   6.129   1.465   3.744 -0.2445  1.0692  0.0622
 4155TIP3    H133956   6.109   1.535   3.683  2.3465  1.0246 -0.9801
 4155TIP3    H233957   6.161   1.510   3.822 -0.9003  1.0629  0.3437
 4156TIP3   OH233958   2.296   2.649   6.281 -0.3402 -0.8940 -0.0347
 4156TIP3    H133959   2.356   2.576   6.297  1.1767  0.2054 -0.4835
 4156TIP3    H233960   2.345   2.726   6.309 -1.4111  0.0796 -0.7770
 4157TIP3   OH233961   4.108   3.918  13.946 -0.1327 -0.1987  0.3452
 4157TIP3    H133962   4.013   3.922  13.954 -0.0792  1.2313  0.5011
 4157TIP3    H233963   4.136   3.857  14.015 -0.8795  0.0379  0.8658
 4158TIP3   OH233964   2.463   1.763  15.609 -0.3667  0.3293 -0.3216
 4158TIP3    H133965   2.524   1.835  15.622  0.2705  0.0557 -1.6123
 4158TIP3    H233966   2.510   1.702  15.552 -1.2201 -0.6967  0.0402
 4159TIP3   OH233967   0.077   4.580  16.219 -0.0936  0.5146  0.6752
 4159TIP3    H133968   0.086   4.582  16.124 -1.3472 -0.4223  0.5058
 4159TIP3    H233969   0.063   4.671  16.244 -0.4438  0.6884 -0.1192
 4160TIP3   OH233970   4.441   2.599  10.062  0.5334  0.4057  0.6418
 4160TIP3    H133971   4.504   2.658  10.021 -1.2910  1.7278 -0.4459
 4160TIP3    H233972   4.473   2.588  10.152  2.4003  0.8165  0.0686
 4161TIP3   OH233973   4.400   2.145  13.871 -0.3467 -0.3900 -0.2113
 4161TIP3    H133974   4.319   2.194  13.885 -1.0010 -1.1387 -1.2040
 4161TIP3    H233975   4.384   2.060  13.914  0.4369 -0.0776  0.7332
 4162TIP3   OH233976   5.937   6.820   5.410  0.0716 -0.0772 -0.2342
 4162TIP3    H133977   5.927   6.733   5.451  1.0342  0.5263  1.3872
 4162TIP3    H233978   6.031   6.829   5.395  0.2459  1.4111  1.4107
 4163TIP3   OH233979   1.754   4.319   4.372 -0.6626  0.3676 -0.2169
 4163TIP3    H133980   1.822   4.357   4.428 -0.4640  1.4636 -1.1562
 4163TIP3    H233981   1.695   4.392   4.353 -0.8589 -0.0454 -1.2446
 4164TIP3   OH233982   1.502   4.079  12.108 -0.0803 -0.6249  0.1063
 4164TIP3    H133983   1.415   4.098  12.140  0.4880  2.7969 -0.0724
 4164TIP3    H233984   1.493   4.080  12.012  0.4679  2.0509  0.0180
 4165TIP3   OH233985   4.256   4.268  10.846 -0.7150  0.4728  0.0718
 4165TIP3    H133986   4.256   4.181  10.886 -0.0867 -0.2786 -1.4736
 4165TIP3    H233987   4.174   4.307  10.875 -0.5492 -0.2443  1.5933
 4166TIP3   OH233988   3.077   2.883  14.689 -0.3187 -0.3772  0.0241
 4166TIP3    H133989   3.148   2.915  14.634  0.9574 -1.5036  0.9564
 4166TIP3    H233990   2.998   2.895  14.636  0.5156  1.1495 -0.9182
 4167TIP3   OH233991   3.176   6.323   2.088  0.4070 -0.3284 -0.2944
 4167TIP3    H133992   3.082   6.301   2.091  0.4315 -0.3413  0.9849
 4167TIP3    H233993   3.211   6.290   2.171  1.7935 -1.3254 -1.2253
 4168TIP3   OH233994   0.610   4.809  17.165 -1.0810 -0.1999  0.5009
 4168TIP3    H133995   0.625   4.892  17.119 -2.9794  0.5737  1.1927
 4168TIP3    H233996   0.675   4.808  17.236 -1.9272  1.3773  1.3327
 4169TIP3   OH233997   3.616   5.110   2.531  0.0024  0.0937 -0.0716
 4169TIP3    H133998   3.648   5.170   2.463 -0.5135  0.5912  0.1177
 4169TIP3    H233999   3.655   5.026   2.508 -1.7267 -0.2314 -2.1537
 4170TIP3   OH234000   3.508   6.791  14.483 -0.5979  1.0313 -0.2144
 4170TIP3    H134001   3.552   6.751  14.559 -1.2511 -1.3806 -1.0046
 4170TIP3    H234002   3.430   6.832  14.521 -0.4027  0.7362  0.5428
 4171TIP3   OH234003   1.256   2.826   0.110 -0.3644  0.2678 -0.5865
 4171TIP3    H134004   1.208   2.859   0.186 -0.0283 -2.0344  0.6898
 4171TIP3    H234005   1.284   2.906   0.064  0.3501  1.8040  2.2603
 4172TIP3   OH234006   6.472   6.230  16.858  0.0719  0.5802  0.3598
 4172TIP3    H134007   6.540   6.167  16.879 -0.1258  0.0458 -0.5548
 4172TIP3    H234008   6.485   6.302  16.921  1.4640  0.4914  0.1966
 4173TIP3   OH234009   3.412   1.038   4.735  0.3643  0.6004  0.6537
 4173TIP3    H134010   3.318   1.038   4.715  0.2021 -0.5552  1.3115
 4173TIP3    H234011   3.446   1.117   4.693 -0.6128  0.2258 -0.9035
 4174TIP3   OH234012   3.793   4.014   2.708 -0.0683 -0.3597 -0.8440
 4174TIP3    H134013   3.880   3.993   2.675 -0.4199  0.6981 -2.5532
 4174TIP3    H234014   3.809   4.074   2.781  0.6503 -0.6839 -0.7302
 4175TIP3   OH234015   0.603   2.788   5.655  0.2402 -0.2029 -0.2917
 4175TIP3    H134016   0.682   2.810   5.606  0.2835  3.0288  0.9437
 4175TIP3    H234017   0.635   2.749   5.736  0.4984 -0.3738 -0.4764
 4176TIP3   OH234018   6.413   0.997  11.432 -0.1373 -0.5234  0.5371
 4176TIP3    H134019   6.471   1.009  11.357  1.9304  0.3868  2.1607
 4176TIP3    H234020   6.345   0.938  11.401  1.5989 -1.5645 -1.5461
 4177TIP3   OH234021   5.203   3.365   4.420  0.1097  0.0095  0.3002
 4177TIP3    H134022   5.198   3.294   4.483 -0.7880 -0.2745 -0.0781
 4177TIP3    H234023   5.236   3.324   4.340 -0.7767 -0.0712 -0.0320
 4178TIP3   OH234024   3.084   2.213  11.534 -0.1623  0.1806 -0.2809
 4178TIP3    H134025   3.060   2.163  11.456 -1.8278  0.0942  0.2445
 4178TIP3    H234026   3.160   2.166  11.570  0.0594 -0.2992 -1.3351
 4179TIP3   OH234027   1.528   0.283   5.527 -0.3142 -0.6731  0.0182
 4179TIP3    H134028   1.565   0.202   5.560  0.6905  0.4543  1.8381
 4179TIP3    H234029   1.442   0.289   5.569  0.6059  0.3300  1.8897
 4180TIP3   OH234030   1.320   0.751  16.074 -0.3402 -0.3599  0.7202
 4180TIP3    H134031   1.407   0.712  16.081 -0.4725 -0.8366 -0.2494
 4180TIP3    H234032   1.331   0.825  16.015 -0.7954 -1.0562 -0.2559
 4181TIP3   OH234033   5.366   3.690   1.833  0.4511 -0.2430  0.1729
 4181TIP3    H134034   5.445   3.686   1.779  0.9916 -0.5465  0.9763
 4181TIP3    H234035   5.397   3.717   1.919 -0.1906 -1.3443  0.7595
 4182TIP3   OH234036   5.700   1.002   3.875 -0.1090 -0.4543  0.4850
 4182TIP3    H134037   5.642   0.950   3.820  0.7762  0.3851 -1.3079
 4182TIP3    H234038   5.771   0.941   3.898  0.8533 -0.1677 -1.4923
 4183TIP3   OH234039   6.143   5.153  11.276 -0.4477  0.9496 -0.2900
 4183TIP3    H134040   6.205   5.092  11.316 -0.7500 -0.2521 -1.5554
 4183TIP3    H234041   6.073   5.097  11.243 -1.8415  2.2099  0.4386
 4184TIP3   OH234042   5.303   1.490   3.410  0.2490  0.4220  0.2574
 4184TIP3    H134043   5.354   1.524   3.337  1.2982  0.3109  0.9180
 4184TIP3    H234044   5.332   1.541   3.485  0.5405 -0.7061  0.9371
 4185TIP3   OH234045   6.002   1.134  11.283  0.2698 -0.5042  0.6088
 4185TIP3    H134046   5.996   1.144  11.378 -0.1562 -3.1912  0.9408
 4185TIP3    H234047   5.912   1.142  11.252  0.2333 -0.9215  0.6020
 4186TIP3   OH234048   3.710   5.713   5.289 -0.0374  0.2432  0.1127
 4186TIP3    H134049   3.681   5.799   5.257 -0.1552  0.0136 -0.3928
 4186TIP3    H234050   3.749   5.732   5.375  0.1982  0.8448 -0.1212
 4187TIP3   OH234051   4.390   2.226  14.462 -0.2089  0.3163 -0.0298
 4187TIP3    H134052   4.437   2.208  14.544  0.4876  0.2956 -0.4233
 4187TIP3    H234053   4.309   2.176  14.469 -0.8012  1.3820  1.2373
 4188TIP3   OH234054   1.344   0.659   2.649  0.3091  0.5964 -0.5991
 4188TIP3    H134055   1.294   0.602   2.707 -0.1714 -0.6324 -2.1586
 4188TIP3    H234056   1.433   0.623   2.651  0.3027  0.5806 -0.6016
 4189TIP3   OH234057   5.338   1.972  12.284 -1.0808  0.2167  0.4613
 4189TIP3    H134058   5.330   1.957  12.378  0.0510  0.5586  0.6331
 4189TIP3    H234059   5.400   1.905  12.255 -1.3777  0.1551 -0.0313
 4190TIP3   OH234060   3.192   4.432  13.419  0.4675 -0.1275 -0.5834
 4190TIP3    H134061   3.151   4.479  13.491  0.4810 -0.2421 -0.4986
 4190TIP3    H234062   3.286   4.447  13.430  0.5061 -0.5575 -0.2775
 4191TIP3   OH234063   0.861   5.518  13.189 -0.4233 -0.6186  0.1196
 4191TIP3    H134064   0.796   5.555  13.129  1.2257  1.3154 -0.6032
 4191TIP3    H234065   0.943   5.520  13.139  0.3152 -2.6062  1.1403
 4192TIP3   OH234066   6.119   0.795  13.662 -0.1411 -0.1211  0.6306
 4192TIP3    H134067   6.161   0.863  13.609 -0.7969 -1.1821 -1.3229
 4192TIP3    H234068   6.190   0.734  13.682 -0.5479 -1.8845 -2.6159
 4193TIP3   OH234069   3.117   3.573   3.837  0.2305  0.8110  0.0348
 4193TIP3    H134070   3.203   3.531   3.845  0.1091  0.6014  0.2654
 4193TIP3    H234071   3.055   3.504   3.859 -0.0026  0.9292 -0.2553
 4194TIP3   OH234072   3.385   4.031  11.614  0.0623  0.1546  0.3004
 4194TIP3    H134073   3.470   4.074  11.600  0.6708 -0.8080  0.9601
 4194TIP3    H234074   3.322   4.089  11.571  1.1198  0.5508 -0.7742
 4195TIP3   OH234075   3.376   1.670   3.970  0.3612 -0.0298 -0.1073
 4195TIP3    H134076   3.418   1.716   4.043 -0.7689 -0.5541  0.9143
 4195TIP3    H234077   3.346   1.740   3.912  1.5598  0.3829 -0.2601
 4196TIP3   OH234078   3.220   2.541   5.792 -0.1053  0.1139  0.0617
 4196TIP3    H134079   3.134   2.564   5.756 -0.1194 -1.1503 -0.7500
 4196TIP3    H234080   3.281   2.598   5.745 -0.3751  0.2032 -0.1836
 4197TIP3   OH234081   0.671   1.276   0.032 -0.2176 -0.1738  0.1253
 4197TIP3    H134082   0.744   1.325  -0.006 -0.0815 -1.0618 -0.7798
 4197TIP3    H234083   0.593   1.311  -0.011 -0.3096  0.5010  0.8099
 4198TIP3   OH234084   3.604   2.682  16.270 -0.2569 -0.2896  0.2531
 4198TIP3    H134085   3.520   2.641  16.290 -0.3926 -0.2264 -0.1671
 4198TIP3    H234086   3.639   2.631  16.197  0.0976 -0.3503  0.4649
 4199TIP3   OH234087   3.310   3.505  10.947 -0.0494  0.7594 -0.2892
 4199TIP3    H134088   3.391   3.457  10.959 -0.9920 -0.4459  1.8716
 4199TIP3    H234089   3.333   3.597  10.964  0.6844  0.3108  1.2721
 4200TIP3   OH234090   4.356   5.404  16.090 -0.2390 -0.1377  0.4268
 4200TIP3    H134091   4.267   5.411  16.057  0.5182  0.4284 -1.6847
 4200TIP3    H234092   4.354   5.329  16.150 -2.1366 -0.0231  0.5610
 4201TIP3   OH234093   0.102   1.671  12.628 -1.0566  0.2060 -0.0302
 4201TIP3    H134094   0.162   1.734  12.667  0.8822 -2.2455  1.2648
 4201TIP3    H234095   0.044   1.645  12.699 -0.4387 -0.9963  0.0602
 4202TIP3   OH234096   5.114   4.637  11.504 -0.3595  0.3842  0.1887
 4202TIP3    H134097   5.144   4.707  11.561 -2.3093  2.3037 -0.9993
 4202TIP3    H234098   5.020   4.648  11.499 -0.5092 -1.0848 -1.6285
 4203TIP3   OH234099   0.364   6.528  14.896  0.3768 -0.2927  0.4208
 4203TIP3    H134100   0.372   6.468  14.821 -2.1523 -0.3411  0.1173
 4203TIP3    H234101   0.290   6.494  14.946  0.8200  0.8653  1.9087
 4204TIP3   OH234102   3.237   0.220  11.002  0.2158 -0.0057  0.2588
 4204TIP3    H134103   3.315   0.179  11.040  1.0941 -0.0603 -1.5102
 4204TIP3    H234104   3.268   0.304  10.968 -1.1421  1.2930  2.0497
 4205TIP3   OH234105   0.679   1.520   2.260 -0.0462  0.1923 -0.0150
 4205TIP3    H134106   0.773   1.532   2.273  0.4444 -0.4997 -2.4213
 4205TIP3    H234107   0.662   1.431   2.291  1.0333 -1.3210 -3.2411
 4206TIP3   OH234108   6.407   3.235  13.524  0.1158  0.3389  0.1698
 4206TIP3    H134109   6.325   3.248  13.573 -0.2779 -0.6716 -0.1966
 4206TIP3    H234110   6.437   3.324  13.504  0.3617  0.7994  2.3298
 4207TIP3   OH234111   2.616   1.559   4.845 -0.0916  0.1415 -0.1362
 4207TIP3    H134112   2.645   1.494   4.909  2.9406  0.2673 -1.2402
 4207TIP3    H234113   2.555   1.614   4.894  1.3189 -0.3798  2.4042
 4208TIP3   OH234114   3.513   1.283  16.304 -0.3547 -0.5676 -0.0878
 4208TIP3    H134115   3.555   1.369  16.304 -0.1954 -0.6402 -0.7206
 4208TIP3    H234116   3.426   1.299  16.338  0.5951 -0.6360  2.5802
 4209TIP3   OH234117   1.951   3.269  15.777  0.2557 -0.6485 -0.2991
 4209TIP3    H134118   1.862   3.292  15.749  0.1917 -0.4238  0.0749
 4209TIP3    H234119   1.968   3.327  15.851  1.2368  0.3054 -1.2262
 4210TIP3   OH234120   0.516   0.944  14.594 -0.4666 -0.2659  0.7955
 4210TIP3    H134121   0.582   0.989  14.645 -0.8416 -0.3480  1.3584
 4210TIP3    H234122   0.516   0.854  14.627  1.0230 -1.0092 -1.0368
 4211TIP3   OH234123   2.672   2.156   5.960  0.1103  0.0875  0.6683
 4211TIP3    H134124   2.628   2.101   6.024 -1.1888  1.3970  0.9618
 4211TIP3    H234125   2.762   2.163   5.992  0.1851 -1.4458  0.8643
 4212TIP3   OH234126   5.338   6.273  13.245  0.3794 -0.2088  0.7696
 4212TIP3    H134127   5.362   6.365  13.254 -0.1797  0.0061  0.0954
 4212TIP3    H234128   5.333   6.241  13.335  1.0905  0.2789  0.9957
 4213TIP3   OH234129   3.159   0.372  15.503 -0.4620 -0.0521  0.2966
 4213TIP3    H134130   3.130   0.436  15.438 -0.4653 -1.1753 -0.8483
 4213TIP3    H234131   3.195   0.300  15.451  0.7528 -0.4131  1.5867
 4214TIP3   OH234132   4.797   4.291  15.014 -0.6652 -0.2920 -0.5461
 4214TIP3    H134133   4.879   4.325  14.979 -1.6184  0.0406 -2.6411
 4214TIP3    H234134   4.819   4.260  15.102  1.3444  1.1519 -0.4716
 4215TIP3   OH234135   3.305   0.621   1.128  0.0201 -0.2269 -0.0806
 4215TIP3    H134136   3.237   0.594   1.190 -0.8682 -0.1866 -1.0076
 4215TIP3    H234137   3.329   0.540   1.082 -1.2088  0.1387 -1.4672
 4216TIP3   OH234138   1.042   5.715  16.003  0.2135  0.2013  0.5575
 4216TIP3    H134139   0.996   5.713  15.919 -0.8732 -0.1438  1.1463
 4216TIP3    H234140   1.123   5.763  15.985 -1.0363  2.1055 -0.1625
 4217TIP3   OH234141   5.528   1.515  11.719  0.0345  0.4913  0.0739
 4217TIP3    H134142   5.529   1.489  11.627  0.3212  3.1937 -0.7824
 4217TIP3    H234143   5.601   1.468  11.758  1.3670  1.0080 -1.6521
 4218TIP3   OH234144   4.419   5.501   2.559 -0.5570  0.0420 -0.0363
 4218TIP3    H134145   4.342   5.529   2.609 -0.2488 -0.0680  0.5145
 4218TIP3    H234146   4.383   5.448   2.488 -1.0918  1.2472 -0.6941
 4219TIP3   OH234147   2.463   3.412  16.453  0.1013  0.8099 -0.2193
 4219TIP3    H134148   2.377   3.389  16.489  0.2279 -2.1697 -1.4604
 4219TIP3    H234149   2.448   3.493  16.405 -1.6883  1.0731  0.6985
 4220TIP3   OH234150   6.812   5.537   4.268  0.1905 -0.6537 -0.1083
 4220TIP3    H134151   6.776   5.459   4.227  2.2169 -1.9512  0.4301
 4220TIP3    H234152   6.816   5.514   4.361 -1.3319  1.0115  0.4188
 4221TIP3   OH234153   5.395   0.771  13.844 -0.1670 -0.3353 -0.9705
 4221TIP3    H134154   5.436   0.685  13.846  1.8222  0.5657 -0.3433
 4221TIP3    H234155   5.464   0.830  13.814 -1.4594  1.0645 -1.3207
 4222TIP3   OH234156   3.534   2.339  10.548 -0.5048 -0.4616  0.1645
 4222TIP3    H134157   3.573   2.375  10.469 -1.4913 -0.7343 -0.4566
 4222TIP3    H234158   3.555   2.404  10.616  0.6171 -0.3846 -0.2350
 4223TIP3   OH234159   5.969   2.647   5.121  0.2333  0.1475 -0.4601
 4223TIP3    H134160   5.889   2.699   5.118  0.3172  0.5098  1.8293
 4223TIP3    H234161   5.954   2.576   5.059 -1.4710  0.7420 -0.7794
 4224TIP3   OH234162   6.315   3.457  11.305  0.8085  0.4677 -0.8111
 4224TIP3    H134163   6.253   3.409  11.250 -0.6540 -0.0423  1.1882
 4224TIP3    H234164   6.305   3.548  11.276 -0.1034  0.2472 -1.2508
 4225TIP3   OH234165   0.513   0.107  11.637 -0.0890 -0.1153 -0.1201
 4225TIP3    H134166   0.533   0.106  11.730  3.2627  1.0423 -0.7094
 4225TIP3    H234167   0.545   0.191  11.606  0.0368 -0.9767 -2.5544
 4226TIP3   OH234168   4.602   5.019   0.985  0.5926  0.0791 -0.5159
 4226TIP3    H134169   4.562   5.052   0.904  1.7975 -0.9323 -1.5640
 4226TIP3    H234170   4.616   4.926   0.969  0.3252 -0.2781  1.1056
 4227TIP3   OH234171   2.003   5.400   4.741  0.4782 -0.3620 -0.0906
 4227TIP3    H134172   2.004   5.371   4.649 -0.1028 -1.2268  0.1668
 4227TIP3    H234173   1.913   5.429   4.756  0.4913 -0.5133  0.2902
 4228TIP3   OH234174   1.951   1.121  16.729 -0.1343 -0.5170 -0.5278
 4228TIP3    H134175   1.997   1.048  16.770 -0.0654 -0.3061 -0.2180
 4228TIP3    H234176   1.986   1.198  16.774 -0.3470 -0.3116 -0.7163
 4229TIP3   OH234177   5.326   4.945  13.060 -0.4575 -0.7747  0.2320
 4229TIP3    H134178   5.281   5.020  13.098  0.2769  0.7798 -1.7373
 4229TIP3    H234179   5.332   4.966  12.966  3.2057 -1.4075  0.1501
 4230TIP3   OH234180   2.392   0.643  16.361  0.2102 -0.0005  0.3629
 4230TIP3    H134181   2.318   0.685  16.406 -0.7016 -1.1056 -0.0731
 4230TIP3    H234182   2.445   0.607  16.432 -0.3511 -0.3137  0.6252
 4231TIP3   OH234183   5.379   4.597  14.885  0.4723  0.2384 -0.0475
 4231TIP3    H134184   5.375   4.689  14.914 -1.1096  0.8171 -1.8457
 4231TIP3    H234185   5.388   4.547  14.966  1.6939  1.9621  0.9741
 4232TIP3   OH234186   5.490   1.943   2.253 -0.8568  0.3964  0.4572
 4232TIP3    H134187   5.551   2.016   2.249  0.4874 -0.6813  0.2025
 4232TIP3    H234188   5.505   1.903   2.338 -0.2140 -0.6612 -0.1219
 4233TIP3   OH234189   3.931   0.504  16.521 -0.2229 -0.1542 -0.6467
 4233TIP3    H134190   3.964   0.453  16.595  0.6073  1.4535  0.1615
 4233TIP3    H234191   3.846   0.538  16.550  0.4445  1.1122 -0.0606
 4234TIP3   OH234192   3.530   2.288   1.307 -0.2489 -0.2890  0.2364
 4234TIP3    H134193   3.534   2.307   1.400 -0.7798 -0.4417  0.2976
 4234TIP3    H234194   3.618   2.258   1.284 -0.0042  0.1548  0.5942
 4235TIP3   OH234195   4.232   2.979  12.046 -0.2257 -0.1150 -0.6533
 4235TIP3    H134196   4.252   3.001  12.136 -0.2105 -0.0951 -0.6613
 4235TIP3    H234197   4.173   3.049  12.016 -1.0844 -0.6857 -0.3320
 4236TIP3   OH234198   6.263   1.533   5.459 -0.2539  0.0683  0.0860
 4236TIP3    H134199   6.172   1.529   5.489 -1.8053 -1.4777 -4.1148
 4236TIP3    H234200   6.286   1.442   5.441  1.1774  0.6771 -1.3636
 4237TIP3   OH234201   1.039   4.321  10.621  0.6817  0.7507  0.2806
 4237TIP3    H134202   1.021   4.230  10.595  2.1896  0.9784 -1.8113
 4237TIP3    H234203   0.956   4.353  10.655  0.1638 -1.4655  1.3291
 4238TIP3   OH234204   2.875   2.586  15.545  0.0940  0.0910 -0.0503
 4238TIP3    H134205   2.846   2.675  15.570 -1.3936 -0.0031 -1.2785
 4238TIP3    H234206   2.825   2.528  15.603  0.3846  0.0157  0.1283
 4239TIP3   OH234207   5.984   6.736   0.771 -0.2319 -0.1999 -0.3920
 4239TIP3    H134208   6.036   6.658   0.790 -0.4054 -0.3075 -0.3585
 4239TIP3    H234209   6.010   6.761   0.682  0.1506 -0.0354 -0.2344
 4240TIP3   OH234210   0.762   5.263   5.881 -0.2709 -0.6365 -0.2741
 4240TIP3    H134211   0.716   5.269   5.965 -0.8699 -1.3931 -0.5428
 4240TIP3    H234212   0.826   5.193   5.893  0.9363  0.4916  0.1374
 4241TIP3   OH234213   0.073   3.641   2.382  0.0905  0.2481  0.0516
 4241TIP3    H134214   0.095   3.727   2.345  0.4271  0.1299 -0.0300
 4241TIP3    H234215   0.028   3.661   2.464  0.9438  0.5042  0.4752
 4242TIP3   OH234216   6.642   3.950   0.502  0.5167 -0.9719 -0.1703
 4242TIP3    H134217   6.678   4.004   0.572  0.4792  0.3906 -1.1569
 4242TIP3    H234218   6.570   3.902   0.542  0.4663 -0.1800  0.6996
 4243TIP3   OH234219   2.844   5.317  13.470  0.0446  0.1166  0.3156
 4243TIP3    H134220   2.896   5.275  13.401 -2.0900 -1.8463 -0.2273
 4243TIP3    H234221   2.793   5.384  13.425 -1.5199 -1.3178 -0.1624
 4244TIP3   OH234222   1.506   0.449  14.582  0.5507 -0.0430  0.5357
 4244TIP3    H134223   1.425   0.485  14.546 -0.0993  0.5273  2.4010
 4244TIP3    H234224   1.490   0.355  14.587 -0.8519  0.2147  2.6127
 4245TIP3   OH234225   2.750   3.824  14.767  0.1476  0.6284 -0.3913
 4245TIP3    H134226   2.838   3.812  14.802  0.3706  0.6243 -0.9530
 4245TIP3    H234227   2.699   3.751  14.804  0.2198  0.9831  0.4347
 4246TIP3   OH234228   6.051   6.555  11.513  0.6502 -0.3412 -0.1857
 4246TIP3    H134229   5.988   6.509  11.570 -0.1007  1.2118  0.3160
 4246TIP3    H234230   6.002   6.572  11.433  0.9427 -0.4658 -0.3912
 4247TIP3   OH234231   1.441   3.388   1.510  0.1825  0.7147 -0.0675
 4247TIP3    H134232   1.458   3.465   1.457 -0.7333  1.2219  0.3602
 4247TIP3    H234233   1.528   3.359   1.539  0.4295  2.9377  1.6544
 4248TIP3   OH234234   1.076   0.291  15.560 -0.1386  0.1868 -0.6180
 4248TIP3    H134235   1.035   0.277  15.646 -3.2335 -0.5798 -2.0808
 4248TIP3    H234236   1.094   0.202  15.528  0.5555  0.4490 -0.9689
 4249TIP3   OH234237   6.389   5.907  14.176 -0.4114  0.3798 -0.2414
 4249TIP3    H134238   6.413   5.991  14.216 -0.5811  0.3591 -0.0974
 4249TIP3    H234239   6.463   5.887  14.118  0.1543  0.0838  0.5568
 4250TIP3   OH234240   5.963   5.860   1.095  0.2620 -0.3828  0.0077
 4250TIP3    H134241   5.890   5.913   1.065  1.7073  1.6379 -0.0870
 4250TIP3    H234242   5.944   5.772   1.061 -1.5384  0.3249 -0.9386
 4251TIP3   OH234243   6.766   0.143  12.562  0.1058  0.3334  0.2755
 4251TIP3    H134244   6.749   0.068  12.619 -2.5130  1.0119  0.5212
 4251TIP3    H234245   6.703   0.209  12.590  1.1722  2.0025 -1.0787
 4252TIP3   OH234246   5.069   1.213   3.166 -0.0345 -1.1538  0.8586
 4252TIP3    H134247   5.086   1.122   3.143  0.3654 -0.8684 -0.0376
 4252TIP3    H234248   5.019   1.247   3.092 -0.3877 -0.7044  1.2943
 4253TIP3   OH234249   4.491   3.016   1.076  0.6647 -0.5380  0.0451
 4253TIP3    H134250   4.528   3.088   1.025  3.2672 -0.5519  1.7742
 4253TIP3    H234251   4.407   2.999   1.034  0.6355  2.4481 -1.3965
 4254TIP3   OH234252   1.092   5.196   4.785 -0.2708  0.4350 -0.3833
 4254TIP3    H134253   1.042   5.154   4.854 -0.0274 -0.1429 -0.5533
 4254TIP3    H234254   1.177   5.214   4.824 -1.1081  3.0392  0.4874
 4255TIP3   OH234255   3.238   0.779   2.988 -0.0123 -0.0899 -0.6989
 4255TIP3    H134256   3.240   0.683   2.979  1.6758 -0.0583 -1.0400
 4255TIP3    H234257   3.160   0.806   2.940 -1.4992 -1.4053  0.8617
 4256TIP3   OH234258   4.513   0.725  16.977  0.0994 -0.3907  0.1192
 4256TIP3    H134259   4.464   0.645  16.993  0.6583 -0.7376  0.1085
 4256TIP3    H234260   4.570   0.705  16.903  1.4203 -0.5130  1.1473
 4257TIP3   OH234261   2.810   0.647   1.221 -0.0913  0.3060  0.1221
 4257TIP3    H134262   2.868   0.595   1.164  0.7173  0.2132  1.0101
 4257TIP3    H234263   2.724   0.606   1.212  0.3140 -0.5357 -0.0073
 4258TIP3   OH234264   3.190   6.392  16.784 -0.4340 -0.0832  0.2988
 4258TIP3    H134265   3.195   6.452  16.858 -0.3214  1.2165 -0.7430
 4258TIP3    H234266   3.097   6.366  16.781 -0.4196 -0.2287  0.9504
 4259TIP3   OH234267   2.335   0.161  14.802 -0.4856 -0.1562 -0.4145
 4259TIP3    H134268   2.350   0.077  14.758  0.3576 -0.0277 -0.3947
 4259TIP3    H234269   2.295   0.138  14.885  0.0374 -0.5680 -0.2726
 4260TIP3   OH234270   1.160   6.782  12.893 -0.4413  0.2184  0.3634
 4260TIP3    H134271   1.219   6.796  12.966  0.0623  0.2256 -0.0432
 4260TIP3    H234272   1.199   6.830  12.820 -0.4413 -0.5503 -0.1590
 4261TIP3   OH234273   5.598   6.814   1.299 -0.1147 -0.0797 -0.0470
 4261TIP3    H134274   5.600   6.771   1.384 -0.2294  0.0952  0.0416
 4261TIP3    H234275   5.683   6.858   1.292  0.3162 -0.9362 -0.4520
 4262TIP3   OH234276   3.871   2.315   0.080  0.1595 -0.2921  0.2732
 4262TIP3    H134277   3.838   2.404   0.065 -1.1087 -0.7595  0.1675
 4262TIP3    H234278   3.928   2.323   0.156  0.8762  0.7963 -0.3535
 4263TIP3   OH234279   3.361   6.141   1.202  0.0577 -0.4467  0.2957
 4263TIP3    H134280   3.371   6.180   1.288 -0.9741 -0.1738  0.3072
 4263TIP3    H234281   3.430   6.075   1.197  0.9359  0.4124  0.8204
 4264TIP3   OH234282   6.339   4.637   1.118  0.3416  0.0229 -0.3539
 4264TIP3    H134283   6.418   4.681   1.149  0.5717  1.1551 -2.4216
 4264TIP3    H234284   6.363   4.602   1.033 -1.3544  0.2922 -0.9654
 4265TIP3   OH234285   1.834   3.124   5.573  0.3422 -0.3019  0.0141
 4265TIP3    H134286   1.790   3.064   5.634 -2.6009  0.4011 -1.2176
 4265TIP3    H234287   1.832   3.209   5.617 -0.3808 -0.1023 -0.3799
 4266TIP3   OH234288   3.314   5.861  13.248  0.4296  0.2650 -0.0413
 4266TIP3    H134289   3.271   5.809  13.316 -0.9669  0.1148 -0.9914
 4266TIP3    H234290   3.247   5.924  13.222  0.4788 -0.4884 -2.1330
 4267TIP3   OH234291   5.811   6.459  16.540  0.4958  0.4374  0.1445
 4267TIP3    H134292   5.906   6.452  16.548  0.4199  0.8607  1.8936
 4267TIP3    H234293   5.798   6.509  16.460  1.7636  0.5375 -0.0257
 4268TIP3   OH234294   1.663   6.290  14.024  0.0520 -0.0226 -0.2747
 4268TIP3    H134295   1.723   6.363  14.007  0.7858 -0.7137 -0.7005
 4268TIP3    H234296   1.709   6.213  13.992  0.0719 -0.9485  1.8235
 4269TIP3   OH234297   5.726   0.085   5.701  0.2760 -0.6855  0.3751
 4269TIP3    H134298   5.820   0.074   5.714  0.8108  0.9699 -1.5563
 4269TIP3    H234299   5.688   0.001   5.728  2.4002 -1.7628  0.2094
 4270TIP3   OH234300   4.330   6.020  12.657 -0.0082  0.1304  0.5727
 4270TIP3    H134301   4.380   5.948  12.618  1.0469  0.4560  1.2659
 4270TIP3    H234302   4.260   6.038  12.594  1.2037  0.1701 -0.8031
 4271TIP3   OH234303   0.310   6.520   5.471 -0.3652 -0.3800  0.1357
 4271TIP3    H134304   0.298   6.462   5.395 -0.3121  1.2439 -1.1606
 4271TIP3    H234305   0.232   6.576   5.471  0.8861  1.4593 -0.4259
 4272TIP3   OH234306   4.995   0.779  11.835 -0.1630 -0.3932 -0.2188
 4272TIP3    H134307   4.910   0.735  11.828  0.4746 -1.5121 -1.4262
 4272TIP3    H234308   5.011   0.813  11.747 -0.4524  2.0096  0.5930
 4273TIP3   OH234309   1.504   2.846   1.999 -0.2976 -0.2779  0.1838
 4273TIP3    H134310   1.515   2.753   2.021 -0.0333 -0.7585 -1.8318
 4273TIP3    H234311   1.550   2.892   2.069 -0.5432 -1.6386  1.3072
 4274TIP3   OH234312   4.378   3.122  13.000  0.7285  1.1597  0.3496
 4274TIP3    H134313   4.449   3.109  12.936  0.1882  1.3475 -0.2991
 4274TIP3    H234314   4.331   3.038  13.000  0.1149  1.4979 -0.2659
 4275TIP3   OH234315   0.969   5.392   1.824  0.5551 -0.0983  0.1394
 4275TIP3    H134316   0.876   5.407   1.805  1.0324  2.7442 -0.4394
 4275TIP3    H234317   0.974   5.300   1.847 -2.5903 -0.1387  1.1997
 4276TIP3   OH234318   6.583   6.517  16.765  0.3825 -0.0016  0.1461
 4276TIP3    H134319   6.576   6.449  16.832  0.6200 -1.1227 -0.9341
 4276TIP3    H234320   6.523   6.585  16.793  1.4781  0.1906  2.2147
 4277TIP3   OH234321   2.159   2.689  16.553 -0.0785  0.2205  0.1554
 4277TIP3    H134322   2.199   2.745  16.619  0.2399 -0.3042  0.4185
 4277TIP3    H234323   2.229   2.672  16.490 -0.6122  1.4410 -0.8243
 4278TIP3   OH234324   4.279   4.049   4.723  0.5436 -0.1661 -0.2003
 4278TIP3    H134325   4.197   4.038   4.771  1.4591 -0.1954  1.4329
 4278TIP3    H234326   4.255   4.040   4.630 -1.4727  0.9997  0.1613
 4279TIP3   OH234327   1.062   3.321   3.890  0.0854 -0.2249 -0.5381
 4279TIP3    H134328   1.048   3.228   3.906 -0.5623  0.2457  2.0575
 4279TIP3    H234329   0.975   3.357   3.876  0.0465  0.3962  1.1617
 4280TIP3   OH234330   0.982   5.459   0.874 -0.0548 -0.1640 -0.2326
 4280TIP3    H134331   1.046   5.391   0.895  0.1601  0.2767  0.5864
 4280TIP3    H234332   0.933   5.424   0.799 -0.3431 -1.4787  0.5346
 4281TIP3   OH234333   6.315   1.783   0.849  0.5390  0.2044  0.0242
 4281TIP3    H134334   6.291   1.857   0.904  1.7724  0.6783 -0.0509
 4281TIP3    H234335   6.338   1.822   0.764 -0.6710 -0.4547 -0.6317
 4282TIP3   OH234336   4.478   5.458   1.087 -0.5576  0.1020  0.0672
 4282TIP3    H134337   4.494   5.390   1.152 -0.4788 -1.8541 -1.8663
 4282TIP3    H234338   4.561   5.505   1.081  0.3686 -1.5189 -0.5622
 4283TIP3   OH234339   4.532   4.844   4.586  0.1301 -0.1087 -0.1265
 4283TIP3    H134340   4.522   4.937   4.563  0.8759  0.2665  1.0069
 4283TIP3    H234341   4.484   4.834   4.668  1.1694 -0.4142  0.4540
 4284TIP3   OH234342   3.858   6.097  12.872  0.7051 -0.1173 -0.0749
 4284TIP3    H134343   3.891   6.014  12.837  1.4326  0.1053  0.0828
 4284TIP3    H234344   3.902   6.107  12.957 -0.3286 -0.1844  0.4857
 4285TIP3   OH234345   4.507   3.536   5.699  0.0131 -0.0995 -0.0073
 4285TIP3    H134346   4.537   3.458   5.746 -2.4359 -1.0534  0.0701
 4285TIP3    H234347   4.574   3.550   5.632  2.8192  0.3709  2.6074
 4286TIP3   OH234348   4.332   3.685  13.437 -0.5997 -0.2080  0.8181
 4286TIP3    H134349   4.375   3.623  13.378 -0.7369  0.3444  0.1223
 4286TIP3    H234350   4.242   3.690  13.404 -0.0585  2.0064 -0.5376
 4287TIP3   OH234351   5.061   4.774   4.727  0.5477 -0.9458  0.4667
 4287TIP3    H134352   5.112   4.710   4.777 -0.9938 -1.2846  1.6964
 4287TIP3    H234353   4.972   4.739   4.727 -0.3232  1.0922  1.0496
 4288TIP3   OH234354   0.132   6.775   2.250  0.0417 -0.0671 -0.0612
 4288TIP3    H134355   0.059   6.789   2.310  0.0566 -0.3053  0.0141
 4288TIP3    H234356   0.115   6.689   2.212  0.2436 -0.0885 -0.1024
 4289TIP3   OH234357   1.135   2.068   4.744 -0.2648 -0.3335 -0.1112
 4289TIP3    H134358   1.093   1.991   4.705  0.6129 -1.1568  0.4895
 4289TIP3    H234359   1.161   2.038   4.831  3.1182 -0.5274 -1.0184
 4290TIP3   OH234360   6.170   4.568   4.176 -0.2419 -0.0531 -0.2212
 4290TIP3    H134361   6.131   4.625   4.109  2.0595 -1.2375 -2.8040
 4290TIP3    H234362   6.140   4.480   4.152 -0.4175 -0.3720  1.1300
 4291TIP3   OH234363   1.389   5.413  12.956 -0.1063  0.2609  0.1434
 4291TIP3    H134364   1.476   5.406  12.994  0.0772  0.7258 -0.1820
 4291TIP3    H234365   1.386   5.501  12.918 -0.7323  0.2704  0.1957
 4292TIP3   OH234366   3.805   2.220  11.400 -0.4241  0.1797  0.1283
 4292TIP3    H134367   3.824   2.173  11.481 -1.0408  0.6944  0.5782
 4292TIP3    H234368   3.710   2.226  11.398 -0.3380  2.7147  0.8542
 4293TIP3   OH234369   1.323   3.821  12.250  0.3657 -0.0538  0.4147
 4293TIP3    H134370   1.245   3.869  12.279  0.1710 -0.5117  0.6460
 4293TIP3    H234371   1.381   3.890  12.216 -0.3221  0.2417 -0.1944
 4294TIP3   OH234372   6.543   1.968   1.203 -0.2201  0.0774 -0.2889
 4294TIP3    H134373   6.525   1.874   1.199 -0.7021  0.1944 -1.8846
 4294TIP3    H234374   6.460   2.007   1.231  0.0810  0.0092  0.7108
 4295TIP3   OH234375   2.644   1.990   4.427  0.4042 -0.7421 -0.2209
 4295TIP3    H134376   2.674   2.080   4.437 -0.6534 -0.5158  1.1867
 4295TIP3    H234377   2.711   1.937   4.472  2.7517 -1.0978 -3.6658
 4296TIP3   OH234378   3.589   2.289  15.998  0.4002 -0.5593 -0.2049
 4296TIP3    H134379   3.642   2.287  16.077  1.1686 -0.5511 -0.7083
 4296TIP3    H234380   3.584   2.381  15.974  0.8081 -0.6296 -0.5787
 4297TIP3   OH234381   5.954   1.984  16.647 -0.2333  0.3062  0.1982
 4297TIP3    H134382   6.018   2.033  16.699 -0.3037  1.9180 -1.1694
 4297TIP3    H234383   5.910   1.928  16.711  0.6820  1.1511  1.6321
 4298TIP3   OH234384   0.277   4.929   5.765 -0.9656  0.8582  0.3354
 4298TIP3    H134385   0.251   5.006   5.715 -1.6549  0.4234  0.0116
 4298TIP3    H234386   0.264   4.954   5.856 -1.6236  0.9787  0.2141
 4299TIP3   OH234387   0.763   1.286  13.630 -0.0328 -0.8065  0.3316
 4299TIP3    H134388   0.771   1.191  13.636 -0.3746 -0.8015  0.9100
 4299TIP3    H234389   0.823   1.311  13.560  0.8735 -1.3299  0.9035
 4300TIP3   OH234390   1.045   3.333   0.124  0.3525 -0.3303  0.2150
 4300TIP3    H134391   1.123   3.384   0.103  0.2364 -0.2217  0.0473
 4300TIP3    H234392   1.008   3.309   0.039 -0.1107  0.0969  0.2887
 4301TIP3   OH234393   2.414   3.557  17.185 -0.0387  0.1432  0.1355
 4301TIP3    H134394   2.384   3.632  17.132  1.9547  0.3291 -0.8236
 4301TIP3    H234395   2.346   3.490  17.171 -0.2609  0.6588 -1.6124
 4302TIP3   OH234396   3.521   5.455   0.119  0.5152  0.2853 -0.1048
 4302TIP3    H134397   3.542   5.486   0.207  1.4626 -0.1900 -0.1539
 4302TIP3    H234398   3.473   5.373   0.134  1.2837 -0.1668 -0.0211
 4303TIP3   OH234399   5.818   4.389   3.659  0.0847  0.0670  0.4332
 4303TIP3    H134400   5.862   4.377   3.575  0.1834 -0.2018  0.5248
 4303TIP3    H234401   5.725   4.388   3.637  0.1182  0.5874  0.2461
 4304TIP3   OH234402   1.754   2.077  16.934 -0.2526  0.1963  0.0073
 4304TIP3    H134403   1.670   2.084  16.889  0.1178 -1.5082 -1.0755
 4304TIP3    H234404   1.741   2.122  17.017 -2.1593  0.1831 -0.2347
 4305TIP3   OH234405   6.814   1.750  16.570 -0.3746 -0.4610 -0.2210
 4305TIP3    H134406   6.746   1.768  16.505 -1.9503 -1.4271  1.1046
 4305TIP3    H234407   6.832   1.836  16.610 -0.4303 -0.1188 -0.9058
 4306TIP3   OH234408   1.429   4.615   3.195  0.0200  0.5596  0.4597
 4306TIP3    H134409   1.378   4.670   3.135 -0.4545 -0.9973 -0.6087
 4306TIP3    H234410   1.512   4.662   3.205  0.3727  0.5669 -1.9454
 4307TIP3   OH234411   5.881   4.629   0.607  0.0670  0.1368 -0.4701
 4307TIP3    H134412   5.960   4.657   0.560 -0.2960  1.5265 -0.3040
 4307TIP3    H234413   5.837   4.570   0.547  1.7059 -1.4640 -0.1786
 4308TIP3   OH234414   4.244   3.564   3.597 -0.2476 -0.0009 -0.4682
 4308TIP3    H134415   4.223   3.527   3.683  0.4280 -2.6839 -1.3527
 4308TIP3    H234416   4.339   3.579   3.600 -0.3775  0.8686 -0.4348
 4309TIP3   OH234417   4.012   3.842   0.366 -0.2374 -0.2775  0.2574
 4309TIP3    H134418   4.055   3.866   0.448 -2.3591 -0.5038  1.4958
 4309TIP3    H234419   4.024   3.919   0.309 -0.5261  0.7376  1.5285
 4310TIP3   OH234420   1.692   4.103  12.298  0.1556 -0.3177 -0.5410
 4310TIP3    H134421   1.784   4.115  12.276  0.0191 -0.0379 -0.9621
 4310TIP3    H234422   1.649   4.090  12.213 -0.0911 -1.1334 -0.2998
 4311TIP3   OH234423   5.430   2.055  11.981  0.6269  0.0022  0.1402
 4311TIP3    H134424   5.505   2.016  11.937  1.6001  2.3311 -0.4062
 4311TIP3    H234425   5.463   2.082  12.067 -0.5451 -2.0470  1.3103
 4312TIP3   OH234426   6.229   3.321   3.330  0.0966  0.0728 -0.3085
 4312TIP3    H134427   6.264   3.327   3.418  0.0058  2.7046 -0.3723
 4312TIP3    H234428   6.147   3.272   3.340 -0.0662  0.5899  1.1373
 4313TIP3   OH234429   3.985   3.398  15.988  0.0144 -0.0044  0.3710
 4313TIP3    H134430   4.023   3.318  16.026 -2.3955 -1.4660 -0.0850
 4313TIP3    H234431   3.961   3.374  15.899 -1.0003  1.1324  0.3059
 4314TIP3   OH234432   4.437   2.921  13.892 -0.5878  0.0112 -0.1048
 4314TIP3    H134433   4.456   2.990  13.828 -0.2873  0.2732  0.2582
 4314TIP3    H234434   4.518   2.914  13.943 -0.6359 -0.5805 -0.1102
 4315TIP3   OH234435   4.739   3.746  13.915 -0.1126 -0.1364  0.4473
 4315TIP3    H134436   4.819   3.768  13.866 -0.6261  0.7221 -0.0370
 4315TIP3    H234437   4.684   3.701  13.851 -1.1863  1.8534 -0.0938
 4316TIP3   OH234438   1.559   0.912   2.115 -0.3545 -0.0797  0.6075
 4316TIP3    H134439   1.564   0.839   2.054 -0.1497 -0.7394  1.3903
 4316TIP3    H234440   1.576   0.989   2.062  2.3337 -0.8222  0.2196
 4317TIP3   OH234441   1.785   0.028  16.552  0.7135 -0.0492 -0.7074
 4317TIP3    H134442   1.850  -0.013  16.608  0.3820  1.5638  0.9516
 4317TIP3    H234443   1.832   0.046  16.470  1.9342 -0.1765 -0.0561
 4318TIP3   OH234444   5.600   2.150  13.317 -0.5735  0.0421  0.0594
 4318TIP3    H134445   5.506   2.140  13.303 -0.6799  0.5634  0.3706
 4318TIP3    H234446   5.640   2.126  13.233 -0.8030 -2.6978  0.6165
 4319TIP3   OH234447   3.844   3.627   5.175  0.1971 -0.1361  0.8217
 4319TIP3    H134448   3.816   3.714   5.147  1.1130 -0.1238 -0.1188
 4319TIP3    H234449   3.927   3.640   5.220  0.5686 -0.5448  0.2847
 4320TIP3   OH234450   1.509   6.797  12.883  0.7239 -0.2249 -0.1763
 4320TIP3    H134451   1.476   6.754  12.804 -2.0532  0.4517  0.5032
 4320TIP3    H234452   1.539   6.725  12.939  2.1366 -0.7455 -1.5521
 4321TIP3   OH234453   6.633   0.003   3.432  0.6561  0.1991 -0.3403
 4321TIP3    H134454   6.661  -0.061   3.498 -1.9980  1.1974  1.9425
 4321TIP3    H234455   6.633  -0.046   3.350 -0.5341 -2.6054  1.1842
 4322TIP3   OH234456   6.120   4.948   3.473 -0.3007  0.1522 -0.2996
 4322TIP3    H134457   6.195   4.933   3.530 -1.0582  1.1147  1.0199
 4322TIP3    H234458   6.153   5.006   3.404 -0.0765  1.5065  0.9095
 4323TIP3   OH234459   4.191   4.380   4.351  0.4345  0.6123 -0.2372
 4323TIP3    H134460   4.245   4.459   4.359  0.7970  0.2749  0.8007
 4323TIP3    H234461   4.117   4.407   4.296 -1.1206  2.6265  2.5603
 4324TIP3   OH234462   4.628   0.437  15.690  0.0729 -0.5753  0.3787
 4324TIP3    H134463   4.673   0.470  15.613 -0.8769 -0.5252 -0.1807
 4324TIP3    H234464   4.685   0.459  15.763  0.7239 -0.1177 -0.2513
 4325TIP3   OH234465   2.282   3.481  13.829 -0.1414 -0.6420 -1.0067
 4325TIP3    H134466   2.325   3.397  13.815  0.3910 -0.1298 -2.7540
 4325TIP3    H234467   2.334   3.524  13.896 -1.7237 -2.5296  1.6389
 4326TIP3   OH234468   3.448   2.313  14.535  0.5478 -0.2280  0.0912
 4326TIP3    H134469   3.397   2.327  14.614 -0.4148 -0.2998 -0.4996
 4326TIP3    H234470   3.424   2.226  14.505 -0.0482  0.2725 -0.9463
 4327TIP3   OH234471   2.139   2.717   3.105 -0.1316  0.3419 -0.0403
 4327TIP3    H134472   2.225   2.727   3.147  0.1763  0.5064 -0.7008
 4327TIP3    H234473   2.077   2.733   3.176  0.3745  2.2477  0.0310
 4328TIP3   OH234474   6.185   5.038   2.227  0.5322  0.7652 -0.0101
 4328TIP3    H134475   6.125   5.000   2.290  1.4368 -0.3033  0.2328
 4328TIP3    H234476   6.258   5.071   2.280  2.0910 -1.5877 -0.5226
 4329TIP3   OH234477   2.497   1.003   1.743 -0.0733 -0.5059 -0.0689
 4329TIP3    H134478   2.422   0.966   1.790  0.7759 -0.3455  1.4994
 4329TIP3    H234479   2.530   1.071   1.802  0.3307  0.5508 -1.4726
 4330TIP3   OH234480   5.848   4.501   0.342 -0.6323  0.5664 -0.0092
 4330TIP3    H134481   5.939   4.501   0.312 -0.8381 -1.7767 -0.9287
 4330TIP3    H234482   5.800   4.551   0.276 -0.0877  1.4520  0.2583
 4331TIP3   OH234483   3.052   5.065   4.371  0.5889 -0.5701 -0.1123
 4331TIP3    H134484   3.063   5.037   4.280 -0.0635 -1.9887  0.2262
 4331TIP3    H234485   2.959   5.084   4.380  1.1746  3.8298 -0.8496
 4332TIP3   OH234486   5.134   1.879   4.779 -0.1079 -0.6110 -0.1194
 4332TIP3    H134487   5.110   1.911   4.692  0.0708  2.0944  0.7338
 4332TIP3    H234488   5.058   1.898   4.834  0.5853 -0.3134  0.7592
 4333TIP3   OH234489   5.335   0.895  11.459 -0.0606 -0.1043 -0.0853
 4333TIP3    H134490   5.337   0.943  11.377 -2.2127 -1.0709 -0.7597
 4333TIP3    H234491   5.326   0.962  11.527 -1.5983  0.5572 -0.9038
 4334TIP3   OH234492   4.523   2.162   4.868 -0.3043 -0.5292 -0.3295
 4334TIP3    H134493   4.522   2.246   4.914  0.0351 -0.6343 -0.1221
 4334TIP3    H234494   4.610   2.125   4.887 -0.4410 -0.9154 -0.4348
 4335TIP3   OH234495   1.913   2.416  13.429 -0.1785  0.1486 -0.2783
 4335TIP3    H134496   1.931   2.322  13.429  1.0197  0.3356  1.5749
 4335TIP3    H234497   1.987   2.454  13.381  0.4620  0.3012  0.8098
 4336TIP3   OH234498   0.626   4.616   4.284 -0.4218  0.3225  0.3041
 4336TIP3    H134499   0.641   4.538   4.232  0.8578  1.6768 -1.5005
 4336TIP3    H234500   0.692   4.612   4.353  0.3782  0.3360 -0.4453
 4337TIP3   OH234501   5.621   4.627  16.308  0.4454 -0.1483 -0.2183
 4337TIP3    H134502   5.648   4.629  16.216 -0.2896  0.9380 -0.4326
 4337TIP3    H234503   5.600   4.719  16.328  1.9606 -0.1235  1.4560
 4338TIP3   OH234504   4.526   1.504  11.471 -0.2783 -0.5965 -0.8115
 4338TIP3    H134505   4.525   1.452  11.391 -2.2342 -3.1549  0.7553
 4338TIP3    H234506   4.497   1.445  11.540 -2.0840  2.3735  1.2511
 4339TIP3   OH234507   2.646   3.980  15.526  0.6389  0.4587  0.5270
 4339TIP3    H134508   2.722   3.984  15.585  1.0088 -1.0012  0.1890
 4339TIP3    H234509   2.606   3.895  15.545 -1.4806  1.5676  1.3464
 4340TIP3   OH234510   1.545   1.626   6.392 -0.0289  0.5851  0.4906
 4340TIP3    H134511   1.571   1.686   6.322  0.7071  0.2635  0.4764
 4340TIP3    H234512   1.623   1.621   6.448  0.5251 -1.6182 -0.3863
 4341TIP3   OH234513   3.274   4.806  15.255  0.2132 -0.0380 -0.3349
 4341TIP3    H134514   3.360   4.793  15.295 -1.0191  0.2807  2.6975
 4341TIP3    H234515   3.224   4.728  15.279 -0.8725  0.6038 -0.4378
 4342TIP3   OH234516   2.656   1.078   2.348 -0.3225  0.1743 -0.0235
 4342TIP3    H134517   2.570   1.119   2.351 -0.5660 -0.2567 -0.7651
 4342TIP3    H234518   2.657   1.029   2.265  1.0340  1.0656 -0.5749
 4343TIP3   OH234519   2.260   3.324   3.195  0.3428  0.0105 -0.5444
 4343TIP3    H134520   2.330   3.338   3.259  1.1531 -0.5830 -1.2761
 4343TIP3    H234521   2.288   3.372   3.117  0.4744 -1.1212 -1.2095
 4344TIP3   OH234522   1.557   5.234  11.485  0.5105 -0.0693  0.6690
 4344TIP3    H134523   1.602   5.183  11.417  0.1820 -0.1192  0.4853
 4344TIP3    H234524   1.491   5.284  11.437  0.3208 -0.0531  0.9423
 4345TIP3   OH234525   3.446   5.401  14.848 -0.1609  0.2481  0.0474
 4345TIP3    H134526   3.431   5.309  14.872 -0.7183 -0.1797 -1.8274
 4345TIP3    H234527   3.358   5.437  14.838  0.0602  0.9804  0.6570
 4346TIP3   OH234528   4.904   3.045  13.475 -0.0012  0.2787  0.1376
 4346TIP3    H134529   4.922   2.991  13.399  0.5777 -1.3587  1.3726
 4346TIP3    H234530   4.815   3.022  13.500  0.1003  0.1867  0.4216
 4347TIP3   OH234531   2.946   5.229   0.150 -0.3620  0.2610 -0.1194
 4347TIP3    H134532   3.019   5.248   0.209 -0.1571 -0.8016 -0.0160
 4347TIP3    H234533   2.952   5.296   0.082 -0.2827  1.1794  0.7610
 4348TIP3   OH234534   1.040   0.604   1.673  0.1927  0.5384  0.1492
 4348TIP3    H134535   0.972   0.597   1.740 -0.9176 -3.7401 -1.1184
 4348TIP3    H234536   1.122   0.592   1.721 -0.2068  1.7158  1.1901
 4349TIP3   OH234537   4.178   3.179  16.063 -0.3868  0.3271  0.7674
 4349TIP3    H134538   4.202   3.093  16.098  0.8736  0.8545  1.2835
 4349TIP3    H234539   4.260   3.229  16.066 -0.8812  1.2476 -0.4175
 4350TIP3   OH234540   3.815   4.051   2.090 -0.0176  0.2053 -0.5867
 4350TIP3    H134541   3.909   4.068   2.099 -0.0572  1.1227 -1.6059
 4350TIP3    H234542   3.774   4.120   2.143 -0.1263  0.7289 -1.3401
 4351TIP3   OH234543   4.814   3.596  14.268  0.2793 -0.4586 -0.5840
 4351TIP3    H134544   4.819   3.686  14.236  1.9656 -0.0475  0.6573
 4351TIP3    H234545   4.723   3.571  14.255  0.1702  0.7497 -2.6776
 4352TIP3   OH234546   2.758   5.912  16.960 -0.8804  0.5655  0.6049
 4352TIP3    H134547   2.672   5.898  16.922 -0.2180  0.9143 -1.1423
 4352TIP3    H234548   2.752   5.998  17.001 -1.3202  0.6616  0.3488
 4353TIP3   OH234549   5.024   1.556  13.726  0.2821 -0.2612  0.2945
 4353TIP3    H134550   5.007   1.523  13.638  0.7993  0.0627  0.0675
 4353TIP3    H234551   5.084   1.492  13.765  2.5977  1.1702 -0.7177
 4354TIP3   OH234552   5.573   3.879   1.489  0.2427  0.0286 -0.2454
 4354TIP3    H134553   5.495   3.887   1.435  0.0401  1.0625  0.1765
 4354TIP3    H234554   5.550   3.922   1.571  0.8516 -0.7315  0.3354
 4355TIP3   OH234555   4.157   4.467  14.881 -0.0436  0.0524  0.4103
 4355TIP3    H134556   4.089   4.430  14.826  0.6706  1.0650 -1.2573
 4355TIP3    H234557   4.176   4.552  14.842  0.2829  1.0005  2.4570
 4356TIP3   OH234558   1.099   2.049  11.175 -0.7215 -0.4413 -1.0472
 4356TIP3    H134559   1.032   2.026  11.112 -1.3799  0.1086 -0.5717
 4356TIP3    H234560   1.065   2.127  11.219 -0.2167 -0.7125 -0.1300
 4357TIP3   OH234561   5.248   1.780  14.921 -0.0958 -0.2559  0.6400
 4357TIP3    H134562   5.248   1.843  14.849 -0.3900 -0.8178  0.1435
 4357TIP3    H234563   5.326   1.801  14.971  0.3630 -0.1540 -0.1067
 4358TIP3   OH234564   3.336   5.646   0.571  0.3833  0.3717  0.3766
 4358TIP3    H134565   3.305   5.648   0.662 -0.5588 -0.4840  0.0961
 4358TIP3    H234566   3.429   5.669   0.577  0.6610 -0.9463  1.7197
 4359TIP3   OH234567   6.333   3.011   0.132  0.0462  0.0241  0.1541
 4359TIP3    H134568   6.323   3.076   0.201  0.1022  0.0792  0.1102
 4359TIP3    H234569   6.299   2.930   0.170  0.6429 -0.0843  0.4517
 4360TIP3   OH234570   3.516   1.461   4.702  0.0955  0.0815  0.2347
 4360TIP3    H134571   3.508   1.420   4.788  0.7584  0.6333  0.5686
 4360TIP3    H234572   3.514   1.387   4.640 -1.1099 -0.2585  0.6653
 4361TIP3   OH234573   1.733   3.366   1.617  0.2048 -0.2439 -0.2654
 4361TIP3    H134574   1.805   3.343   1.676 -0.0241 -0.7100 -0.1672
 4361TIP3    H234575   1.759   3.450   1.579  0.1452  0.3033  0.8549
 4362TIP3   OH234576   3.124   1.048  16.297 -0.1741 -0.4672  0.2495
 4362TIP3    H134577   3.196   1.068  16.238 -0.2687 -1.3407 -0.1776
 4362TIP3    H234578   3.100   0.958  16.276 -1.1254 -0.3245  0.6676
 4363TIP3   OH234579   5.291   2.159  11.760 -0.6562 -0.1318  0.2162
 4363TIP3    H134580   5.347   2.120  11.693 -1.5766 -1.1028 -0.0070
 4363TIP3    H234581   5.327   2.127  11.843  1.0358  1.7774  0.3062
 4364TIP3   OH234582   2.538   3.841  17.137  0.2386  0.4617 -0.7245
 4364TIP3    H134583   2.624   3.885  17.135  1.2660 -1.4491 -1.5718
 4364TIP3    H234584   2.553   3.761  17.188 -1.8196  1.4428  1.5838
 4365TIP3   OH234585   0.407   2.241  12.148 -0.0267  0.7091 -0.4122
 4365TIP3    H134586   0.312   2.242  12.144 -0.0889  0.3372  0.6700
 4365TIP3    H234587   0.428   2.265  12.238  1.0198  3.6723 -1.3278
 4366TIP3   OH234588   4.481   4.021   4.323  0.1852  0.0796 -0.1804
 4366TIP3    H134589   4.393   4.050   4.347 -0.1221 -0.1779 -0.9377
 4366TIP3    H234590   4.527   4.013   4.406  0.3750  2.9132  0.0685
 4367TIP3   OH234591   6.043   2.362   4.383  0.3256  0.2187 -0.3376
 4367TIP3    H134592   6.027   2.417   4.460  1.7253  0.1675  0.0353
 4367TIP3    H234593   6.051   2.424   4.310  0.2601  0.3753 -0.2116
 4368TIP3   OH234594   1.133   6.466  13.177  0.5185 -0.2229 -0.3450
 4368TIP3    H134595   1.172   6.403  13.237  1.7451  0.9517  0.1524
 4368TIP3    H234596   1.181   6.455  13.095 -1.0237 -1.6898 -1.1177
 4369TIP3   OH234597   0.888   3.697   3.913  0.0719  0.0084 -0.8246
 4369TIP3    H134598   0.978   3.712   3.942 -0.2525 -0.9964  0.8382
 4369TIP3    H234599   0.868   3.608   3.943 -0.8354 -0.5443 -2.9193
 4370TIP3   OH234600   4.318   0.458   0.060 -0.0229 -0.6623  0.0572
 4370TIP3    H134601   4.393   0.486   0.113 -0.4439  1.0560 -0.1880
 4370TIP3    H234602   4.268   0.401   0.118  0.8152 -0.8101  0.6569
 4371TIP3   OH234603   0.962   0.177   3.330  0.2022  0.2679  0.1078
 4371TIP3    H134604   0.953   0.255   3.385  1.0403  0.4105  0.0619
 4371TIP3    H234605   0.887   0.123   3.352 -0.5230  1.1954 -0.0266
 4372TIP3   OH234606   5.670   4.054  14.820 -0.3282  0.5203  0.6920
 4372TIP3    H134607   5.709   4.062  14.733  0.4276 -0.9538  0.8715
 4372TIP3    H234608   5.576   4.047  14.804 -0.1847  0.1942 -0.0233
 4373TIP3   OH234609   3.609   3.963   0.969 -0.2077 -0.2982 -0.2742
 4373TIP3    H134610   3.666   3.896   1.006  1.9313  1.0857 -0.8576
 4373TIP3    H234611   3.639   3.975   0.879 -3.3132 -1.4395 -1.6251
 4374TIP3   OH234612   1.825   2.254   5.051  0.3693 -0.1303  0.3336
 4374TIP3    H134613   1.891   2.196   5.089  1.5245  1.0380  0.1546
 4374TIP3    H234614   1.754   2.195   5.026  1.7279 -1.5699 -0.3451
 4375TIP3   OH234615   3.708   4.063  15.527 -0.0716 -0.2621 -0.0554
 4375TIP3    H134616   3.786   4.011  15.547  0.4107  0.1675 -0.7947
 4375TIP3    H234617   3.709   4.133  15.593  0.1262 -0.2988 -0.0187
 4376TIP3   OH234618   6.692   3.557  15.020  0.2992  0.5690  0.3806
 4376TIP3    H134619   6.773   3.539  15.069 -0.7160 -1.3954  1.4332
 4376TIP3    H234620   6.690   3.490  14.952  0.3521  1.6470 -0.7158
 4377TIP3   OH234621   0.716   2.351  16.821 -0.5443 -0.0922  0.1056
 4377TIP3    H134622   0.673   2.426  16.780  0.0152  0.4990  0.6006
 4377TIP3    H234623   0.770   2.388  16.890  0.6466 -0.8330 -0.3955
 4378TIP3   OH234624   5.497   1.079   5.377  1.1443 -0.5090 -0.9020
 4378TIP3    H134625   5.578   1.049   5.418  1.5279  0.3690 -0.9896
 4378TIP3    H234626   5.432   1.015   5.403  1.6210 -0.5898  0.1595
 4379TIP3   OH234627   2.513   6.272  16.437 -0.5327  0.2586  0.2085
 4379TIP3    H134628   2.538   6.364  16.422 -0.3109  0.2842  0.7253
 4379TIP3    H234629   2.545   6.253  16.525  1.1341 -0.8879 -0.5815
 4380TIP3   OH234630   6.704   4.632   2.561 -0.1760 -0.0085  0.8750
 4380TIP3    H134631   6.712   4.637   2.656 -0.3432 -1.0892  0.9556
 4380TIP3    H234632   6.794   4.624   2.530 -0.1093  0.5002  0.9221
 4381TIP3   OH234633   1.769   1.836   5.162 -0.1566 -0.3507 -0.3566
 4381TIP3    H134634   1.773   1.825   5.067 -0.2486  0.8223 -0.5094
 4381TIP3    H234635   1.685   1.879   5.178  0.8960  1.6937 -0.0124
 4382TIP3   OH234636   2.198   4.061   1.783  0.1339  0.4414 -0.5093
 4382TIP3    H134637   2.168   4.028   1.868  0.7106  2.3844  0.4901
 4382TIP3    H234638   2.121   4.105   1.746 -0.2300 -0.7251 -1.2209
 4383TIP3   OH234639   1.563   5.688  15.726  0.3662 -0.3706  0.0391
 4383TIP3    H134640   1.485   5.651  15.766  1.3983 -1.6435  0.9737
 4383TIP3    H234641   1.547   5.682  15.632 -0.6511 -0.5763  0.2121
 4384TIP3   OH234642   2.895   1.749  16.458  0.1563  0.2311  0.2151
 4384TIP3    H134643   2.896   1.768  16.552  0.4017 -1.0965  0.5005
 4384TIP3    H234644   2.951   1.672  16.448  1.4409  1.2988 -1.2563
 4385TIP3   OH234645   4.996   1.666  11.266 -0.1882  0.1608  0.1331
 4385TIP3    H134646   4.933   1.601  11.233 -0.9705  0.6746  0.5857
 4385TIP3    H234647   5.081   1.622  11.259 -0.2888  0.2100 -2.5489
 4386TIP3   OH234648   0.747   1.228  14.084  0.1584 -0.3305 -0.2825
 4386TIP3    H134649   0.652   1.245  14.085 -0.0741 -1.5145 -0.5197
 4386TIP3    H234650   0.781   1.284  14.014 -0.3291  0.2736 -0.0458
 4387TIP3   OH234651   1.589   4.083   4.981 -0.0706 -0.4121  0.0467
 4387TIP3    H134652   1.616   3.998   5.017  0.3724 -0.0557  0.5665
 4387TIP3    H234653   1.571   4.065   4.889  1.1695 -0.8385 -0.1283
 4388TIP3   OH234654   6.556   4.670   3.017  0.4842 -0.2686  0.2948
 4388TIP3    H134655   6.522   4.602   2.959 -1.9168  2.0769 -1.2307
 4388TIP3    H234656   6.640   4.695   2.979 -0.2839  0.0668 -1.2369
 4389TIP3   OH234657   4.215   2.076  10.940  0.1209 -0.0594 -0.5920
 4389TIP3    H134658   4.246   2.125  11.016 -1.4883  0.2036 -0.0625
 4389TIP3    H234659   4.182   2.143  10.880 -0.8240 -0.3732 -0.4553
 4390TIP3   OH234660   6.616   2.573   6.062  0.0447 -0.1432 -0.2216
 4390TIP3    H134661   6.671   2.534   5.993 -1.0625  0.3066 -1.4043
 4390TIP3    H234662   6.632   2.667   6.056 -1.3556  0.0703 -1.0832
 4391TIP3   OH234663   1.983   0.811   3.765 -0.2624  0.0020 -0.1491
 4391TIP3    H134664   2.038   0.817   3.844 -0.7419 -0.5620  0.2364
 4391TIP3    H234665   2.031   0.752   3.707 -0.0746  0.1470 -0.1434
 4392TIP3   OH234666   5.377   1.705   4.584 -0.1873  0.7099 -0.2233
 4392TIP3    H134667   5.381   1.789   4.630 -1.7153  1.2214 -0.9558
 4392TIP3    H234668   5.309   1.656   4.629 -0.5210  0.5610 -0.8739
 4393TIP3   OH234669   1.144   2.195  16.312 -0.7377 -0.2948  0.2085
 4393TIP3    H134670   1.157   2.162  16.222 -0.0895 -1.1494  0.5939
 4393TIP3    H234671   1.233   2.209  16.344 -0.9727  2.4865 -0.1250
 4394TIP3   OH234672   1.551   6.196  16.005  0.4454  0.4353 -0.1380
 4394TIP3    H134673   1.567   6.118  15.952 -0.9699 -0.1956  0.3146
 4394TIP3    H234674   1.464   6.226  15.979  1.1290  2.1525 -0.6183
 4395TIP3   OH234675   5.814   6.644   2.784 -0.7373 -0.4818 -0.1711
 4395TIP3    H134676   5.787   6.566   2.832  2.3981 -0.7223  1.4171
 4395TIP3    H234677   5.824   6.711   2.851  0.6969  0.0611 -0.8941
 4396TIP3   OH234678   0.017   1.502   1.325 -0.5067  0.3390 -0.2205
 4396TIP3    H134679   0.025   1.577   1.266  0.1651 -0.1916 -0.8370
 4396TIP3    H234680  -0.051   1.526   1.387  0.6211  1.9904  0.4156
 4397TIP3   OH234681   5.698   1.699   6.180 -0.3879 -0.1367 -0.4666
 4397TIP3    H134682   5.737   1.785   6.166  0.7875 -0.5102  0.2928
 4397TIP3    H234683   5.607   1.709   6.154 -0.5023  1.5775  0.4624
 4398TIP3   OH234684   1.577   4.586   5.089  0.5316 -0.2922  0.6354
 4398TIP3    H134685   1.496   4.629   5.061  1.0681 -0.0876 -0.6817
 4398TIP3    H234686   1.551   4.531   5.163 -0.8229 -0.2853  0.1897
 4399TIP3   OH234687   5.564   1.232  12.182  0.4137  0.6343  0.2295
 4399TIP3    H134688   5.579   1.323  12.206 -1.1864  1.2418 -0.8933
 4399TIP3    H234689   5.641   1.208  12.130  1.1250  1.1355  1.0320
 4400TIP3   OH234690   1.078   1.380   5.541  0.1308  0.1013 -0.7880
 4400TIP3    H134691   0.999   1.326   5.550 -1.1894  1.8015 -1.4526
 4400TIP3    H234692   1.137   1.348   5.609 -2.1711  0.4260  1.5774
 4401TIP3   OH234693   4.287   4.636   1.121 -0.9152  0.0777  0.7472
 4401TIP3    H134694   4.200   4.659   1.087 -0.3600  0.8625 -0.2154
 4401TIP3    H234695   4.342   4.631   1.043  0.5811  2.7095  1.5167
 4402TIP3   OH234696   5.699   3.420   6.634 -0.1114 -0.0057  0.4028
 4402TIP3    H134697   5.645   3.482   6.585 -0.3532 -0.2241  0.3931
 4402TIP3    H234698   5.701   3.342   6.579 -1.9199 -0.9365  1.5803
 4403TIP3   OH234699   1.239   2.381  10.663  0.0319 -0.3125  0.0786
 4403TIP3    H134700   1.257   2.371  10.569 -0.5607 -0.4697 -0.0179
 4403TIP3    H234701   1.226   2.475  10.675 -1.7274 -0.4789 -0.3334
 4404TIP3   OH234702   3.958   2.106   5.226  0.2192  0.3299 -0.3351
 4404TIP3    H134703   4.039   2.156   5.230  0.7158 -0.2314 -2.2287
 4404TIP3    H234704   3.904   2.153   5.163  0.7729 -1.4872 -2.3064
 4405TIP3   OH234705   3.397   1.854  16.747  0.1070  0.4014 -0.4032
 4405TIP3    H134706   3.466   1.869  16.682  1.2429 -2.2616  0.0663
 4405TIP3    H234707   3.322   1.825  16.696 -0.0513  1.3851 -0.7510
 4406TIP3   OH234708   2.886   6.075   0.361 -1.1553  0.5623  0.0096
 4406TIP3    H134709   2.824   6.146   0.344 -0.5515  0.8677 -0.9876
 4406TIP3    H234710   2.929   6.059   0.277 -2.4613 -2.1757 -0.2463
 4407TIP3   OH234711   3.125   1.804   0.780 -0.0212  0.6306  0.3820
 4407TIP3    H134712   3.048   1.858   0.799  0.4832  1.2418  0.7087
 4407TIP3    H234713   3.199   1.856   0.810  0.4789 -0.2408  0.6994
 4408TIP3   OH234714   1.260   1.249   3.441 -0.3379  0.5806 -0.2368
 4408TIP3    H134715   1.323   1.212   3.378 -0.8516  0.6601 -0.8063
 4408TIP3    H234716   1.216   1.173   3.478 -0.9627  0.5812 -0.9555
 4409TIP3   OH234717   5.037   1.102   2.795 -0.8761  0.4796 -0.2023
 4409TIP3    H134718   5.055   1.022   2.747 -0.2442  0.9519 -0.7797
 4409TIP3    H234719   5.123   1.137   2.817 -1.1231 -0.6423  2.8999
 4410TIP3   OH234720   0.613   2.654   3.172 -0.4192  0.4163 -0.5343
 4410TIP3    H134721   0.582   2.741   3.196 -1.4335  0.1123 -0.7232
 4410TIP3    H234722   0.646   2.664   3.082  3.5480  1.5963  0.8263
 4411TIP3   OH234723   6.156   5.947   1.282 -0.8147  0.7351 -0.1881
 4411TIP3    H134724   6.203   5.953   1.198  0.1371 -2.7137 -0.0314
 4411TIP3    H234725   6.066   5.925   1.258 -0.8203  0.8988 -0.3222
 4412TIP3   OH234726   3.339   6.090  15.881 -0.2070 -0.0853  0.2068
 4412TIP3    H134727   3.363   6.182  15.881  0.8160 -0.3352 -0.3427
 4412TIP3    H234728   3.360   6.059  15.969 -0.4830  0.1842  0.3682
 4413TIP3   OH234729   6.305   2.726   4.666  0.0751 -0.4335 -0.2879
 4413TIP3    H134730   6.224   2.757   4.625 -0.1566 -0.6665 -0.0111
 4413TIP3    H234731   6.317   2.638   4.631 -0.2539 -0.7247  0.3264
 4414TIP3   OH234732   0.140   4.896   2.528 -1.0875 -0.5451  0.0069
 4414TIP3    H134733   0.221   4.891   2.476 -0.3512 -0.8140  1.1358
 4414TIP3    H234734   0.089   4.821   2.501 -1.3620  0.0978 -1.3459
 4415TIP3   OH234735   5.574   3.760   4.685 -0.3161  0.0758 -0.2185
 4415TIP3    H134736   5.564   3.665   4.687  2.3354 -0.2722  0.9660
 4415TIP3    H234737   5.541   3.789   4.770  2.2612 -0.3042  0.9943
 4416TIP3   OH234738   3.211   3.344  13.443 -0.1743  0.2565  0.6469
 4416TIP3    H134739   3.206   3.328  13.537 -2.8883  1.3419  0.7790
 4416TIP3    H234740   3.128   3.309  13.408  0.5051  0.4063 -1.2674
 4417TIP3   OH234741   0.541   0.961   2.934  1.0297  0.3750  0.5713
 4417TIP3    H134742   0.470   0.905   2.964  0.0741  0.8061 -0.7764
 4417TIP3    H234743   0.610   0.901   2.907  0.1635 -0.1516 -0.5145
 4418TIP3   OH234744   2.285   4.944   4.305  0.1633 -0.2242 -0.1415
 4418TIP3    H134745   2.368   4.944   4.257 -0.5059 -1.7016 -1.3954
 4418TIP3    H234746   2.268   5.037   4.323  0.1971  0.5242 -3.2949
 4419TIP3   OH234747   0.484   1.912  16.607 -0.0881  0.2171  0.0111
 4419TIP3    H134748   0.472   1.819  16.586  0.9225 -0.1219  0.8722
 4419TIP3    H234749   0.494   1.914  16.702 -0.6452  1.2768  0.0612
 4420TIP3   OH234750   3.434   0.063   2.572  0.3424  0.3196  0.1438
 4420TIP3    H134751   3.525   0.076   2.545 -0.5068  1.0484 -2.7191
 4420TIP3    H234752   3.393   0.149   2.563 -1.0721 -0.3963 -0.6266
 4421TIP3   OH234753   4.529   0.350   0.654 -0.0589  0.2083  0.2064
 4421TIP3    H134754   4.528   0.255   0.639  2.9988  0.3632 -1.8183
 4421TIP3    H234755   4.609   0.366   0.704 -1.5825  1.5850  2.3360
 4422TIP3   OH234756   2.257   3.810   0.085  0.4581  0.4663 -0.0183
 4422TIP3    H134757   2.322   3.822   0.155 -0.9200  1.0334  1.2372
 4422TIP3    H234758   2.231   3.899   0.061  1.5971  0.3188 -1.9915
 4423TIP3   OH234759   4.158   3.388  11.797  0.1361  0.4593 -0.2975
 4423TIP3    H134760   4.167   3.305  11.844 -0.2104 -0.1916 -1.3433
 4423TIP3    H234761   4.134   3.451  11.864 -1.8969 -0.7497  0.2052
 4424TIP3   OH234762   2.304   5.192   6.291 -0.1403 -0.0153 -0.2875
 4424TIP3    H134763   2.394   5.226   6.285 -0.3951  0.5345 -1.3444
 4424TIP3    H234764   2.315   5.100   6.315  0.7782 -0.2012 -1.2988
 4425TIP3   OH234765   3.655   4.374  12.786  0.1125 -0.4625  0.2551
 4425TIP3    H134766   3.723   4.338  12.843  1.5561  0.6782 -0.6566
 4425TIP3    H234767   3.604   4.432  12.843  3.1841  2.8243  0.0254
 4426TIP3   OH234768   5.110   5.562   2.407  0.4997 -0.6102 -0.0631
 4426TIP3    H134769   5.092   5.656   2.400  3.1496 -0.0661 -1.0540
 4426TIP3    H234770   5.123   5.547   2.501 -3.0828 -0.7759  0.5344
 4427TIP3   OH234771   1.142   2.206   5.879  0.0064  0.0991 -0.3816
 4427TIP3    H134772   1.070   2.232   5.822  0.2563 -1.3705 -1.4081
 4427TIP3    H234773   1.108   2.219   5.968 -1.2836  0.0578 -0.8527
 4428TIP3   OH234774   0.688   6.407  16.889  0.3331  0.0861 -0.1952
 4428TIP3    H134775   0.670   6.316  16.913  0.1271 -0.4273 -2.1364
 4428TIP3    H234776   0.626   6.458  16.940  0.1382 -0.8941  0.5815
 4429TIP3   OH234777   0.622   2.879  11.732  0.5962  0.2782  0.2269
 4429TIP3    H134778   0.544   2.909  11.778  0.5980  2.4850 -1.0682
 4429TIP3    H234779   0.674   2.834  11.799 -0.4352  1.3317  1.7951
 4430TIP3   OH234780   5.377   5.421  16.603 -0.1343 -0.1339  0.2537
 4430TIP3    H134781   5.325   5.394  16.679  1.4036 -0.3859  1.2588
 4430TIP3    H234782   5.376   5.516  16.606  1.3254 -0.1141  1.6514
 4431TIP3   OH234783   3.140   1.178   0.591  0.2250 -0.0498 -0.8313
 4431TIP3    H134784   3.167   1.265   0.561  4.0212 -0.4435  0.8839
 4431TIP3    H234785   3.169   1.118   0.523 -0.8881 -0.1432 -1.2416
 4432TIP3   OH234786   6.560   5.001   1.259 -0.4758 -0.3374 -0.6356
 4432TIP3    H134787   6.552   4.907   1.275  1.0602 -0.3776  0.0756
 4432TIP3    H234788   6.620   5.032   1.327 -0.0037  0.9277 -1.5915
 4433TIP3   OH234789   6.702   3.040  11.636  0.8023 -0.2357 -0.6838
 4433TIP3    H134790   6.775   3.021  11.696  0.0402 -3.5671 -0.6255
 4433TIP3    H234791   6.676   3.129  11.658  2.1296 -0.4413  2.2477
 4434TIP3   OH234792   3.582   4.399   5.780 -0.0678  0.1826  0.2018
 4434TIP3    H134793   3.574   4.341   5.705 -0.2818 -0.8863  1.0216
 4434TIP3    H234794   3.676   4.405   5.796 -0.0377  0.1883  0.0205
 4435TIP3   OH234795   4.797   2.414   5.971  0.8630  0.3535 -0.0775
 4435TIP3    H134796   4.869   2.412   6.034  1.8462  1.0300 -1.1399
 4435TIP3    H234797   4.829   2.362   5.897  0.2168  0.5884 -0.5258
 4436TIP3   OH234798   4.849   6.006  12.979 -0.7198 -0.1744  0.2340
 4436TIP3    H134799   4.831   6.092  13.018 -0.1310 -0.3984  1.0281
 4436TIP3    H234800   4.768   5.983  12.933 -0.9810  0.6768  0.2496
 4437TIP3   OH234801   2.247   2.027  16.641  0.1891  0.2224 -0.4206
 4437TIP3    H134802   2.278   2.018  16.732 -1.5661 -0.3108  0.1720
 4437TIP3    H234803   2.324   2.008  16.588  0.9796 -0.6538  0.9617
 4438TIP3   OH234804   6.307   2.303  14.338 -0.6210 -0.5659  0.6030
 4438TIP3    H134805   6.260   2.226  14.307 -0.6961 -0.1758 -0.2887
 4438TIP3    H234806   6.268   2.376  14.290 -0.1858 -0.0401  1.0340
 4439TIP3   OH234807   1.190   6.283   3.217  0.2562 -0.3094 -0.7702
 4439TIP3    H134808   1.157   6.227   3.287 -0.4260  0.7053 -0.2748
 4439TIP3    H234809   1.136   6.361   3.220  2.4674  1.2980 -0.1318
 4440TIP3   OH234810   2.542   2.914  12.601 -0.1300 -0.1874 -0.2249
 4440TIP3    H134811   2.471   2.851  12.614  2.7726 -3.3654  1.9708
 4440TIP3    H234812   2.584   2.887  12.520  1.1936 -1.3023  0.7820
 4441TIP3   OH234813   5.238   0.724   1.240  0.3653 -0.0615 -0.4731
 4441TIP3    H134814   5.264   0.791   1.177  1.4711 -0.3912 -0.3999
 4441TIP3    H234815   5.279   0.644   1.208 -1.0548 -0.7537 -0.6374
 4442TIP3   OH234816   6.327   1.584   1.096  0.3495 -0.0488  0.2909
 4442TIP3    H134817   6.290   1.664   1.133 -0.1721  0.6600 -1.6417
 4442TIP3    H234818   6.418   1.605   1.078  0.4178 -0.1664  0.4869
 4443TIP3   OH234819   3.325   3.421   3.898  0.1967  0.1525 -0.3585
 4443TIP3    H134820   3.343   3.329   3.881 -1.6144 -0.3978  0.3806
 4443TIP3    H234821   3.280   3.421   3.983 -1.1417  1.5336 -1.0096
 4444TIP3   OH234822   4.887   0.548  10.928 -0.3987 -0.5595  0.0833
 4444TIP3    H134823   4.932   0.609  10.985 -1.2591 -0.9266  1.1975
 4444TIP3    H234824   4.794   0.564  10.944 -0.6537 -2.2811  0.5628
 4445TIP3   OH234825   5.812   6.640   5.974  0.6565 -0.0250 -0.1923
 4445TIP3    H134826   5.877   6.709   5.990 -2.3511  2.4772  2.9290
 4445TIP3    H234827   5.818   6.583   6.050 -1.3729  0.9602  0.8158
 4446TIP3   OH234828   1.113   3.779  14.057 -0.6974 -0.1516  0.2952
 4446TIP3    H134829   1.133   3.865  14.093 -0.9565 -1.0751  2.7821
 4446TIP3    H234830   1.199   3.741  14.038 -0.5747  0.5078 -0.5589
 4447TIP3   OH234831   1.712   2.720  14.139  0.3906 -0.2502  0.2803
 4447TIP3    H134832   1.806   2.717  14.119  0.2458  0.1473 -0.4889
 4447TIP3    H234833   1.708   2.746  14.231  0.9946  1.5000 -0.1616
 4448TIP3   OH234834   3.285   0.755  12.624 -0.4661 -0.2530  0.0142
 4448TIP3    H134835   3.192   0.739  12.611 -0.1011 -2.1505 -0.5621
 4448TIP3    H234836   3.295   0.762  12.719 -0.9864 -1.5769  0.1842
 4449TIP3   OH234837   0.586   0.979   4.454 -0.4696  0.0425  0.1485
 4449TIP3    H134838   0.541   0.961   4.537 -0.5277  0.0812  0.1257
 4449TIP3    H234839   0.591   0.894   4.410  0.2746 -0.1278  0.5447
 4450TIP3   OH234840   3.333   4.601   0.085  0.0880 -0.0518  0.2686
 4450TIP3    H134841   3.365   4.686   0.055 -3.7860  1.5648  0.0205
 4450TIP3    H234842   3.324   4.610   0.180 -1.1634  0.2284  0.1473
 4451TIP3   OH234843   0.176   5.909  14.135  0.6306  0.0157 -0.4442
 4451TIP3    H134844   0.093   5.870  14.162  0.4391  0.4105 -0.4564
 4451TIP3    H234845   0.198   5.970  14.205  0.6756  0.2539 -0.6666
 4452TIP3   OH234846   6.242   2.745   0.858 -0.1895  0.3789  0.3960
 4452TIP3    H134847   6.196   2.803   0.919 -1.5658  1.4276 -1.5397
 4452TIP3    H234848   6.227   2.657   0.893 -0.6386  0.9505  1.7371
 4453TIP3   OH234849   2.614   4.233   5.833 -0.4248  0.3310 -0.2038
 4453TIP3    H134850   2.637   4.180   5.757  0.3915 -1.7923  1.4149
 4453TIP3    H234851   2.539   4.188   5.872  0.3910  0.2135  1.3099
 4454TIP3   OH234852   2.818   1.943   2.439 -0.0273 -0.1113 -0.8093
 4454TIP3    H134853   2.910   1.924   2.419 -0.2872 -0.3628 -1.8735
 4454TIP3    H234854   2.770   1.869   2.401 -0.5002 -1.5749  2.3707
 4455TIP3   OH234855   1.408   0.334   0.986  0.1269  0.6382 -0.0868
 4455TIP3    H134856   1.475   0.266   0.972  0.2636  0.6591  0.4168
 4455TIP3    H234857   1.450   0.415   0.959  1.2400  1.0362  2.4980
 4456TIP3   OH234858   4.762   2.939  10.987  0.2810  0.0528  0.6011
 4456TIP3    H134859   4.831   2.877  11.010  0.0588 -0.1918  0.6052
 4456TIP3    H234860   4.790   2.976  10.903  0.4873  0.0581  0.6713
 4457TIP3   OH234861   5.202   1.136  12.517  0.0898 -0.1870  0.1852
 4457TIP3    H134862   5.259   1.060  12.523  0.5428  0.1495  0.1503
 4457TIP3    H234863   5.215   1.170  12.429 -0.3849 -0.2775  0.0737
 4458TIP3   OH234864   3.385   1.285  11.575 -0.3334  0.0569  0.6065
 4458TIP3    H134865   3.388   1.193  11.601  2.2239  0.0676  0.5753
 4458TIP3    H234866   3.330   1.287  11.497  1.1143 -1.8023 -0.5404
 4459TIP3   OH234867   0.114   3.121   3.496  0.3552  0.0564  0.4590
 4459TIP3    H134868   0.030   3.109   3.540 -0.7675  2.3794 -0.8963
 4459TIP3    H234869   0.179   3.104   3.564 -1.2261 -0.0131  2.0235
 4460TIP3   OH234870   1.390   1.992  14.118  0.1528 -0.0712 -0.5196
 4460TIP3    H134871   1.474   1.968  14.159  0.2094  0.1478 -0.5019
 4460TIP3    H234872   1.366   2.074  14.162 -0.3357 -0.4075 -0.1504
 4461TIP3   OH234873   6.246   0.455   0.330  0.5724  0.4805  0.2485
 4461TIP3    H134874   6.163   0.477   0.288 -0.9172  0.1312  2.8073
 4461TIP3    H234875   6.313   0.475   0.264 -1.4875  1.1635 -1.7436
 4462TIP3   OH234876   6.159   2.197  11.248 -0.6678  0.5384  0.1372
 4462TIP3    H134877   6.209   2.118  11.270 -0.0413  0.2007 -2.2156
 4462TIP3    H234878   6.136   2.186  11.155 -2.1644  2.2895  0.2398
 4463TIP3   OH234879   6.298   5.484  13.720 -0.0916  0.1924  0.1324
 4463TIP3    H134880   6.208   5.497  13.752 -0.7045  1.6956 -1.9524
 4463TIP3    H234881   6.292   5.503  13.626  1.7316 -3.0665 -0.7928
 4464TIP3   OH234882   0.200   2.873  17.050 -0.2395  0.1671 -0.2977
 4464TIP3    H134883   0.252   2.952  17.069  1.1311 -1.0465  1.3635
 4464TIP3    H234884   0.256   2.821  16.993 -1.2077  0.4363 -1.5243
 4465TIP3   OH234885   1.475   5.481  16.951 -0.8113 -0.9635  0.4441
 4465TIP3    H134886   1.525   5.533  17.014 -0.7563 -0.1071 -0.2928
 4465TIP3    H234887   1.474   5.393  16.989 -1.0794 -0.3982  1.8081
 4466TIP3   OH234888   6.276   3.897   5.259 -0.2591 -0.0078  0.2264
 4466TIP3    H134889   6.291   3.896   5.353 -0.2377 -0.2135  0.2206
 4466TIP3    H234890   6.361   3.920   5.221  0.0277 -1.0454  0.2004
 4467TIP3   OH234891   4.082   1.301   0.719  0.2209 -0.1484  0.0676
 4467TIP3    H134892   4.147   1.313   0.787  0.5024  0.8080 -0.3615
 4467TIP3    H234893   4.068   1.206   0.715  1.2837 -0.3247  0.4385
 4468TIP3   OH234894   3.538   3.762  14.461  0.4833  0.2340 -0.1217
 4468TIP3    H134895   3.582   3.730  14.383  1.5268  0.8966  0.1728
 4468TIP3    H234896   3.551   3.693  14.527  1.1428  0.4464 -0.0225
 4469TIP3   OH234897   2.688   4.235   1.057  0.2192 -0.5812 -0.3436
 4469TIP3    H134898   2.783   4.246   1.068  0.3997  1.4487 -3.0203
 4469TIP3    H234899   2.677   4.142   1.038  1.6939 -0.8267 -0.1159
 4470TIP3   OH234900   0.218   4.597   2.616  0.6169  0.7924 -0.6189
 4470TIP3    H134901   0.247   4.523   2.563  1.4013  0.0959  0.7407
 4470TIP3    H234902   0.180   4.558   2.694 -0.3259  1.8102 -0.5425
 4471TIP3   OH234903   6.776   1.344  16.202  0.7076  0.4308 -0.3832
 4471TIP3    H134904   6.748   1.288  16.275  1.1131  0.9017  0.1366
 4471TIP3    H234905   6.794   1.282  16.131  1.0843 -0.1023  0.1606
 4472TIP3   OH234906   2.312   3.963  10.810  0.2871  0.3663  0.1770
 4472TIP3    H134907   2.391   3.983  10.760  0.1764  0.1032 -0.1071
 4472TIP3    H234908   2.289   3.874  10.784  0.3066  0.1748  0.8098
 4473TIP3   OH234909   3.115   1.145   2.961  0.4437  0.1578 -0.1117
 4473TIP3    H134910   3.198   1.151   3.006  0.7173  2.3576 -0.7895
 4473TIP3    H234911   3.089   1.053   2.969  2.5861 -0.4207  0.6835
 4474TIP3   OH234912   0.982   0.393  17.041  0.2465  0.2358 -0.5657
 4474TIP3    H134913   0.924   0.405  16.965  0.4987  3.4409 -0.4077
 4474TIP3    H234914   1.045   0.464  17.033  1.7825 -0.8380  1.3773
 4475TIP3   OH234915   2.558   5.389  10.675  0.2399 -0.2519 -0.3143
 4475TIP3    H134916   2.548   5.427  10.762 -0.7269 -0.5467 -0.2812
 4475TIP3    H234917   2.579   5.464  10.619  0.8836 -0.0634  0.1642
 4476TIP3   OH234918   2.178   2.228  13.639 -0.5965 -0.3021  0.4016
 4476TIP3    H134919   2.199   2.151  13.691  0.1466 -0.4730 -0.1361
 4476TIP3    H234920   2.262   2.273  13.628 -0.9973  0.5188  0.6009
 4477TIP3   OH234921   2.789   6.354  13.992  0.4229 -0.2086 -0.6618
 4477TIP3    H134922   2.849   6.284  14.018  0.1187  0.2959  1.5851
 4477TIP3    H234923   2.844   6.418  13.947  0.6793 -1.8777 -2.9266
 4478TIP3   OH234924   3.307   6.501   5.436 -0.4673  0.8417  0.4069
 4478TIP3    H134925   3.225   6.457   5.415 -2.1903  4.1411 -0.4038
 4478TIP3    H234926   3.372   6.460   5.378 -1.9944 -0.3464 -0.5244
 4479TIP3   OH234927   4.983   1.398  12.022  0.0136 -0.0775  0.0848
 4479TIP3    H134928   4.896   1.420  11.989 -0.3342 -1.2303  0.1632
 4479TIP3    H234929   5.035   1.477  12.009 -0.8912  0.4406 -0.4960
 4480TIP3   OH234930   3.348   6.369  11.986 -0.2115 -0.1284 -0.3506
 4480TIP3    H134931   3.415   6.315  12.028 -0.8681 -1.0404 -0.4409
 4480TIP3    H234932   3.328   6.322  11.905 -0.1271  0.7554 -0.8936
 4481TIP3   OH234933   6.745   0.239   0.736 -0.0951  0.1278  0.3882
 4481TIP3    H134934   6.671   0.249   0.796 -1.3060  0.3471 -1.0840
 4481TIP3    H234935   6.716   0.282   0.655 -0.0128 -3.1759 -1.5957
 4482TIP3   OH234936   6.054   6.054   2.487  0.0607  0.3048  0.3440
 4482TIP3    H134937   5.968   6.093   2.502  0.4287  0.8989  0.9709
 4482TIP3    H234938   6.107   6.125   2.451  0.5932  0.2530  1.0027
 4483TIP3   OH234939   5.049   1.819  13.108  0.0816 -0.6256  0.0139
 4483TIP3    H134940   4.981   1.865  13.060  0.1873 -1.1298 -0.6410
 4483TIP3    H234941   5.114   1.796  13.042  1.0793  0.1650  0.6855
 4484TIP3   OH234942   1.964   3.269  12.093 -0.2809 -0.0679  0.0964
 4484TIP3    H134943   1.919   3.194  12.055  0.3827 -0.2357 -0.3685
 4484TIP3    H234944   1.981   3.328  12.019 -0.2748  0.2718  0.3616
 4485TIP3   OH234945   3.913   3.593   5.597  0.2993  0.1662 -0.5332
 4485TIP3    H134946   3.929   3.519   5.656  0.5205  0.4373 -0.2538
 4485TIP3    H234947   3.907   3.553   5.510 -0.5260 -0.3008 -0.2812
 4486TIP3   OH234948   1.460   1.629   0.374  0.3429  0.8853 -0.2820
 4486TIP3    H134949   1.543   1.608   0.330  1.9289 -1.7363  3.4163
 4486TIP3    H234950   1.401   1.558   0.349  0.7220  0.2738  0.5314
 4487TIP3   OH234951   0.859   0.830  15.427  0.1682 -0.5531 -0.2387
 4487TIP3    H134952   0.919   0.794  15.492 -2.3700 -0.1104  2.5729
 4487TIP3    H234953   0.798   0.759  15.408 -0.2063 -0.1034 -0.7455
 4488TIP3   OH234954   1.778   6.341  14.969 -0.7125 -0.2076  0.2052
 4488TIP3    H134955   1.873   6.349  14.975 -0.7598 -0.2743  1.1881
 4488TIP3    H234956   1.751   6.419  14.922 -0.2221  0.1427  0.4886
 4489TIP3   OH234957   5.993   3.423  14.540  0.5004  0.0086 -0.6992
 4489TIP3    H134958   6.073   3.380  14.509  0.8377  0.8773 -1.0559
 4489TIP3    H234959   5.932   3.416  14.466  0.1178 -0.9507 -0.3082
 4490TIP3   OH234960   5.414   4.434   0.808 -0.1992 -0.3544 -0.5518
 4490TIP3    H134961   5.476   4.381   0.859  0.3403 -0.9024 -1.7611
 4490TIP3    H234962   5.328   4.407   0.840  0.0337 -2.3082 -1.4378
 4491TIP3   OH234963   4.463   6.510   4.969 -0.0512  0.4095 -0.0339
 4491TIP3    H134964   4.553   6.523   4.938 -0.5742 -0.4562 -2.0471
 4491TIP3    H234965   4.467   6.431   5.022  0.1730 -0.3322 -1.1340
 4492TIP3   OH234966   0.541   3.180   0.316 -0.2343 -0.1183 -0.0259
 4492TIP3    H134967   0.499   3.215   0.238  0.3579  0.7159  0.0138
 4492TIP3    H234968   0.588   3.255   0.353 -0.4449 -0.5176  1.0875
 4493TIP3   OH234969   5.886   0.537   3.599  0.4553  0.4007 -0.2902
 4493TIP3    H134970   5.892   0.521   3.693 -0.9988 -0.9873 -0.3886
 4493TIP3    H234971   5.962   0.491   3.563 -0.2228 -1.0368  0.0325
 4494TIP3   OH234972   3.946   3.248  16.942  0.6966  0.2414 -0.3125
 4494TIP3    H134973   3.924   3.341  16.939 -0.8300 -0.1170 -1.5442
 4494TIP3    H234974   3.885   3.207  16.881  2.5574 -1.3345 -1.2102
 4495TIP3   OH234975   2.971   5.539   5.540 -0.0773  0.0531  0.4143
 4495TIP3    H134976   3.031   5.484   5.489 -0.0295  0.8686 -0.4389
 4495TIP3    H234977   2.946   5.484   5.615 -0.5983 -1.4065 -0.7621
 4496TIP3   OH234978   5.095   3.540   3.036 -0.0768  0.1996 -0.2089
 4496TIP3    H134979   5.145   3.594   2.974  0.3811  0.0453  0.0247
 4496TIP3    H234980   5.161   3.501   3.093 -0.4001 -0.6970 -0.4397
 4497TIP3   OH234981   1.852   1.122   2.645  0.2844 -0.3569 -0.4040
 4497TIP3    H134982   1.934   1.157   2.680  0.6129 -1.7070  0.2513
 4497TIP3    H234983   1.834   1.176   2.569  1.0519  0.8570  0.2423
 4498TIP3   OH234984   4.512   0.268  11.969 -0.3836  1.1259 -0.1432
 4498TIP3    H134985   4.549   0.197  11.915 -2.2649 -0.3521  0.4008
 4498TIP3    H234986   4.429   0.289  11.926 -1.2865  0.8393  1.4073
 4499TIP3   OH234987   1.972   5.882  14.865 -0.1327 -0.1519  0.7428
 4499TIP3    H134988   2.026   5.852  14.792 -1.8838 -0.8597 -0.3257
 4499TIP3    H234989   1.981   5.814  14.932  2.2402  0.9567  1.6641
 4500TIP3   OH234990   3.930   0.713  11.697 -0.3109  0.3884  0.4614
 4500TIP3    H134991   4.000   0.691  11.759  1.3997  1.7469 -0.8810
 4500TIP3    H234992   3.969   0.778  11.639 -2.2336  0.0599 -1.3150
 4501TIP3   OH234993   2.437   6.286   4.631 -0.2045  0.0671 -0.3239
 4501TIP3    H134994   2.492   6.318   4.702 -0.1192 -2.1560  0.7225
 4501TIP3    H234995   2.419   6.363   4.577  0.1474  1.7481  1.8187
 4502TIP3   OH234996   6.439   1.917  12.035  0.3475 -0.3873 -0.2367
 4502TIP3    H134997   6.441   2.008  12.005 -2.0438 -0.1072  0.3232
 4502TIP3    H234998   6.488   1.918  12.117  0.0337  0.4547 -0.0521
 4503TIP3   OH234999   4.109   6.117  12.569  0.9180 -0.1461 -0.2513
 4503TIP3    H135000   4.036   6.059  12.546  1.0434 -2.1599  3.5105
 4503TIP3    H235001   4.066   6.198  12.598  0.2622 -0.6908  0.3446
 4504TIP3   OH235002   4.621   4.736   0.926  0.2097  0.5649  0.3572
 4504TIP3    H135003   4.702   4.707   0.885  1.6701 -0.1100  3.3742
 4504TIP3    H235004   4.566   4.658   0.929  0.0845  0.6242 -0.2860
 4505TIP3   OH235005   5.437   4.150   4.707 -0.3876 -0.5697 -0.2072
 4505TIP3    H135006   5.431   4.117   4.797 -0.3678 -3.0413 -1.0409
 4505TIP3    H235007   5.361   4.208   4.698 -0.5430 -0.4882  1.2967
 4506TIP3   OH235008   2.289   6.359   3.393  0.2302 -0.0215 -0.4996
 4506TIP3    H135009   2.293   6.269   3.362 -2.1189 -0.0771 -0.8488
 4506TIP3    H235010   2.267   6.411   3.316 -1.6865  0.3703  0.2507
 4507TIP3   OH235011   1.580   3.186  15.939  0.3351  0.8093  0.6727
 4507TIP3    H135012   1.497   3.164  15.896  0.1818 -0.4471  1.5774
 4507TIP3    H235013   1.644   3.188  15.868 -0.0857 -0.2799  0.2487
 4508TIP3   OH235014   5.693   1.265  13.804 -0.2732  0.2853  0.6531
 4508TIP3    H135015   5.762   1.247  13.740 -0.4409  2.2654 -0.1724
 4508TIP3    H235016   5.739   1.272  13.887  0.0570 -1.5264  0.6579
 4509TIP3   OH235017   0.991   5.391  15.927 -0.1769 -0.3090  0.3560
 4509TIP3    H135018   0.922   5.325  15.937  0.7325 -1.1978  0.8757
 4509TIP3    H235019   1.057   5.349  15.872  1.4344 -0.6994  2.4600
 4510TIP3   OH235020   3.325   1.272   5.621 -0.1216  0.1870 -0.8168
 4510TIP3    H135021   3.295   1.182   5.633 -0.3896  0.3462 -0.2669
 4510TIP3    H235022   3.318   1.287   5.527 -1.4427  0.1110 -0.7442
 4511TIP3   OH235023   4.480   0.937   4.274  0.3210 -0.2785 -0.4982
 4511TIP3    H135024   4.495   1.009   4.335 -1.9934  0.1888 -0.3972
 4511TIP3    H235025   4.551   0.945   4.211  2.0619 -0.0048  1.3750
 4512TIP3   OH235026   5.788   4.305  11.685  0.1495 -0.2669 -0.1420
 4512TIP3    H135027   5.776   4.395  11.718 -2.7956 -1.2231  1.8361
 4512TIP3    H235028   5.874   4.279  11.717  0.2221  1.2129  0.9636
 4513TIP3   OH235029   6.434   4.811  10.751  0.5187 -0.3798 -0.2059
 4513TIP3    H135030   6.518   4.776  10.780  0.5257  0.4803  0.8883
 4513TIP3    H235031   6.389   4.836  10.832  0.2859  1.5724 -0.8678
 4514TIP3   OH235032   4.636   0.550  16.193  0.0165 -0.5716  0.0147
 4514TIP3    H135033   4.572   0.548  16.264  0.1838  0.1497  0.1951
 4514TIP3    H235034   4.706   0.491  16.220 -0.6496 -1.5174 -0.2673
 4515TIP3   OH235035   1.696   4.817   1.051 -0.7919  0.6465  0.1035
 4515TIP3    H135036   1.740   4.732   1.048  1.0854  1.5702 -0.0090
 4515TIP3    H235037   1.644   4.820   0.970 -0.5925 -0.2398 -0.0692
 4516TIP3   OH235038   5.981   3.153   0.180 -0.1424 -0.2239  0.0041
 4516TIP3    H135039   5.947   3.157   0.270 -0.6137  1.6788 -0.2209
 4516TIP3    H235040   6.071   3.185   0.187 -0.4139  0.6318 -0.2848
 4517TIP3   OH235041   0.997   2.062  15.427  0.2433 -0.2686 -0.1299
 4517TIP3    H135042   1.058   2.112  15.374 -1.3347  0.0803 -1.7072
 4517TIP3    H235043   0.962   2.126  15.489  1.0410 -0.3407  0.4053
 4518TIP3   OH235044   1.363   2.876  16.712  0.5227 -0.0837  0.3348
 4518TIP3    H135045   1.405   2.791  16.723  1.6758  0.4078 -0.0618
 4518TIP3    H235046   1.408   2.934  16.774 -1.1638 -0.0365  1.5776
 4519TIP3   OH235047   4.367   1.951   0.943 -0.1836 -0.3646  0.4228
 4519TIP3    H135048   4.446   1.906   0.916  0.2774  0.3600  0.5374
 4519TIP3    H235049   4.304   1.881   0.961  0.0426 -0.9176 -0.8243
 4520TIP3   OH235050   5.131   1.643  12.032  0.0703 -0.3672 -0.1343
 4520TIP3    H135051   5.220   1.611  12.021  0.8520  1.1539  1.2813
 4520TIP3    H235052   5.127   1.670  12.124 -1.3266  1.1441 -0.6002
 4521TIP3   OH235053   0.335   1.138   4.629  0.8626  0.1463 -0.7396
 4521TIP3    H135054   0.290   1.122   4.712  0.6973 -0.0623 -0.8685
 4521TIP3    H235055   0.363   1.229   4.634 -2.1184  1.2182 -1.8797
 4522TIP3   OH235056   3.821   4.803   5.813 -0.6985  0.4111  0.3935
 4522TIP3    H135057   3.875   4.850   5.749  0.3758 -2.4302 -0.9678
 4522TIP3    H235058   3.832   4.852   5.894  1.6296  1.5984 -0.5310
 4523TIP3   OH235059   2.497   3.235  14.826  0.6645  0.3785 -0.1546
 4523TIP3    H135060   2.504   3.330  14.827 -1.5889  0.6152 -0.9737
 4523TIP3    H235061   2.502   3.210  14.734 -0.8092 -0.0610 -0.1422
 4524TIP3   OH235062   0.145   4.359  13.139  0.3825 -0.4633 -0.0773
 4524TIP3    H135063   0.167   4.364  13.232  0.0866 -0.8591  0.0141
 4524TIP3    H235064   0.067   4.304  13.135 -0.1802  0.3511 -0.4724
 4525TIP3   OH235065   4.040   3.753   2.296  0.6021 -0.6647 -0.1662
 4525TIP3    H135066   3.997   3.809   2.231 -0.6704  0.4998  1.5953
 4525TIP3    H235067   4.037   3.804   2.377 -0.3980 -3.1673  1.4937
 4526TIP3   OH235068   0.657   3.457   2.355 -0.6643  0.2474  0.0460
 4526TIP3    H135069   0.623   3.368   2.353  0.2648 -0.1260  0.1556
 4526TIP3    H235070   0.642   3.491   2.267  0.0629 -0.4529 -0.3634
 4527TIP3   OH235071   6.287   0.618   1.385  0.1572 -0.4301  0.0982
 4527TIP3    H135072   6.246   0.702   1.367  0.1451 -0.5434 -0.4255
 4527TIP3    H235073   6.367   0.619   1.333 -0.0417 -0.8962 -0.2279
 4528TIP3   OH235074   5.338   2.482   1.838  0.4311  0.0695 -0.2311
 4528TIP3    H135075   5.315   2.453   1.926 -2.0014 -0.0102 -0.8185
 4528TIP3    H235076   5.303   2.570   1.831  0.3832 -0.0129 -1.1924
 4529TIP3   OH235077   1.621   1.336  16.164 -0.1291  0.5366 -0.5251
 4529TIP3    H135078   1.588   1.257  16.208  0.5502 -0.0775 -1.0934
 4529TIP3    H235079   1.628   1.401  16.234  2.5026 -0.8835  0.6893
 4530TIP3   OH235080   0.227   3.814   2.042  0.3436  0.4584 -0.1232
 4530TIP3    H135081   0.308   3.862   2.024  0.1405  0.2891 -1.5308
 4530TIP3    H235082   0.257   3.729   2.076  0.7423  0.5867 -0.1532
 4531TIP3   OH235083   1.957   4.480  15.180 -0.3274  0.1324 -0.0972
 4531TIP3    H135084   1.921   4.568  15.185 -2.6141 -0.6827 -0.9986
 4531TIP3    H235085   1.973   4.466  15.087 -0.3391 -0.5227 -0.0059
 4532TIP3   OH235086   0.954   5.980   1.971  0.3512 -0.1615 -0.5102
 4532TIP3    H135087   0.981   5.889   1.980  1.6150  0.2648  0.2846
 4532TIP3    H235088   0.934   5.991   1.878  0.3828 -1.1856 -0.6455
 4533TIP3   OH235089   1.512   6.221  15.643  0.2581 -0.0093 -0.5597
 4533TIP3    H135090   1.461   6.144  15.618  1.3866 -0.5808 -1.1464
 4533TIP3    H235091   1.448   6.293  15.641 -1.0640 -1.0434  1.0061
 4534TIP3   OH235092   2.020   2.402  13.056 -0.5536  0.0562  0.0138
 4534TIP3    H135093   1.957   2.469  13.084 -0.1937  0.0498  0.9036
 4534TIP3    H235094   2.007   2.330  13.117 -1.6102 -1.1207 -1.5469
 4535TIP3   OH235095   5.591   5.544  16.062 -0.1506  0.5731 -0.2670
 4535TIP3    H135096   5.576   5.627  16.108  1.7803  0.5665  0.4349
 4535TIP3    H235097   5.608   5.481  16.131  1.1239  0.1910 -0.8982
 4536TIP3   OH235098   3.603   5.087   6.038  0.3117 -0.2094 -0.1206
 4536TIP3    H135099   3.697   5.076   6.019  1.0247 -0.3956  3.0697
 4536TIP3    H235100   3.600   5.149   6.110 -2.0139 -0.5624  0.1584
 4537TIP3   OH235101   0.609   1.953   0.389  0.3300  0.0832 -0.3289
 4537TIP3    H135102   0.524   1.919   0.362  0.5327 -0.4524 -0.2983
 4537TIP3    H235103   0.673   1.892   0.351  0.8180  1.6358 -2.1298
 4538TIP3   OH235104   1.068   1.349   4.208  0.1043 -0.1780 -0.4820
 4538TIP3    H135105   1.002   1.288   4.174 -0.0175  0.0900 -0.7345
 4538TIP3    H235106   1.110   1.302   4.279 -0.4156 -0.3215 -0.2645
 4539TIP3   OH235107   5.687   3.776  11.465  0.4392  0.2700 -0.5859
 4539TIP3    H135108   5.742   3.854  11.452  3.1095 -1.5786 -1.0303
 4539TIP3    H235109   5.667   3.746  11.376 -0.0860  0.0891 -0.4085
 4540TIP3   OH235110   2.924   5.382   6.036  0.3011  0.5793 -0.3243
 4540TIP3    H135111   2.964   5.412   6.118  0.2405  1.8563 -0.7490
 4540TIP3    H235112   2.830   5.393   6.050  0.1829 -0.6124 -0.0388
 4541TIP3   OH235113   2.539   2.233  11.790  0.2732 -0.1847 -0.3455
 4541TIP3    H135114   2.633   2.232  11.774  0.2856  0.9194 -0.4636
 4541TIP3    H235115   2.501   2.238  11.702  0.1231 -0.2015 -0.2810
 4542TIP3   OH235116   1.227   6.329  16.936  0.8857 -0.0837  0.6955
 4542TIP3    H135117   1.147   6.379  16.922  1.6773  1.1705  0.5473
 4542TIP3    H235118   1.283   6.351  16.861 -0.0091 -3.9137 -1.3986
 4543TIP3   OH235119   1.657   5.465   0.402  0.0463  0.2064 -0.1601
 4543TIP3    H135120   1.713   5.510   0.339  0.3980  0.7853  0.5504
 4543TIP3    H235121   1.595   5.532   0.431 -0.2990 -0.1328 -0.1146
 4544TIP3   OH235122   1.035   0.652  13.246  0.2868 -0.6864 -0.5993
 4544TIP3    H135123   0.952   0.660  13.199 -0.0553 -2.1178 -0.2785
 4544TIP3    H235124   1.017   0.590  13.316  1.5156 -0.6721 -0.2475
 4545TIP3   OH235125   0.586   0.588  11.684 -0.3992 -0.2211  0.2380
 4545TIP3    H135126   0.574   0.523  11.752 -1.1951  0.9387  1.2504
 4545TIP3    H235127   0.501   0.593  11.639  0.0534 -0.8223 -0.7177
 4546TIP3   OH235128   3.182   1.192   0.848  0.1737 -0.4173 -0.5190
 4546TIP3    H135129   3.230   1.116   0.880 -0.2189 -0.8692 -0.9755
 4546TIP3    H235130   3.195   1.190   0.753 -2.1444 -1.5789 -0.8915
 4547TIP3   OH235131   2.968   6.095  12.929 -0.3369  0.3667 -0.5562
 4547TIP3    H135132   2.923   6.095  13.014 -0.9403 -2.3350 -0.7935
 4547TIP3    H235133   2.907   6.141  12.871 -2.1158 -1.7267 -0.4764
 4548TIP3   OH235134   4.581   5.912   3.559 -0.0169  0.0883 -0.4534
 4548TIP3    H135135   4.637   5.909   3.482 -0.0554  1.4985 -0.5601
 4548TIP3    H235136   4.531   5.830   3.556  2.8768 -1.8617  0.3526
 4549TIP3   OH235137   2.231   1.692  13.720 -0.0992  0.5535  0.0209
 4549TIP3    H135138   2.263   1.782  13.726  0.0783  0.4658  0.3750
 4549TIP3    H235139   2.194   1.686  13.632  1.1122  0.5662 -0.5017
 4550TIP3   OH235140   1.046   5.756  13.998 -0.3912 -0.7442 -0.3427
 4550TIP3    H135141   1.083   5.842  14.022  1.7659 -1.9511  0.9592
 4550TIP3    H235142   1.093   5.731  13.919 -1.2531 -0.5990 -0.9067
 4551TIP3   OH235143   0.137   2.568  10.672  0.3851 -0.2707  0.3230
 4551TIP3    H135144   0.138   2.663  10.682  0.5763  0.0727 -2.3349
 4551TIP3    H235145   0.205   2.549  10.607  0.3260 -2.2445  0.7496
 4552TIP3   OH235146   6.141   4.190  13.043 -0.2290  0.0865 -0.2904
 4552TIP3    H135147   6.053   4.166  13.013 -0.3484  0.7080 -0.4520
 4552TIP3    H235148   6.158   4.131  13.116 -0.5340 -0.4458 -0.6397
 4553TIP3   OH235149   5.056   6.116   2.145  0.2670 -0.3155  0.3160
 4553TIP3    H135150   4.991   6.083   2.208  0.6787 -0.0639  0.8774
 4553TIP3    H235151   5.072   6.206   2.172 -0.2346  0.0979 -0.7094
 4554TIP3   OH235152   1.752   3.636  16.719  0.2379 -0.4873 -0.8247
 4554TIP3    H135153   1.782   3.715  16.763 -0.5342 -0.8354  0.3766
 4554TIP3    H235154   1.832   3.587  16.700  0.6284 -0.0005 -0.4501
 4555TIP3   OH235155   3.418   4.636   5.694  0.0024 -0.5582  0.7776
 4555TIP3    H135156   3.473   4.676   5.761 -0.1500 -2.1095  1.8940
 4555TIP3    H235157   3.466   4.557   5.669  0.1278  0.0554 -1.0865
 4556TIP3   OH235158   2.034   5.312   0.099 -0.7464 -0.1440  0.2176
 4556TIP3    H135159   1.975   5.237   0.089 -0.0846 -0.3442 -4.0338
 4556TIP3    H235160   2.119   5.273   0.119 -0.7850 -0.4031 -0.1063
 4557TIP3   OH235161   6.290   1.270  13.599 -0.0671  0.1963 -0.1227
 4557TIP3    H135162   6.315   1.235  13.685  1.7568 -1.6608 -1.3332
 4557TIP3    H235163   6.194   1.263  13.599 -0.0966 -0.0454  1.6380
 4558TIP3   OH235164   6.124   3.368  11.109  0.6050  1.0379 -0.5004
 4558TIP3    H135165   6.106   3.459  11.086 -0.6255  1.0973  0.6264
 4558TIP3    H235166   6.039   3.330  11.131  1.3810  0.2729  1.3426
 4559TIP3   OH235167   2.467   6.474  13.686  0.5260  0.2131 -0.1134
 4559TIP3    H135168   2.385   6.461  13.639  0.7373  1.4861 -0.8634
 4559TIP3    H235169   2.490   6.386  13.717 -2.2129  0.0733  2.0261
 4560TIP3   OH235170   2.236   6.421  12.396  0.0512 -0.0403 -0.3821
 4560TIP3    H135171   2.148   6.387  12.412 -1.3502  2.0661 -2.7640
 4560TIP3    H235172   2.254   6.399  12.305  0.4961  2.4284 -0.9729
 4561TIP3   OH235173   0.403   2.231  12.488 -0.3922  0.2220  0.0335
 4561TIP3    H135174   0.377   2.302  12.547 -1.0537 -0.9743  1.2367
 4561TIP3    H235175   0.321   2.188  12.464 -0.0283  0.0221 -0.9222
 4562TIP3   OH235176   5.636   5.444  12.731 -0.3180  0.4772  0.4011
 4562TIP3    H135177   5.586   5.512  12.685  0.1215 -0.1243 -1.0333
 4562TIP3    H235178   5.716   5.434  12.679 -0.0869 -0.6915  0.9513
 4563TIP3   OH235179   5.899   2.974  11.660  0.6781  0.1680  0.4061
 4563TIP3    H135180   5.987   3.012  11.665  0.3315  0.8623  3.5157
 4563TIP3    H235181   5.861   2.993  11.746 -2.5306 -0.1249 -0.8490
 4564TIP3   OH235182   1.628   0.975   0.614  0.2133 -0.2803 -0.6699
 4564TIP3    H135183   1.591   1.062   0.629 -1.1990 -0.7187 -1.3530
 4564TIP3    H235184   1.574   0.939   0.543  0.3179 -1.9644  0.0613
 4565TIP3   OH235185   2.576   1.693  13.509  0.5834  0.1300  0.0368
 4565TIP3    H135186   2.648   1.683  13.571  0.6268 -0.4136 -0.1007
 4565TIP3    H235187   2.533   1.775  13.535  1.0847  0.3144  0.2829
 4566TIP3   OH235188   6.413   1.892  13.981  0.2837 -0.0197  0.2428
 4566TIP3    H135189   6.343   1.907  13.918  0.5064  2.4648  0.4990
 4566TIP3    H235190   6.444   1.979  14.004  2.7472 -0.9938  0.9533
 4567TIP3   OH235191   4.467   2.175  12.458 -0.7700  0.0089 -0.3657
 4567TIP3    H135192   4.390   2.170  12.401 -2.2472  1.3478  1.3809
 4567TIP3    H235193   4.471   2.088  12.500 -1.2676 -0.1115 -0.5585
 4568TIP3   OH235194   3.008   6.767  16.478 -0.6057 -0.4307 -0.7898
 4568TIP3    H135195   3.068   6.704  16.516 -1.8854 -0.4314  1.3849
 4568TIP3    H235196   3.061   6.817  16.416  0.6599 -2.9825 -1.9131
 4569TIP3   OH235197   4.653   1.407  12.761 -0.2067 -0.3266 -0.2701
 4569TIP3    H135198   4.588   1.431  12.694  0.3801 -0.4492 -0.8987
 4569TIP3    H235199   4.649   1.478  12.825  0.0186  0.3819 -1.0253
 4570TIP3   OH235200   6.787   4.756   1.476  0.6228  1.0166  0.3674
 4570TIP3    H135201   6.870   4.768   1.430  0.7072  0.6972  0.4288
 4570TIP3    H235202   6.812   4.742   1.567  0.5916 -0.1961  0.2159
 4571TIP3   OH235203   4.978   0.749  11.145  0.5978  0.0210 -0.6927
 4571TIP3    H135204   4.903   0.800  11.115  0.7897  0.2919 -0.7248
 4571TIP3    H235205   4.948   0.704  11.223  0.3544  0.0031 -0.7970
 4572TIP3   OH235206   0.349   5.264   5.009  0.2670  0.0024 -0.1441
 4572TIP3    H135207   0.372   5.324   5.080  2.0932 -1.0688  0.2575
 4572TIP3    H235208   0.423   5.271   4.948  0.5094 -1.7405 -0.1098
 4573TIP3   OH235209   5.955   3.115   6.098  0.1179 -0.1239 -0.1299
 4573TIP3    H135210   5.927   3.025   6.115 -0.2717  0.4010  2.6425
 4573TIP3    H235211   6.040   3.122   6.140  0.1814  0.7659 -0.3788
 4574TIP3   OH235212   4.040   3.683   4.782 -0.2850  0.1200  0.8054
 4574TIP3    H135213   4.108   3.667   4.716 -1.1941 -1.0775  0.1054
 4574TIP3    H235214   4.008   3.771   4.763  0.4912  0.3615  0.5995
 4575TIP3   OH235215   2.407   0.908  15.718  0.3323  0.1645  0.3175
 4575TIP3    H135216   2.420   0.879  15.809  0.7426  0.3180  0.3129
 4575TIP3    H235217   2.393   1.002  15.725 -0.3703  0.0687  0.2795
 4576TIP3   OH235218   6.078   4.906  10.738  0.1068  0.1575 -0.2922
 4576TIP3    H135219   6.139   4.972  10.771 -0.9084  0.5734  0.7862
 4576TIP3    H235220   6.053   4.938  10.651  0.7033  0.4481 -0.3633
 4577TIP3   OH235221   2.574   4.224  16.941  0.2062  0.1521 -0.1634
 4577TIP3    H135222   2.640   4.157  16.921 -0.8967 -0.6209 -1.3688
 4577TIP3    H235223   2.616   4.280  17.006  1.1169 -1.8206  1.0566
 4578TIP3   OH235224   2.969   3.405  10.707 -0.1011  0.2824 -0.0725
 4578TIP3    H135225   3.008   3.355  10.634  1.5390  1.3594  0.0020
 4578TIP3    H235226   3.008   3.492  10.699  0.7031  0.2378  2.5104
 4579TIP3   OH235227   3.304   5.700  16.015 -0.6844 -0.4594 -0.0230
 4579TIP3    H135228   3.243   5.762  16.055  0.3095 -0.1181  0.9962
 4579TIP3    H235229   3.273   5.692  15.925 -1.6836  0.4214  0.2173
 4580TIP3   OH235230   4.471   0.041  11.651 -0.4634 -0.1688 -0.1111
 4580TIP3    H135231   4.457   0.071  11.561 -0.8675  0.0689  0.0273
 4580TIP3    H235232   4.548   0.088  11.681 -0.1199 -0.5096 -0.4504
 4581TIP3   OH235233   4.156   5.078   3.787  0.2558  0.1489 -0.1207
 4581TIP3    H135234   4.127   5.144   3.725 -0.6875  1.1881  1.3775
 4581TIP3    H235235   4.193   5.127   3.860  0.7847 -1.0202  0.4347
 4582TIP3   OH235236   2.878   3.352  14.096 -0.0536  0.4904  0.3882
 4582TIP3    H135237   2.807   3.353  14.031 -0.4194 -0.2769  0.7627
 4582TIP3    H235238   2.838   3.389  14.175 -0.2333 -0.5033  0.7791
 4583TIP3   OH235239   2.488   1.182  16.055 -0.2947  0.1261 -0.1329
 4583TIP3    H135240   2.491   1.095  16.014  2.0616  0.0734  0.0420
 4583TIP3    H235241   2.414   1.226  16.011 -0.7864 -1.5279 -1.0691
 4584TIP3   OH235242   4.298   0.150   3.944  0.5402  0.0472 -0.2098
 4584TIP3    H135243   4.238   0.089   3.901  0.5839  0.0993 -0.3464
 4584TIP3    H235244   4.381   0.137   3.898  0.5453  0.2190 -0.2479
 4585TIP3   OH235245   5.797   3.875   3.743 -0.4448 -0.5420  0.3874
 4585TIP3    H135246   5.704   3.860   3.761 -0.7828  0.8648 -0.0963
 4585TIP3    H235247   5.813   3.833   3.658 -0.5788 -0.9636  0.5687
 4586TIP3   OH235248   1.063   0.307  11.202 -0.4331  0.2466  0.2750
 4586TIP3    H135249   1.079   0.213  11.189 -0.0377  0.4677 -0.9900
 4586TIP3    H235250   0.973   0.320  11.171 -0.6829  0.2034  0.9618
 4587TIP3   OH235251   5.362   6.543   4.920  0.5743  0.3226 -0.0036
 4587TIP3    H135252   5.446   6.520   4.961  0.3802  0.0221  0.2296
 4587TIP3    H235253   5.321   6.458   4.901 -0.8589  0.4001  2.3183
 4588TIP3   OH235254   0.786   0.303  15.037 -0.2773 -0.2902  0.1586
 4588TIP3    H135255   0.763   0.236  15.102 -3.1918  1.7469  1.3908
 4588TIP3    H235256   0.840   0.365  15.086 -0.1068 -0.1810 -0.1697
 4589TIP3   OH235257   1.156   6.563  13.801 -0.4750  0.3066  0.3357
 4589TIP3    H135258   1.115   6.606  13.725  0.2310  0.3481 -0.0326
 4589TIP3    H235259   1.229   6.620  13.824  0.9271 -1.0361 -0.6083
 4590TIP3   OH235260   6.696   1.856   2.837  0.2595  0.3203  0.0580
 4590TIP3    H135261   6.646   1.797   2.893  0.8663 -0.7300 -0.4812
 4590TIP3    H235262   6.783   1.816   2.831  0.7456  1.3576 -0.1905
 4591TIP3   OH235263   1.635   1.042  14.481  0.1967 -0.8020  0.0042
 4591TIP3    H135264   1.607   0.950  14.477  0.0489 -0.7462 -0.2993
 4591TIP3    H235265   1.724   1.039  14.515  1.1714 -1.2600 -2.3569
 4592TIP3   OH235266   1.846   4.118   4.200 -0.3094  0.0251 -0.0161
 4592TIP3    H135267   1.765   4.090   4.157 -0.1538 -1.2932  0.4895
 4592TIP3    H235268   1.820   4.192   4.255 -0.7196  1.0495 -1.5239
 4593TIP3   OH235269   2.300   1.274   5.350 -0.2506 -0.0589  0.2014
 4593TIP3    H135270   2.284   1.186   5.316 -0.9211  0.0302  0.2648
 4593TIP3    H235271   2.370   1.309   5.296  0.2163 -0.7333  0.3566
 4594TIP3   OH235272   4.412   1.181   2.412  0.3047  0.0425  0.4748
 4594TIP3    H135273   4.351   1.236   2.460 -0.0032 -1.1064  1.4380
 4594TIP3    H235274   4.356   1.118   2.365  0.6919 -0.1412  0.2477
 4595TIP3   OH235275   6.122   5.233  17.191  0.3737  0.1389  0.4891
 4595TIP3    H135276   6.107   5.286  17.112 -1.7870 -1.1153 -0.0182
 4595TIP3    H235277   6.188   5.169  17.165 -0.1041 -0.0774 -0.2120
 4596TIP3   OH235278   6.396   4.338   1.413  0.0658  0.4974  0.1411
 4596TIP3    H135279   6.460   4.267   1.425  0.0544  0.6986  1.5516
 4596TIP3    H235280   6.373   4.333   1.320 -0.8887 -2.1750  0.4183
 4597TIP3   OH235281   2.725   2.763  13.647  0.3335 -0.1565  0.2056
 4597TIP3    H135282   2.754   2.732  13.561 -0.6213 -0.6839  0.0482
 4597TIP3    H235283   2.803   2.799  13.688  0.8655 -0.1698 -0.7710
 4598TIP3   OH235284   0.020   4.162   0.316  0.7203  0.5637 -0.1884
 4598TIP3    H135285  -0.002   4.242   0.364 -0.7761 -0.0615  0.2227
 4598TIP3    H235286   0.115   4.164   0.309  0.6554  3.3504 -1.8957
 4599TIP3   OH235287   1.594   1.624   5.318 -0.2780 -0.6984 -0.1685
 4599TIP3    H135288   1.623   1.629   5.409 -0.5317 -0.4589 -0.0998
 4599TIP3    H235289   1.676   1.620   5.267 -0.0681  0.9105 -0.0340
 4600TIP3   OH235290   5.782   4.131   5.320  0.4205  0.0203 -0.1126
 4600TIP3    H135291   5.856   4.076   5.345  0.0528  0.0105  1.0625
 4600TIP3    H235292   5.797   4.214   5.365  0.7306  0.7387 -1.4935
 4601TIP3   OH235293   6.021   0.188  10.922 -0.1447 -0.2517 -0.5798
 4601TIP3    H135294   6.095   0.180  10.982  0.9188 -0.7012 -1.9081
 4601TIP3    H235295   6.005   0.282  10.916  1.3364 -0.0186 -1.4310
 4602TIP3   OH235296   1.550   2.998   5.728  0.2040  0.1447 -0.1712
 4602TIP3    H135297   1.621   3.034   5.782 -0.5700  0.6399  0.5466
 4602TIP3    H235298   1.573   2.906   5.716  0.5451  0.0919  0.7841
 4603TIP3   OH235299   4.368   0.497   4.826  0.5748 -0.0413 -0.0033
 4603TIP3    H135300   4.323   0.466   4.904  1.1742  1.5518  1.0146
 4603TIP3    H235301   4.362   0.592   4.831  1.3071  0.1139 -1.5101
 4604TIP3   OH235302   0.040   6.642  13.830  0.2160 -0.0421  0.4582
 4604TIP3    H135303   0.069   6.688  13.752 -1.6956  0.4108 -0.0494
 4604TIP3    H235304   0.021   6.553  13.800 -2.6537  0.6915 -0.2068
 4605TIP3   OH235305   3.555   6.805  16.073 -0.3361 -0.2535 -0.3324
 4605TIP3    H135306   3.648   6.814  16.094 -0.6806 -1.0183  1.7270
 4605TIP3    H235307   3.551   6.731  16.012  0.4693  0.4275 -1.2596
 4606TIP3   OH235308   3.986   3.128   2.726 -0.0896  0.7253 -0.1469
 4606TIP3    H135309   4.001   3.185   2.801 -0.8082 -1.4858  1.7908
 4606TIP3    H235310   3.927   3.178   2.670 -1.0054  1.7661  1.6426
 4607TIP3   OH235311   4.056   0.584   4.176  0.0810  0.2818  0.5222
 4607TIP3    H135312   4.145   0.611   4.152  0.2946 -0.0010  1.0001
 4607TIP3    H235313   4.037   0.509   4.120 -0.5006  1.3571 -0.7899
 4608TIP3   OH235314   3.092   1.974   2.345 -0.0265  0.4933  0.2372
 4608TIP3    H135315   3.163   1.939   2.399  0.1911 -0.4943 -0.6606
 4608TIP3    H235316   3.122   2.062   2.319  0.4975  0.4055  0.5438
 4609TIP3   OH235317   6.250   4.522   2.046 -0.2470 -0.1883 -0.4011
 4609TIP3    H135318   6.266   4.489   2.134  1.5194 -0.4318 -0.7661
 4609TIP3    H235319   6.188   4.593   2.058  0.6636  0.3997  1.1790
 4610TIP3   OH235320   5.932   4.205   4.965  0.0988 -0.5497  0.1284
 4610TIP3    H135321   5.987   4.153   5.023  0.4401  0.8261  1.0847
 4610TIP3    H235322   5.993   4.246   4.904 -0.2448 -1.8825 -1.1603
 4611TIP3   OH235323   6.771   5.380  12.669 -0.2340 -0.1555  0.3019
 4611TIP3    H135324   6.735   5.424  12.592 -2.0327  3.1474  2.7783
 4611TIP3    H235325   6.829   5.444  12.709  1.7642 -2.2872  1.0674
 4612TIP3   OH235326   3.972   2.881   3.539 -0.4493 -0.0414  0.1398
 4612TIP3    H135327   3.880   2.905   3.536 -1.0800 -2.3085 -0.8715
 4612TIP3    H235328   3.979   2.821   3.614  0.2454  0.2904  0.3465
 4613TIP3   OH235329   1.826   5.656  16.381  0.7610  0.1108 -0.3882
 4613TIP3    H135330   1.828   5.673  16.287 -0.9768  1.5086 -0.2294
 4613TIP3    H235331   1.733   5.660  16.405  1.1672 -0.0399  1.4200
 4614TIP3   OH235332   1.619   3.775   4.689 -0.3371  0.3366  0.6286
 4614TIP3    H135333   1.684   3.750   4.754  1.6904  1.6411 -0.7487
 4614TIP3    H235334   1.665   3.837   4.632 -2.2095 -0.1705 -1.6021
 4615TIP3   OH235335   5.584   5.564  15.544 -0.1227  0.2396  0.1460
 4615TIP3    H135336   5.591   5.614  15.625 -1.8260 -0.3047  0.6630
 4615TIP3    H235337   5.582   5.631  15.475 -1.0536  0.8623  0.7452
 4616TIP3   OH235338   5.931   3.165   3.188  0.2603  0.0216  0.6182
 4616TIP3    H135339   5.909   3.248   3.145 -0.5545 -0.3941  0.1959
 4616TIP3    H235340   5.876   3.163   3.266 -1.3603 -1.0619 -0.4841
 4617TIP3   OH235341   5.553   5.589  14.464 -0.2507  0.4311 -0.8883
 4617TIP3    H135342   5.629   5.532  14.480 -1.1225 -0.5722 -0.2116
 4617TIP3    H235343   5.548   5.595  14.368 -0.3655 -0.9830 -0.9975
 4618TIP3   OH235344   2.884   0.596   0.720  0.1749 -0.0666  0.3966
 4618TIP3    H135345   2.961   0.640   0.683 -0.0302 -0.4047 -0.4563
 4618TIP3    H235346   2.899   0.597   0.814  1.2069 -0.0808  0.2455
 4619TIP3   OH235347   6.003   1.946   3.749 -0.3270 -0.3616  0.5001
 4619TIP3    H135348   6.078   1.987   3.792 -0.0475 -0.4709  0.1262
 4619TIP3    H235349   5.944   2.018   3.728 -0.6014 -0.3361  1.3137
 4620TIP3   OH235350   5.596   4.995   1.570  0.1373 -0.2161 -0.3576
 4620TIP3    H135351   5.677   5.015   1.616 -0.6823 -0.0053  1.0876
 4620TIP3    H235352   5.566   4.913   1.609  0.2454 -0.9396 -1.7355
 4621TIP3   OH235353   4.888   1.560   1.900 -0.7667 -0.4354 -0.4840
 4621TIP3    H135354   4.863   1.469   1.884 -0.7804 -0.3130 -1.2309
 4621TIP3    H235355   4.961   1.555   1.961  2.1284 -1.2720 -3.6568
 4622TIP3   OH235356   0.549   1.643  13.915  0.6277  0.3294 -0.0958
 4622TIP3    H135357   0.470   1.640  13.970  0.0085  1.7676 -0.8452
 4622TIP3    H235358   0.518   1.675  13.831  1.2974 -3.2507 -1.8738
 4623TIP3   OH235359   5.392   1.600  13.816  0.2018  0.7063  0.1795
 4623TIP3    H135360   5.459   1.595  13.884 -0.5626  0.3351  0.9185
 4623TIP3    H235361   5.310   1.614  13.863 -0.4739 -0.4902 -0.5847
 4624TIP3   OH235362   6.268   4.422   2.297 -0.5860  0.2882 -0.5186
 4624TIP3    H135363   6.253   4.327   2.296 -0.2051  0.2085  0.3764
 4624TIP3    H235364   6.353   4.432   2.341 -1.3317  1.1293  0.7866
 4625TIP3   OH235365   6.420   0.108  16.605 -0.3012  0.4246 -0.3799
 4625TIP3    H135366   6.468   0.036  16.563 -0.8692 -0.3296  0.2389
 4625TIP3    H235367   6.335   0.071  16.627 -0.9228  1.5395 -0.8068
 4626TIP3   OH235368   1.864   3.991  14.060  0.0693 -0.1977 -0.2555
 4626TIP3    H135369   1.959   3.987  14.044 -0.0034  0.0274 -0.7604
 4626TIP3    H235370   1.825   3.981  13.973 -0.4202 -1.9523  0.1234
 4627TIP3   OH235371   0.340   1.825  16.020 -0.3782  0.6492 -0.3417
 4627TIP3    H135372   0.244   1.828  16.018 -0.4869 -1.6372 -0.3870
 4627TIP3    H235373   0.365   1.892  16.084 -2.1210 -0.1847  1.3030
 4628TIP3   OH235374   0.399   3.830   0.272 -0.2433 -0.5142 -0.1840
 4628TIP3    H135375   0.337   3.775   0.224 -1.1489 -0.0854  0.4650
 4628TIP3    H235376   0.352   3.856   0.351  1.2355 -1.2628  0.9900
 4629TIP3   OH235377   6.125   6.571  11.864  0.7144  0.0744 -0.0845
 4629TIP3    H135378   6.059   6.600  11.927  0.7485 -0.3679  0.1598
 4629TIP3    H235379   6.186   6.645  11.858 -0.4164  0.9665 -1.2086
 4630TIP3   OH235380   3.250   4.707   1.844  0.3423  0.5637  0.0965
 4630TIP3    H135381   3.245   4.731   1.937  2.9265  0.6511  0.2786
 4630TIP3    H235382   3.284   4.785   1.801 -0.7395  0.4882 -0.9482
 4631TIP3   OH235383   5.570   5.021  15.140  0.3280 -0.2496 -0.1487
 4631TIP3    H135384   5.574   5.112  15.112  2.2665 -0.2101  0.0820
 4631TIP3    H235385   5.581   4.971  15.059 -0.0307 -0.2631 -0.1888
 4632TIP3   OH235386   4.674   0.489   2.722  0.4240 -0.7434  0.1018
 4632TIP3    H135387   4.608   0.559   2.728  1.1766 -0.0595  0.6187
 4632TIP3    H235388   4.743   0.517   2.781  0.0020 -2.7651  1.6406
 4633TIP3   OH235389   6.496   5.752  15.465  0.1074  0.4364 -0.3827
 4633TIP3    H135390   6.533   5.831  15.428 -2.9199  0.8922 -2.7843
 4633TIP3    H235391   6.502   5.765  15.560 -0.1983  3.4825 -0.6920
 4634TIP3   OH235392   0.754   2.159   0.145  0.3605 -0.0087 -0.2766
 4634TIP3    H135393   0.713   2.195   0.224  1.7465  3.0157 -0.8061
 4634TIP3    H235394   0.837   2.123   0.176  1.9195  3.0931 -0.4758
 4635TIP3   OH235395   5.658   4.092   1.180 -0.0216  0.1211 -0.3880
 4635TIP3    H135396   5.601   4.127   1.249  0.2660 -1.9689  1.0121
 4635TIP3    H235397   5.604   4.028   1.134 -0.2094  1.4833 -2.1973
 4636TIP3   OH235398   1.436   1.583  16.853 -0.4960  0.0580  0.4884
 4636TIP3    H135399   1.460   1.608  16.942 -1.0956  1.0034  0.4003
 4636TIP3    H235400   1.520   1.570  16.809  0.0737  3.9886 -0.0059
 4637TIP3   OH235401   3.734   2.869  16.077  0.4303  0.3434 -0.1813
 4637TIP3    H135402   3.641   2.881  16.098  0.5064  0.4795  0.0729
 4637TIP3    H235403   3.778   2.868  16.162  0.6178 -0.0982 -0.2786
 4638TIP3   OH235404   3.731   0.636   5.488  0.0534  0.0009  0.4548
 4638TIP3    H135405   3.825   0.649   5.475 -0.3115  3.4771  0.3772
 4638TIP3    H235406   3.720   0.638   5.583 -0.0834  1.5164  0.4325
 4639TIP3   OH235407   1.643   4.658   2.806 -0.5302  0.1188  0.2666
 4639TIP3    H135408   1.604   4.733   2.851 -0.4907 -1.0271  2.3145
 4639TIP3    H235409   1.652   4.590   2.874 -0.9675 -1.9089 -1.5761
 4640TIP3   OH235410   4.316   6.038   3.011  0.0592  0.2920 -0.3357
 4640TIP3    H135411   4.307   5.995   2.925 -0.9012  1.1246 -0.6758
 4640TIP3    H235412   4.276   5.977   3.072  0.0986  0.0078 -0.5900
 4641TIP3   OH235413   5.419   1.042   5.896  0.1370 -0.3253  0.0636
 4641TIP3    H135414   5.335   1.006   5.926 -0.0394  0.1668  0.1650
 4641TIP3    H235415   5.395   1.110   5.834  0.4968 -1.1711 -1.0371
 4642TIP3   OH235416   5.076   5.155   5.675  0.0169 -0.0587 -0.5168
 4642TIP3    H135417   5.106   5.065   5.673 -0.1614 -0.2280  1.6782
 4642TIP3    H235418   4.997   5.153   5.730 -0.1864  1.3854 -0.6957
 4643TIP3   OH235419   1.647   3.924  15.088  0.6083  0.3233  0.0241
 4643TIP3    H135420   1.689   3.955  15.008  1.8593 -1.3842 -0.0331
 4643TIP3    H235421   1.580   3.862  15.058 -1.6018  2.4883  0.1571
 4644TIP3   OH235422   1.348   6.305  13.682 -0.5401 -0.2880 -0.3431
 4644TIP3    H135423   1.414   6.256  13.634 -1.9571 -0.5840 -2.0943
 4644TIP3    H235424   1.390   6.389  13.701  0.6350 -0.7988 -0.5942
 4645TIP3   OH235425   3.880   3.293   3.275 -0.4857 -0.3553  0.2916
 4645TIP3    H135426   3.810   3.266   3.334  0.7094 -3.1705  0.5645
 4645TIP3    H235427   3.955   3.309   3.331 -0.3254  0.7193 -0.1859
 4646TIP3   OH235428   3.322   1.159   1.179 -0.4549  0.2376 -0.5763
 4646TIP3    H135429   3.405   1.136   1.138 -0.9897 -1.5390 -0.7758
 4646TIP3    H235430   3.332   1.250   1.205  1.6400  0.0022 -0.3685
 4647TIP3   OH235431   3.303   5.526  15.335  0.3072 -0.2151 -0.1371
 4647TIP3    H135432   3.236   5.536  15.402  0.8862  2.3089  0.1590
 4647TIP3    H235433   3.382   5.503  15.384  0.0288 -1.6734 -0.3332
 4648TIP3   OH235434   5.617   6.335  15.392 -0.2934  0.0934  0.0418
 4648TIP3    H135435   5.534   6.381  15.407 -0.6782 -0.8222  0.7897
 4648TIP3    H235436   5.614   6.312  15.299 -1.2860 -0.6687  0.2352
 4649TIP3   OH235437   0.106   1.554  11.889  0.0669 -0.7801 -0.8653
 4649TIP3    H135438   0.056   1.590  11.816 -0.1264  1.0322  0.1263
 4649TIP3    H235439   0.140   1.630  11.936  2.2093 -1.9124 -0.4165
 4650TIP3   OH235440   0.705   3.159  17.156 -0.5331 -0.7691  0.5607
 4650TIP3    H135441   0.681   3.067  17.151  1.0423 -1.1856 -0.0255
 4650TIP3    H235442   0.707   3.188  17.065 -2.4885  0.2936  0.8048
 4651TIP3   OH235443   6.130   0.169  13.978 -0.3033 -0.1761  0.0719
 4651TIP3    H135444   6.097   0.177  14.067  1.8783  1.4618  0.8547
 4651TIP3    H235445   6.057   0.197  13.922 -1.0713  0.7954  1.4940
 4652TIP3   OH235446   3.546   4.709   0.549 -0.1568  0.0809  0.0275
 4652TIP3    H135447   3.558   4.659   0.468 -1.5215  0.5864 -0.5220
 4652TIP3    H235448   3.481   4.775   0.526 -0.6867  0.1258  1.5824
 4653TIP3   OH235449   5.271   0.221  15.017 -0.0333 -0.3680 -0.1236
 4653TIP3    H135450   5.227   0.280  15.079 -0.3868 -0.0113 -0.7013
 4653TIP3    H235451   5.331   0.170  15.071 -0.7072 -0.4249  0.5890
 4654TIP3   OH235452   3.239   1.275  15.140  0.0182 -0.3585  0.9879
 4654TIP3    H135453   3.283   1.191  15.124  1.5829  0.5933  0.0884
 4654TIP3    H235454   3.307   1.341  15.130 -1.7632  1.2966 -1.4607
 4655TIP3   OH235455   5.651   2.336   0.984 -0.2385  0.2235 -0.3424
 4655TIP3    H135456   5.569   2.377   1.010 -0.6383  0.2327 -1.5718
 4655TIP3    H235457   5.632   2.293   0.901  0.3306 -1.9227  0.5593
 4656TIP3   OH235458   3.007   1.050   2.617 -0.1309  0.6287 -0.8461
 4656TIP3    H135459   3.073   1.019   2.679  0.6874  0.9292 -1.5486
 4656TIP3    H235460   2.993   0.975   2.559 -0.2290  0.6449 -0.8430
 4657TIP3   OH235461   3.651   3.912  16.687 -0.4985 -0.1557 -0.4467
 4657TIP3    H135462   3.657   3.841  16.750 -2.0847 -0.6718 -0.8455
 4657TIP3    H235463   3.673   3.991  16.737 -2.5757 -0.4278  0.9949
 4658TIP3   OH235464   3.705   6.257   3.410 -0.2841 -0.9341  0.0124
 4658TIP3    H135465   3.737   6.245   3.499 -2.4408  0.1630  1.0018
 4658TIP3    H235466   3.711   6.351   3.394  0.0025 -1.1041 -1.0001
 4659TIP3   OH235467   5.462   0.676  12.004  0.2943  0.2612 -0.2598
 4659TIP3    H135468   5.485   0.764  11.973 -0.1031  0.0795 -1.1070
 4659TIP3    H235469   5.377   0.659  11.964 -1.8058  1.2304  3.3674
 4660TIP3   OH235470   1.496   3.886  14.396 -0.6887  0.5072 -0.0824
 4660TIP3    H135471   1.440   3.831  14.452  0.2147 -1.2184 -0.7860
 4660TIP3    H235472   1.516   3.962  14.450 -1.0550 -0.4005  1.4055
 4661TIP3   OH235473   1.866   1.137   2.293  0.0997  0.0378 -0.2865
 4661TIP3    H135474   1.834   1.215   2.339 -0.5061  0.4510 -1.3868
 4661TIP3    H235475   1.817   1.065   2.332 -0.3448  0.3738 -0.2072
 4662TIP3   OH235476   5.974   6.431   0.554 -0.0232 -0.2485 -0.3772
 4662TIP3    H135477   6.067   6.423   0.576  0.5571 -1.4689 -2.9456
 4662TIP3    H235478   5.972   6.492   0.480 -1.5092  1.2011  0.7825
 4663TIP3   OH235479   6.813   4.252   4.427  0.1779  0.0250  0.4945
 4663TIP3    H135480   6.737   4.307   4.411  0.0417  0.1018  1.3236
 4663TIP3    H235481   6.846   4.282   4.512  0.0928 -1.1792  0.9721
 4664TIP3   OH235482   6.372   0.436  13.115  0.2107 -0.6815  0.0068
 4664TIP3    H135483   6.418   0.397  13.190  0.6607  1.7220  1.0685
 4664TIP3    H235484   6.439   0.487  13.070 -0.8827  1.1011  0.2964
 4665TIP3   OH235485   3.140   1.158  14.102  0.7365 -0.2438  0.0288
 4665TIP3    H135486   3.161   1.102  14.027  1.5443 -0.6220  0.5189
 4665TIP3    H235487   3.213   1.219  14.108  1.9789 -1.7513  1.9288
 4666TIP3   OH235488   2.074   1.732   4.593  0.6111  0.4880 -0.1268
 4666TIP3    H135489   2.110   1.762   4.677  0.9281  0.3470 -0.2134
 4666TIP3    H235490   2.146   1.742   4.531  0.1191  1.4450 -0.5741
 4667TIP3   OH235491   2.363   3.418  16.886 -0.5237  1.0394  0.2059
 4667TIP3    H135492   2.421   3.436  16.812 -0.8967 -0.4229 -0.4988
 4667TIP3    H235493   2.362   3.499  16.937  2.3972  1.0360  0.4519
 4668TIP3   OH235494   1.910   6.720  14.350 -0.0130  0.7117  0.6253
 4668TIP3    H135495   1.889   6.626  14.348 -0.7359  0.8456  1.6367
 4668TIP3    H235496   1.841   6.761  14.297  0.8148  0.6066 -0.5926
 4669TIP3   OH235497   2.835   0.977  14.306  0.3408 -0.1551 -0.0515
 4669TIP3    H135498   2.911   1.031  14.325  0.3009 -0.2194  0.2971
 4669TIP3    H235499   2.859   0.890  14.339  0.1953 -0.2216 -0.1202
 4670TIP3   OH235500   4.968   5.128  12.590 -0.4487  0.0025  0.4448
 4670TIP3    H135501   5.029   5.201  12.576  0.1505 -1.0415 -4.0490
 4670TIP3    H235502   5.013   5.071  12.653  1.1837  1.3296  0.5474
 4671TIP3   OH235503   5.363   2.471  14.045  0.0519  0.3205  0.1486
 4671TIP3    H135504   5.331   2.554  14.012 -0.6758  0.1667  0.4548
 4671TIP3    H235505   5.332   2.406  13.983 -1.2415  0.0413  1.0414
 4672TIP3   OH235506   0.043   1.764  13.793  0.3846  0.1214  0.4120
 4672TIP3    H135507  -0.052   1.768  13.793  0.3614 -0.1289  1.4414
 4672TIP3    H235508   0.066   1.726  13.708 -0.3410  1.7211 -0.5446
 4673TIP3   OH235509   3.963   4.576   0.075  0.3558  0.4142 -0.5187
 4673TIP3    H135510   4.009   4.553   0.156 -0.0896  2.4898  0.3749
 4673TIP3    H235511   4.003   4.658   0.047 -2.9021  2.5495  0.4994
 4674TIP3   OH235512   4.621   4.308  14.624  0.0734 -0.0752 -0.9112
 4674TIP3    H135513   4.706   4.267  14.639 -0.6785 -0.9973  1.3829
 4674TIP3    H235514   4.639   4.380  14.564  2.6718  0.4407  0.3522
 4675TIP3   OH235515   3.942   0.618   6.240  0.0111 -0.1096 -0.5146
 4675TIP3    H135516   3.943   0.557   6.314 -1.8709  0.2049 -0.1575
 4675TIP3    H235517   3.982   0.698   6.274 -1.9549  0.4583  0.6338
 4676TIP3   OH235518   0.835   0.412  16.816 -0.0045  0.0621 -0.1059
 4676TIP3    H135519   0.772   0.484  16.824  0.8305  0.8925 -0.8398
 4676TIP3    H235520   0.785   0.341  16.775 -0.8228  0.2197  0.5855
 4677TIP3   OH235521   4.626   5.663  13.125 -0.3759 -0.4389  0.0846
 4677TIP3    H135522   4.609   5.620  13.209 -0.0966 -0.6088  0.0545
 4677TIP3    H235523   4.665   5.748  13.148 -0.1544 -0.5515  0.1214
 4678TIP3   OH235524   3.912   3.676  14.388  0.7236  0.1499  0.2381
 4678TIP3    H135525   3.876   3.664  14.475  1.4900 -1.3419  0.3861
 4678TIP3    H235526   3.842   3.651  14.329  0.1667  1.2659  0.4053
 4679TIP3   OH235527   0.233   2.669  15.916 -0.3018  0.1872  0.0685
 4679TIP3    H135528   0.155   2.688  15.969  0.4339 -2.4341  2.3206
 4679TIP3    H235529   0.215   2.582  15.879  1.2684 -0.1649  0.0899
 4680TIP3   OH235530   4.585   3.155  12.333 -0.4470 -0.4040  0.4933
 4680TIP3    H135531   4.542   3.239  12.318 -0.4954 -0.4365  0.4480
 4680TIP3    H235532   4.635   3.139  12.253 -1.4823 -1.0414 -0.0551
 4681TIP3   OH235533   4.569   0.133   3.857 -0.1330  0.1823  0.0180
 4681TIP3    H135534   4.651   0.173   3.828  0.9777 -0.8665  1.5540
 4681TIP3    H235535   4.531   0.097   3.777  1.0132  0.5024 -0.7054
 4682TIP3   OH235536   1.614   0.918   2.393 -0.1221  0.4725 -0.1337
 4682TIP3    H135537   1.567   0.899   2.312 -0.0831  2.0971 -0.5771
 4682TIP3    H235538   1.563   0.988   2.434  0.0421 -0.1091  1.0876
 4683TIP3   OH235539   3.537   6.043  12.878  0.1199  0.2299  0.2891
 4683TIP3    H135540   3.442   6.055  12.873 -0.2107 -2.1858 -0.2514
 4683TIP3    H235541   3.560   5.997  12.797  1.9202  1.5756 -0.0199
 4684TIP3   OH235542   0.567   0.378  14.894  0.2631  0.0940 -0.1825
 4684TIP3    H135543   0.519   0.297  14.878 -0.3040  0.2001  0.9336
 4684TIP3    H235544   0.648   0.351  14.937  0.8095  0.0045 -1.2125
 4685TIP3   OH235545   6.576   0.744   2.998 -0.2401 -0.2420  0.4174
 4685TIP3    H135546   6.616   0.715   3.080 -0.1447 -1.1574  0.0554
 4685TIP3    H235547   6.532   0.826   3.021 -1.3325 -1.1449  1.6998
 4686TIP3   OH235548   0.781   4.038  12.205  0.4501 -0.0999 -0.1174
 4686TIP3    H135549   0.796   4.127  12.175 -0.0183 -0.0118 -0.0933
 4686TIP3    H235550   0.686   4.025  12.198  0.5971 -0.8875 -0.9666
 4687TIP3   OH235551   5.958   0.450   4.125 -0.4816  0.0993  0.0733
 4687TIP3    H135552   5.921   0.537   4.142 -0.0344  0.6514 -1.6047
 4687TIP3    H235553   6.014   0.462   4.049 -0.3483 -1.6517 -0.1475
 4688TIP3   OH235554   0.813   2.186  12.531  0.5674  0.3740 -0.0765
 4688TIP3    H135555   0.868   2.232  12.467  0.7138 -0.2474 -0.4075
 4688TIP3    H235556   0.849   2.212  12.616  1.9432 -0.6699 -0.2921
 4689TIP3   OH235557   2.082   3.065  13.309 -0.1284  0.4503 -0.0271
 4689TIP3    H135558   2.031   3.071  13.390  1.7325 -0.7713  1.3037
 4689TIP3    H235559   2.161   3.116  13.326  1.4372 -1.8199 -0.0916
 4690TIP3   OH235560   3.765   4.525   0.946  0.4254 -0.2895 -0.0944
 4690TIP3    H135561   3.736   4.448   0.995  0.1433 -0.5856 -0.7240
 4690TIP3    H235562   3.685   4.570   0.921  0.6006  0.6152  0.8812
 4691TIP3   OH235563   3.351   6.456   4.002  0.1637  0.2345 -0.1209
 4691TIP3    H135564   3.321   6.463   4.093  1.4413  0.9851  0.2774
 4691TIP3    H235565   3.336   6.543   3.965 -0.3652 -0.0749 -0.6392
 4692TIP3   OH235566   0.400   3.255   0.098  0.4579  0.6167 -0.1143
 4692TIP3    H135567   0.383   3.312   0.023 -1.5365 -1.2769 -1.2501
 4692TIP3    H235568   0.351   3.175   0.078  2.2979 -1.1239  1.8384
 4693TIP3   OH235569   2.926   4.912  16.681 -0.0327 -0.3008  0.3976
 4693TIP3    H135570   2.988   4.984  16.667 -1.3671  0.9332  0.5136
 4693TIP3    H235571   2.981   4.835  16.691  1.4234  0.4317 -1.2358
 4694TIP3   OH235572   3.456   6.690  11.251 -0.4235  0.4799 -0.5000
 4694TIP3    H135573   3.521   6.673  11.183 -0.8758  0.6242 -0.9721
 4694TIP3    H235574   3.380   6.726  11.204 -0.6672  0.7702  0.0999
 4695TIP3   OH235575   0.619   6.654   0.359 -0.1888  0.0264  0.0534
 4695TIP3    H135576   0.524   6.647   0.353 -0.3225  1.5797 -0.1561
 4695TIP3    H235577   0.650   6.564   0.365 -1.8313 -0.4744  2.8200
 4696TIP3   OH235578   5.314   5.466   2.628 -0.0269  0.0719  0.4918
 4696TIP3    H135579   5.348   5.516   2.702  1.0001 -0.7957  0.6322
 4696TIP3    H235580   5.278   5.386   2.667  0.6606 -0.4623  0.0547
 4697TIP3   OH235581   4.531   0.422  13.338  0.3384 -0.0780 -0.3658
 4697TIP3    H135582   4.446   0.398  13.375 -0.2735 -0.3148 -1.8442
 4697TIP3    H235583   4.586   0.441  13.414 -0.7493 -0.8630  0.6575
 4698TIP3   OH235584   1.416   5.783  14.539 -0.0106 -0.4920 -0.1739
 4698TIP3    H135585   1.466   5.790  14.620 -1.1351 -1.3719  0.6246
 4698TIP3    H235586   1.473   5.820  14.472  0.8122  0.5412  1.0653
 4699TIP3   OH235587   4.754   4.222   6.191 -0.0333  0.3878  0.2621
 4699TIP3    H135588   4.730   4.219   6.284 -1.2174  0.0477 -0.0411
 4699TIP3    H235589   4.832   4.167   6.185 -2.9023 -4.1754  0.2623
 4700TIP3   OH235590   2.063   0.061  12.694 -0.4251  0.3577  0.2750
 4700TIP3    H135591   2.035   0.134  12.749  2.7688  0.3785  2.1279
 4700TIP3    H235592   2.103   0.103  12.617  2.4231  0.8343  1.8391
 4701TIP3   OH235593   5.273   4.175   1.586 -0.1158  0.0822 -0.6140
 4701TIP3    H135594   5.300   4.106   1.646 -0.8823  1.5259  1.5137
 4701TIP3    H235595   5.345   4.238   1.587 -0.1766  0.1679 -1.1633
 4702TIP3   OH235596   2.619   6.546   2.930  0.0829  0.2989  0.0716
 4702TIP3    H135597   2.629   6.480   2.998  1.2757 -0.6219 -0.9268
 4702TIP3    H235598   2.709   6.576   2.913 -0.2406  0.8394 -0.7635
 4703TIP3   OH235599   1.254   5.873   1.909 -0.4736  0.1916  0.4513
 4703TIP3    H135600   1.311   5.887   1.834 -1.0718 -0.4994 -0.1543
 4703TIP3    H235601   1.218   5.959   1.929 -0.1643  0.4127  0.0607
 4704TIP3   OH235602   6.655   5.445   0.925 -0.3779  0.5164 -0.1197
 4704TIP3    H135603   6.694   5.513   0.980 -0.2500 -0.3133  0.8508
 4704TIP3    H235604   6.719   5.432   0.855  0.2568  0.4176  0.4676
 4705TIP3   OH235605   3.179   6.687   3.416  0.0760  0.2169 -0.3678
 4705TIP3    H135606   3.149   6.752   3.352  0.4487  0.1529 -0.6149
 4705TIP3    H235607   3.209   6.613   3.363  0.8893  0.3775 -0.1504
 4706TIP3   OH235608   0.346   3.559   3.140  0.0295  0.4955 -0.5256
 4706TIP3    H135609   0.289   3.539   3.215 -0.0549  1.2347 -0.3754
 4706TIP3    H235610   0.291   3.544   3.063 -1.4109  3.9196 -0.3501
 4707TIP3   OH235611   0.129   1.762  11.250  0.2270  0.3069 -0.0475
 4707TIP3    H135612   0.200   1.827  11.241 -0.0670  0.7245  0.5345
 4707TIP3    H235613   0.173   1.683  11.279  0.3447  0.8951  1.4780
 4708TIP3   OH235614   6.591   2.125  15.415  0.8106 -0.9075  0.2189
 4708TIP3    H135615   6.601   2.092  15.326 -2.5091 -1.7032 -0.0032
 4708TIP3    H235616   6.532   2.200  15.407  2.7233  0.8388  1.5024
 4709TIP3   OH235617   0.120   5.621  13.235  0.6241 -0.0490 -0.6688
 4709TIP3    H135618   0.043   5.589  13.281  0.9809 -0.1943 -0.1684
 4709TIP3    H235619   0.132   5.559  13.163 -0.9094  1.0984 -1.9901
 4710TIP3   OH235620   1.823   5.816   1.094  0.0325 -0.0625  0.1987
 4710TIP3    H135621   1.763   5.836   1.023  0.2226  3.6742  0.8835
 4710TIP3    H235622   1.767   5.781   1.164 -0.5193 -1.3590 -0.8597
 4711TIP3   OH235623   0.700   5.424   2.452 -0.0200  0.2728 -0.2480
 4711TIP3    H135624   0.699   5.333   2.482 -0.6717 -0.3097 -1.9281
 4711TIP3    H235625   0.790   5.452   2.464  0.0266 -0.3359  0.9827
 4712TIP3   OH235626   3.574   1.991   0.788  0.0332 -0.6698 -0.0303
 4712TIP3    H135627   3.638   1.991   0.717  1.0285  1.1456  0.7959
 4712TIP3    H235628   3.624   1.964   0.865  0.2621  2.1418  0.9147
 4713TIP3   OH235629   1.765   2.242  16.056  0.1776  0.2059 -0.5916
 4713TIP3    H135630   1.767   2.288  16.139 -0.2303 -0.1581 -0.3732
 4713TIP3    H235631   1.856   2.220  16.038  0.3540  0.9449 -0.6196
 4714TIP3   OH235632   5.041   3.531   2.434 -0.1092 -0.0255  0.1643
 4714TIP3    H135633   4.972   3.466   2.446 -0.3996  0.5426  1.6556
 4714TIP3    H235634   5.026   3.566   2.346 -0.8313 -0.9209 -0.0809
 4715TIP3   OH235635   1.543   3.581  13.327  0.2490 -0.2009  0.2260
 4715TIP3    H135636   1.567   3.616  13.241 -0.2412  1.6775  0.8135
 4715TIP3    H235637   1.608   3.617  13.387 -0.2162 -0.3839  0.8542
 4716TIP3   OH235638   5.421   2.546   4.179  0.2440 -0.2508 -0.0874
 4716TIP3    H135639   5.407   2.610   4.110  0.7598 -0.7142 -0.6356
 4716TIP3    H235640   5.356   2.478   4.164  1.1616 -0.9894 -0.9190
 4717TIP3   OH235641   0.805   3.350  11.745 -0.4160 -0.7377 -0.1741
 4717TIP3    H135642   0.857   3.274  11.771  0.2404  1.0166  4.6337
 4717TIP3    H235643   0.727   3.345  11.799 -0.7500  1.5448 -0.3670
 4718TIP3   OH235644   1.302   1.222  15.994  0.0122  0.7456 -0.0020
 4718TIP3    H135645   1.267   1.280  16.062 -0.3564 -0.7053  1.1066
 4718TIP3    H235646   1.369   1.274  15.950  1.3191  1.2968  2.4428
 4719TIP3   OH235647   3.058   6.166   3.128  0.1766 -0.3585 -0.2200
 4719TIP3    H135648   3.150   6.146   3.146  0.4721  1.0803  0.0079
 4719TIP3    H235649   3.010   6.090   3.161  1.1378 -0.2228  1.6149
 4720TIP3   OH235650   6.744   4.774  16.752  0.3193 -0.0560  0.4202
 4720TIP3    H135651   6.814   4.827  16.713  0.7599 -2.0365 -1.6872
 4720TIP3    H235652   6.767   4.768  16.845  2.9050 -0.5067 -0.1744
 4721TIP3   OH235653   1.551   2.985   0.013 -0.2384  0.3420  0.3805
 4721TIP3    H135654   1.551   2.953   0.103  1.5287 -0.9090 -0.0182
 4721TIP3    H235655   1.608   3.061   0.014 -0.8104  0.7822  0.4321
 4722TIP3   OH235656   4.787   0.477   5.117 -0.3057 -0.3516 -0.1854
 4722TIP3    H135657   4.868   0.515   5.151 -0.7928  0.6617 -0.1369
 4722TIP3    H235658   4.784   0.389   5.156  0.2800 -0.0389  0.5972
 4723TIP3   OH235659   0.132   0.831  14.805  0.0246 -0.0430 -0.3035
 4723TIP3    H135660   0.166   0.843  14.894  0.8489 -1.0799 -0.4666
 4723TIP3    H235661   0.114   0.737  14.799 -2.0144  0.3195 -0.5424
 4724TIP3   OH235662   1.038   0.279  13.517  0.6161 -0.0571  0.0357
 4724TIP3    H135663   0.998   0.239  13.440 -0.2277  2.1508 -0.7432
 4724TIP3    H235664   1.040   0.209  13.582 -3.3273 -0.7364 -0.3316
 4725TIP3   OH235665   2.563   0.794   4.018  0.0772 -0.0819 -0.6275
 4725TIP3    H135666   2.536   0.839   4.098 -0.6936  0.8767 -1.3874
 4725TIP3    H235667   2.549   0.701   4.037 -0.2081  0.1353  0.3057
 4726TIP3   OH235668   3.566   6.503   2.802  0.2390  0.2684  0.4530
 4726TIP3    H135669   3.576   6.567   2.871 -1.8747 -0.2542  1.3212
 4726TIP3    H235670   3.654   6.466   2.790  0.5470 -0.2304  3.4712
 4727TIP3   OH235671   3.628   1.104  13.162 -0.0956  0.1303  0.9016
 4727TIP3    H135672   3.540   1.067  13.156 -0.1581  0.0215  2.3610
 4727TIP3    H235673   3.655   1.091  13.253  1.0838  0.9502  0.7012
 4728TIP3   OH235674   3.407   0.440  13.271  0.4929 -0.0289  0.5378
 4728TIP3    H135675   3.373   0.401  13.351 -1.9781  1.8537  0.5188
 4728TIP3    H235676   3.329   0.451  13.215  2.0141 -0.5436 -1.8215
 4729TIP3   OH235677   6.350   1.734   0.015  0.4782 -0.1406 -0.4033
 4729TIP3    H135678   6.334   1.764  -0.074  0.1675 -1.7695 -0.9267
 4729TIP3    H235679   6.364   1.640   0.007 -1.2611 -0.6291  1.4722
 4730TIP3   OH235680   6.699   6.783  16.500  0.0704 -0.1385 -0.7981
 4730TIP3    H135681   6.748   6.784  16.582  1.2582 -1.5905 -1.4439
 4730TIP3    H235682   6.717   6.867  16.459 -0.5381  0.5989  0.4122
 4731TIP3   OH235683   1.822   6.470  14.503 -0.1045 -0.4330  0.4932
 4731TIP3    H135684   1.829   6.552  14.552  0.1965  0.0960 -0.4323
 4731TIP3    H235685   1.742   6.429  14.537  0.4824 -0.4386  1.9508
 4732TIP3   OH235686   3.186   4.539   6.335 -0.5745  0.1663  0.2465
 4732TIP3    H135687   3.213   4.447   6.342 -0.1401  0.3018  0.3527
 4732TIP3    H235688   3.115   4.538   6.271 -1.3240 -0.4002  1.0555
 4733TIP3   OH235689   4.730   1.515  16.775  0.4006  0.1671 -1.1245
 4733TIP3    H135690   4.811   1.509  16.825 -0.0826 -0.2911 -0.3765
 4733TIP3    H235691   4.730   1.436  16.720 -0.7495 -1.2370  0.7722
 4734TIP3   OH235692   6.519   1.507   5.621 -0.1437 -0.0450  0.1287
 4734TIP3    H135693   6.558   1.588   5.590 -1.4033 -0.6845 -3.5613
 4734TIP3    H235694   6.443   1.536   5.672  0.9576  1.0500  1.2372
 4735TIP3   OH235695   2.146   0.993  12.394  0.5580 -0.4059  0.0712
 4735TIP3    H135696   2.070   0.974  12.339  0.0716  0.6811  0.3309
 4735TIP3    H235697   2.175   0.908  12.428 -0.4539 -0.8400 -0.1455
 4736TIP3   OH235698   4.909   1.640  12.435  0.2576  0.2701  0.1208
 4736TIP3    H135699   4.827   1.670  12.475  0.2752 -0.1865  0.5009
 4736TIP3    H235700   4.904   1.545  12.438  1.0205  0.2414  0.5972
 4737TIP3   OH235701   3.297   4.940  16.840 -0.0124  0.0718 -0.1763
 4737TIP3    H135702   3.254   5.005  16.896 -0.0704  0.1378 -0.2974
 4737TIP3    H235703   3.352   4.992  16.781  1.5927 -0.1089  1.1256
 4738TIP3   OH235704   0.821   6.032   4.795  0.2716 -0.3411  0.1258
 4738TIP3    H135705   0.869   5.951   4.816 -0.1593 -1.1803 -1.8900
 4738TIP3    H235706   0.793   6.020   4.704 -1.8279  1.0993  0.5204
 4739TIP3   OH235707   0.985   4.099  15.806  0.3847 -0.2978 -0.1233
 4739TIP3    H135708   1.068   4.094  15.760  0.3606 -0.2519 -0.1715
 4739TIP3    H235709   0.955   4.008  15.812  0.8583 -0.4076  0.6673
 4740TIP3   OH235710   6.184   0.095   1.920 -0.2469  0.3553 -0.2831
 4740TIP3    H135711   6.133   0.056   1.990  0.9599 -0.6437  0.0669
 4740TIP3    H235712   6.273   0.097   1.953 -0.1152  2.7697 -0.5845
 4741TIP3   OH235713   0.438   3.869  14.114  0.3394  0.0587 -0.4076
 4741TIP3    H135714   0.348   3.843  14.130  0.9531 -1.8945  0.2176
 4741TIP3    H235715   0.446   3.872  14.019  0.1256 -1.9551 -0.5402
 4742TIP3   OH235716   5.270   5.695  12.782  0.0423 -0.2466 -0.6344
 4742TIP3    H135717   5.202   5.752  12.819  0.6465  0.6017 -0.7888
 4742TIP3    H235718   5.304   5.646  12.858  1.4992  1.7241  0.0762
 4743TIP3   OH235719   2.099   3.343   3.961  0.1770 -0.3747 -0.0237
 4743TIP3    H135720   2.166   3.284   3.926 -0.7533 -0.9575 -0.8757
 4743TIP3    H235721   2.110   3.424   3.911 -0.2398 -0.7336 -0.7177
 4744TIP3   OH235722   1.679   5.776   3.209  0.8537 -0.3014  0.3751
 4744TIP3    H135723   1.593   5.756   3.245 -1.1624  2.3551 -2.4014
 4744TIP3    H235724   1.695   5.867   3.234  2.4742 -0.5063  0.1506
 4745TIP3   OH235725   6.258   3.457  12.118 -0.1425  0.0912 -0.4145
 4745TIP3    H135726   6.174   3.424  12.150 -1.1088  1.3435 -1.5502
 4745TIP3    H235727   6.273   3.410  12.037  0.2190 -0.0753 -0.2514
 4746TIP3   OH235728   1.412   4.749  11.109  0.4189 -1.0212  0.2717
 4746TIP3    H135729   1.382   4.704  11.030 -1.3275  2.2679 -1.1361
 4746TIP3    H235730   1.460   4.682  11.158 -1.2695 -4.1106 -1.9443
 4747TIP3   OH235731   1.872   1.662  14.490 -0.5454 -0.2346  0.0915
 4747TIP3    H135732   1.876   1.743  14.439  0.0022 -1.1263 -1.3113
 4747TIP3    H235733   1.936   1.604  14.449 -1.8517 -1.8451  0.2505
 4748TIP3   OH235734   6.472   4.075   1.498  0.5815  0.1128 -0.3704
 4748TIP3    H135735   6.377   4.073   1.500  0.5207  1.6893  0.0882
 4748TIP3    H235736   6.499   4.009   1.562 -0.2324  0.3804  0.2595
 4749TIP3   OH235737   3.186   1.246  15.862 -0.4093 -0.1773 -0.4232
 4749TIP3    H135738   3.182   1.308  15.789  1.5072 -0.3438 -0.7352
 4749TIP3    H235739   3.179   1.301  15.940  1.4068  0.5251 -0.6941
 4750TIP3   OH235740   0.709   2.886   0.562 -0.1203 -0.0009 -0.2120
 4750TIP3    H135741   0.760   2.962   0.532  0.2178  0.2250  0.8986
 4750TIP3    H235742   0.635   2.882   0.501 -0.0996  1.1727 -0.3446
 4751TIP3   OH235743   2.114   3.055   5.309  0.0128 -0.1267  0.0214
 4751TIP3    H135744   2.209   3.044   5.316  0.4447  0.0840 -3.6745
 4751TIP3    H235745   2.089   2.998   5.237 -2.0039  2.6282 -1.6422
 4752TIP3   OH235746   4.202   0.727   1.112  0.8331  0.5284 -0.0937
 4752TIP3    H135747   4.249   0.772   1.182  0.6643  2.2478 -1.0197
 4752TIP3    H235748   4.270   0.691   1.055  0.9871 -2.1075  1.6193
 4753TIP3   OH235749   2.410   0.622  15.858  0.3294  0.2964 -0.0554
 4753TIP3    H135750   2.456   0.577  15.787 -0.3129 -0.0894 -0.2344
 4753TIP3    H235751   2.345   0.559  15.888 -0.2609  0.9269  0.0141
 4754TIP3   OH235752   3.068   5.866  16.085  0.1801  0.0926  0.1387
 4754TIP3    H135753   3.011   5.942  16.079  0.5372  0.5593  2.1183
 4754TIP3    H235754   3.009   5.791  16.095 -0.1241  0.4136  0.7760
 4755TIP3   OH235755   6.354   2.040   6.438  0.4727 -0.3055  0.2522
 4755TIP3    H135756   6.320   2.080   6.359 -0.8229 -0.3411  0.7732
 4755TIP3    H235757   6.414   2.105   6.475  0.5070  0.0114 -0.3602
 4756TIP3   OH235758   2.058   5.304   2.806 -0.3129  0.2905  0.1797
 4756TIP3    H135759   2.056   5.298   2.710 -2.0412  1.2624  0.1012
 4756TIP3    H235760   2.020   5.390   2.825 -0.5612 -0.1409  1.7596
 4757TIP3   OH235761   5.443   2.023   0.658  0.0346  0.1917  0.0064
 4757TIP3    H135762   5.400   1.958   0.715  1.4583 -2.8047 -2.0898
 4757TIP3    H235763   5.371   2.063   0.609 -0.8793  0.2099  1.3092
 4758TIP3   OH235764   6.518   0.448   2.557  0.1445 -0.0806 -0.1227
 4758TIP3    H135765   6.427   0.434   2.584 -0.0392 -0.3074 -0.8393
 4758TIP3    H235766   6.564   0.466   2.639 -0.9131  2.1882  0.0430
 4759TIP3   OH235767   4.437   2.299  16.525 -0.4637  0.3067  0.3696
 4759TIP3    H135768   4.387   2.253  16.592  0.8002 -0.2668  0.9513
 4759TIP3    H235769   4.373   2.356  16.483 -1.4216  0.2434  1.6646
 4760TIP3   OH235770   1.662   3.645  10.536 -0.0998  0.5077 -0.5230
 4760TIP3    H135771   1.695   3.700  10.466  0.6243  0.8352  0.0521
 4760TIP3    H235772   1.633   3.565  10.493  1.6301  0.1395 -1.0680
 4761TIP3   OH235773   3.236   6.174  10.618  0.4081  0.4813  0.1322
 4761TIP3    H135774   3.202   6.085  10.617  0.1884  0.5652  0.1673
 4761TIP3    H235775   3.272   6.187  10.530 -0.1382  0.5841 -0.0766
 4762TIP3   OH235776   1.020   6.307   5.416  0.0554  0.5026 -0.2850
 4762TIP3    H135777   0.966   6.387   5.411 -0.8811 -0.1689 -1.4479
 4762TIP3    H235778   1.064   6.303   5.331  1.7284  0.8590  0.5246
 4763TIP3   OH235779   4.218   1.954   4.111  0.0944  0.5758 -0.8627
 4763TIP3    H135780   4.254   2.039   4.136  0.3309  0.5207 -1.0029
 4763TIP3    H235781   4.128   1.955   4.142  0.5677  0.2492  0.6068
 4764TIP3   OH235782   5.228   0.621  11.875  0.0781  0.5988  0.0401
 4764TIP3    H135783   5.228   0.627  11.779 -0.2072 -0.7770 -0.0716
 4764TIP3    H235784   5.143   0.657  11.901 -0.2604  0.0765 -0.3138
 4765TIP3   OH235785   3.854   4.509   4.578  0.4180  0.0485 -0.0447
 4765TIP3    H135786   3.788   4.458   4.531 -2.0099  1.0722  1.9901
 4765TIP3    H235787   3.875   4.455   4.654  3.2675 -0.9766 -1.4224
 4766TIP3   OH235788   2.043   0.979  14.481 -0.1965 -0.2325  0.1100
 4766TIP3    H135789   1.981   0.955  14.412 -1.1954 -1.2547  1.3050
 4766TIP3    H235790   2.064   0.896  14.524  0.2222  0.3989  1.1732
 4767TIP3   OH235791   5.353   3.651  11.190 -0.1731  0.2031 -0.9058
 4767TIP3    H135792   5.427   3.612  11.143  0.5084  1.4282 -0.9084
 4767TIP3    H235793   5.331   3.588  11.258  0.1859 -0.6637 -1.5759
 4768TIP3   OH235794   6.062   6.181   1.179  0.4770 -0.1301 -0.8220
 4768TIP3    H135795   6.111   6.103   1.204 -1.1307 -0.6081  1.1154
 4768TIP3    H235796   6.062   6.235   1.258 -2.0639 -0.1736 -0.7070
 4769TIP3   OH235797   6.461   0.379  16.565 -0.4251  0.0550  0.0447
 4769TIP3    H135798   6.458   0.283  16.566 -3.6756  0.0438  1.0356
 4769TIP3    H235799   6.554   0.400  16.566  0.4041 -3.0773  1.1209
 4770TIP3   OH235800   1.704   0.992  16.206  0.5199 -0.2639  0.4139
 4770TIP3    H135801   1.625   1.011  16.157 -1.5553 -1.8405  2.9104
 4770TIP3    H235802   1.767   0.963  16.140 -1.6576 -0.9811 -1.4536
 4771TIP3   OH235803   6.822   1.335   1.751  0.0545  0.0987  0.0914
 4771TIP3    H135804   6.763   1.285   1.809 -0.3671 -1.8700 -1.8728
 4771TIP3    H235805   6.877   1.268   1.711 -0.0053  1.2908 -2.1189
 4772TIP3   OH235806   4.835   5.131  15.027  0.0602 -0.1934 -0.8111
 4772TIP3    H135807   4.820   5.038  15.047 -0.7143 -0.1465 -1.1239
 4772TIP3    H235808   4.852   5.171  15.112  0.7404 -0.6786 -0.7100
 4773TIP3   OH235809   6.442   5.897   2.861  0.3130 -0.0610  0.8672
 4773TIP3    H135810   6.447   5.804   2.841 -0.9811  0.3855 -2.0614
 4773TIP3    H235811   6.356   5.909   2.900 -1.2255  0.2936 -2.2721
 4774TIP3   OH235812   2.577   6.206  12.494  0.0996 -0.2263  1.1094
 4774TIP3    H135813   2.664   6.203  12.532  1.2175  0.3448 -1.2564
 4774TIP3    H235814   2.564   6.298  12.470 -0.9750 -0.3954  0.9883
 4775TIP3   OH235815   3.809   6.332  10.528 -0.0894  0.0783  0.1980
 4775TIP3    H135816   3.836   6.352  10.617 -0.8112  0.5424  0.3227
 4775TIP3    H235817   3.714   6.347  10.527  0.0936  1.3911 -0.9885
 4776TIP3   OH235818   2.432   6.385  11.076 -0.1952 -0.2565 -0.2913
 4776TIP3    H135819   2.381   6.354  11.002  1.0392  0.9270 -1.7023
 4776TIP3    H235820   2.443   6.308  11.132  1.0506 -1.8621 -2.6238
 4777TIP3   OH235821   2.758   6.022   6.609 -0.1140 -0.0635  0.5881
 4777TIP3    H135822   2.756   5.936   6.566  0.6445  0.7954 -1.3205
 4777TIP3    H235823   2.790   6.005   6.697  1.0179 -1.6360 -0.0835
 4778TIP3   OH235824   6.196   5.845  16.131 -0.9061  0.2288  0.1381
 4778TIP3    H135825   6.120   5.787  16.132 -0.4690 -0.3708 -0.7136
 4778TIP3    H235826   6.186   5.899  16.210 -0.6220 -1.9149  1.7478
 4779TIP3   OH235827   0.377   0.849   2.439 -0.9995  0.0098  0.2850
 4779TIP3    H135828   0.444   0.870   2.373 -1.3462 -0.7330 -0.3190
 4779TIP3    H235829   0.302   0.820   2.387 -1.2234 -0.7445  1.0240
 4780TIP3   OH235830   3.493   1.001   6.377  0.0122 -0.1464  0.2432
 4780TIP3    H135831   3.549   0.939   6.423 -0.1735  1.2692  2.5435
 4780TIP3    H235832   3.411   1.000   6.426 -0.3791  1.0687 -0.3581
 4781TIP3   OH235833   0.982   4.809  11.223 -0.0159  0.3327 -0.1861
 4781TIP3    H135834   1.005   4.869  11.294  1.4774 -1.3007  0.7741
 4781TIP3    H235835   1.008   4.723  11.254 -1.6527 -0.7935 -1.7290
 4782TIP3   OH235836   5.755   6.219  14.859  0.0664 -0.3068  0.1520
 4782TIP3    H135837   5.836   6.270  14.867  0.5891 -1.0721 -0.1481
 4782TIP3    H235838   5.784   6.128  14.862 -0.8415 -0.5890  0.5190
 4783TIP3   OH235839   3.908   3.011  14.576 -0.2325 -0.1387  0.3463
 4783TIP3    H135840   3.818   3.006  14.606 -0.9735 -0.8738 -1.8032
 4783TIP3    H235841   3.951   3.071  14.638 -1.6851 -1.1884  2.4895
 4784TIP3   OH235842   5.160   5.213  12.277  0.2534 -0.1264 -0.3497
 4784TIP3    H135843   5.188   5.279  12.340  2.4225 -1.2585 -0.0274
 4784TIP3    H235844   5.159   5.131  12.326 -0.4051 -0.6746 -1.2309
 4785TIP3   OH235845   4.323   2.891  11.545 -0.2852 -0.3543 -0.0810
 4785TIP3    H135846   4.374   2.964  11.509 -0.1236 -0.5589 -0.2731
 4785TIP3    H235847   4.360   2.878  11.633 -2.2104  1.6539  1.1260
 4786TIP3   OH235848   3.671   4.065   4.385 -0.1350 -0.1741 -0.0077
 4786TIP3    H135849   3.656   3.980   4.426  0.2634 -0.5521 -0.6199
 4786TIP3    H235850   3.613   4.066   4.309  2.0997 -1.2616 -1.8554
 4787TIP3   OH235851   4.889   6.142   4.890  0.6037  0.2075 -0.1897
 4787TIP3    H135852   4.831   6.146   4.966 -1.7186  0.9874 -1.8665
 4787TIP3    H235853   4.881   6.053   4.858  1.3430 -0.0331  0.2602
 4788TIP3   OH235854   6.325   3.815  16.699 -0.2969  0.3449  0.4802
 4788TIP3    H135855   6.406   3.853  16.735 -0.4578  1.7793 -0.5733
 4788TIP3    H235856   6.291   3.761  16.770  1.2045  0.2923  1.2099
 4789TIP3   OH235857   2.748   2.161   0.635  0.2364 -0.3475  0.3117
 4789TIP3    H135858   2.769   2.174   0.727 -0.4881 -0.2850  0.4741
 4789TIP3    H235859   2.743   2.250   0.599  2.6713 -0.4029 -0.3078
 4790TIP3   OH235860   0.546   4.248   5.218  0.1612  0.3725  0.2871
 4790TIP3    H135861   0.512   4.260   5.306  0.3370  2.4132  0.1223
 4790TIP3    H235862   0.623   4.192   5.229 -0.9030 -0.9680  1.1555
 4791TIP3   OH235863   1.202   4.785   3.112 -0.0165  0.3116 -0.1873
 4791TIP3    H135864   1.141   4.723   3.154  1.5664  0.7850  3.1889
 4791TIP3    H235865   1.161   4.870   3.124  0.4505  0.4527  0.4231
 4792TIP3   OH235866   2.176   1.773  16.233  0.7794  0.2122 -0.6248
 4792TIP3    H135867   2.240   1.817  16.288 -0.8671 -1.2553  2.7508
 4792TIP3    H235868   2.113   1.842  16.210  1.0821  0.7134  0.0352
 4793TIP3   OH235869   5.321   5.892   4.147  0.2423  0.1322 -0.7222
 4793TIP3    H135870   5.393   5.850   4.194 -1.4345 -1.1274  0.8973
 4793TIP3    H235871   5.270   5.936   4.216 -2.0298 -1.3371 -1.3540
 4794TIP3   OH235872   1.750   3.627   0.824 -0.0025  0.1476 -0.0157
 4794TIP3    H135873   1.758   3.715   0.860  2.3776  1.1323 -2.6119
 4794TIP3    H235874   1.656   3.611   0.820 -0.4835  2.4267  0.8513
 4795TIP3   OH235875   2.347   4.910   6.314  0.9876  0.4453 -0.3670
 4795TIP3    H135876   2.435   4.891   6.348  0.1220 -0.2477  1.6029
 4795TIP3    H235877   2.312   4.825   6.289 -0.2959  0.2259  1.9286
 4796TIP3   OH235878   0.469   1.116  17.014  0.6368  0.1201 -0.1363
 4796TIP3    H135879   0.440   1.203  17.041  1.1907  0.7739 -1.5417
 4796TIP3    H235880   0.457   1.062  17.092  0.2483  1.4339  0.7617
 4797TIP3   OH235881   0.043   0.405   2.778 -0.3679 -0.1625 -0.1387
 4797TIP3    H135882   0.065   0.318   2.810  2.8056  0.6185  0.1831
 4797TIP3    H235883   0.027   0.393   2.684  1.4151 -0.9595 -0.3867
 4798TIP3   OH235884   4.272   3.725   1.182  0.2245 -0.3796  0.4746
 4798TIP3    H135885   4.359   3.744   1.217  0.9113 -2.5102  0.0722
 4798TIP3    H235886   4.284   3.644   1.133 -2.0869 -0.9250  0.7318
 4799TIP3   OH235887   1.079   0.371   4.746  0.3353  0.6800  0.3209
 4799TIP3    H135888   1.165   0.389   4.707 -0.4098 -1.6385 -2.7504
 4799TIP3    H235889   1.099   0.345   4.836  2.5574  2.6663  0.4991
 4800TIP3   OH235890   1.413   0.030  16.232 -0.1683 -1.0238  0.0195
 4800TIP3    H135891   1.463   0.101  16.273 -0.9048 -0.5816  0.1820
 4800TIP3    H235892   1.380  -0.021  16.306  0.1505 -1.3929 -0.0896
 4801TIP3   OH235893   4.998   1.345   1.676  0.0371 -0.0100 -0.1904
 4801TIP3    H135894   4.995   1.416   1.740 -0.8279  0.1294 -0.3746
 4801TIP3    H235895   5.091   1.335   1.657  0.1163  2.3048 -1.4798
 4802TIP3   OH235896   5.005   3.535  10.430 -0.4546 -0.1861  0.0810
 4802TIP3    H135897   5.077   3.568  10.484 -0.0291  1.7032 -1.5407
 4802TIP3    H235898   5.021   3.441  10.425  2.1604  0.1982 -0.5169
 4803TIP3   OH235899   0.860   3.293   3.077  0.0987 -0.3282  0.5816
 4803TIP3    H135900   0.842   3.335   2.993  1.9107 -0.6405 -0.0125
 4803TIP3    H235901   0.878   3.365   3.137 -1.2535 -0.1018  0.7536
 4804TIP3   OH235902   5.632   2.079   1.297 -0.1669  0.4460  0.1621
 4804TIP3    H135903   5.654   2.118   1.382  0.1019 -0.2989  0.4402
 4804TIP3    H235904   5.706   2.100   1.241  1.1949 -1.7440  0.9926
 4805TIP3   OH235905   2.604   0.167  15.377  0.3962 -0.4392 -0.5183
 4805TIP3    H135906   2.660   0.230  15.332  0.8497 -1.4618 -1.4225
 4805TIP3    H235907   2.655   0.139  15.453  0.9613 -1.0380 -1.0976
 4806TIP3   OH235908   2.742   1.472   1.149  0.5645  0.4367  0.1544
 4806TIP3    H135909   2.681   1.435   1.213 -0.4675  0.4750 -0.7772
 4806TIP3    H235910   2.828   1.448   1.182  0.0479  0.1832  1.3877
 4807TIP3   OH235911   0.372   4.765  16.991 -0.4718 -0.4774  0.7197
 4807TIP3    H135912   0.332   4.848  17.019  0.2586  1.1130 -2.4061
 4807TIP3    H235913   0.450   4.792  16.942  0.1932 -3.0880  0.2222
 4808TIP3   OH235914   1.378   2.369   4.740 -0.2715  0.2940 -0.2461
 4808TIP3    H135915   1.460   2.321   4.725  0.3574  0.5296  2.0399
 4808TIP3    H235916   1.375   2.434   4.670  1.7728  0.5814 -0.1292
 4809TIP3   OH235917   3.610   4.084  17.097 -0.3369  0.1567  0.4206
 4809TIP3    H135918   3.679   4.108  17.035 -0.3873 -0.4576  0.1138
 4809TIP3    H235919   3.630   4.132  17.176 -0.6516  1.5062 -0.2898
 4810TIP3   OH235920   1.096   5.128   4.507  0.4133 -0.4649 -0.4133
 4810TIP3    H135921   1.110   5.144   4.600  0.0945  0.7158 -0.5635
 4810TIP3    H235922   1.023   5.185   4.482  1.2314  0.0935 -1.6399
 4811TIP3   OH235923   2.525   0.287  11.067 -0.1791  0.1579  0.1887
 4811TIP3    H135924   2.591   0.266  11.002  1.4814 -0.9723  2.1150
 4811TIP3    H235925   2.511   0.204  11.114 -1.1249  0.9853  1.4156
 4812TIP3   OH235926   3.297   2.537   0.032 -0.3972 -0.6658 -0.0561
 4812TIP3    H135927   3.298   2.567   0.123 -0.8518 -2.9043  0.7416
 4812TIP3    H235928   3.208   2.506   0.017 -0.1359 -0.9964 -1.0303
 4813TIP3   OH235929   2.916   4.120   3.122  0.4282 -0.3869  0.1372
 4813TIP3    H135930   2.985   4.171   3.080 -0.2197  0.0362 -0.4279
 4813TIP3    H235931   2.869   4.078   3.050 -0.5398  0.1438  0.4308
 4814TIP3   OH235932   6.681   0.491  16.176  0.5707  0.2436 -0.1882
 4814TIP3    H135933   6.758   0.463  16.125  0.9380  0.5131  0.2096
 4814TIP3    H235934   6.611   0.432  16.147  1.0263 -0.2749 -0.2641
 4815TIP3   OH235935   5.429   1.914   1.775 -0.4226  0.2971  0.7265
 4815TIP3    H135936   5.415   1.827   1.736 -1.7880  0.3451  1.0422
 4815TIP3    H235937   5.341   1.941   1.804 -0.3702  2.5395 -0.9326
 4816TIP3   OH235938   4.023   0.636  15.684  0.4514 -0.3153 -0.1845
 4816TIP3    H135939   4.053   0.552  15.650  2.1136 -0.2920  1.0913
 4816TIP3    H235940   3.936   0.647  15.647  1.0422 -1.5828 -2.0936
 4817TIP3   OH235941   1.885   4.414   2.065 -0.2765 -0.1940 -0.9926
 4817TIP3    H135942   1.940   4.353   2.017 -0.9351 -2.7177  1.2300
 4817TIP3    H235943   1.824   4.448   1.999  0.3417 -1.6846 -2.4075
 4818TIP3   OH235944   1.140   1.486   3.450  0.3409  0.1182 -0.2539
 4818TIP3    H135945   1.186   1.532   3.520  0.9008 -0.0275 -0.5214
 4818TIP3    H235946   1.186   1.403   3.441  0.4835  0.2661 -1.0054
 4819TIP3   OH235947   3.839   2.457  13.171  0.4201  0.3233  0.1289
 4819TIP3    H135948   3.836   2.495  13.258 -1.4531  0.7180 -0.0634
 4819TIP3    H235949   3.826   2.532  13.112  1.5810  0.0538 -0.5060
 4820TIP3   OH235950   1.861   1.291  13.403 -0.2556  0.5853  0.4691
 4820TIP3    H135951   1.952   1.283  13.429  0.1302 -0.9277 -1.0848
 4820TIP3    H235952   1.818   1.334  13.476  1.9257  2.5326  0.7022
 4821TIP3   OH235953   4.097   4.121  16.081  0.0637  0.1593 -0.9512
 4821TIP3    H135954   4.192   4.112  16.092  0.4280  2.9586 -0.9228
 4821TIP3    H235955   4.059   4.067  16.150  1.7130  0.5136  0.3085
 4822TIP3   OH235956   5.722   0.500  10.445  0.4132  0.5412 -0.3725
 4822TIP3    H135957   5.788   0.559  10.410 -0.8652  0.9920 -2.1323
 4822TIP3    H235958   5.642   0.522  10.398  0.1626 -3.5291 -2.2961
 4823TIP3   OH235959   4.618   0.372  11.019  0.4198  0.2180 -0.8964
 4823TIP3    H135960   4.593   0.284  10.990  0.9344 -0.1314 -0.2935
 4823TIP3    H235961   4.592   0.429  10.946 -0.8387 -0.2939 -0.8768
 4824TIP3   OH235962   3.681   1.193   2.132 -0.1757 -0.0369 -0.5380
 4824TIP3    H135963   3.594   1.183   2.171 -0.1841 -0.4897 -0.6665
 4824TIP3    H235964   3.741   1.160   2.199  0.0430  1.7765  0.2180
 4825TIP3   OH235965   1.679   6.717  14.011  0.3429  0.3942 -0.1727
 4825TIP3    H135966   1.706   6.788  14.069 -1.5818  0.6154  0.5180
 4825TIP3    H235967   1.634   6.762  13.938 -1.0422 -0.0755  0.3572
 4826TIP3   OH235968   3.720   2.402  12.106  0.2449 -0.4626 -0.6748
 4826TIP3    H135969   3.632   2.425  12.077  0.1842  1.5331  0.8657
 4826TIP3    H235970   3.776   2.425  12.031 -0.1738  2.1041 -0.3148
 4827TIP3   OH235971   2.370   5.904  14.616 -0.1181  0.4982  0.8286
 4827TIP3    H135972   2.356   5.833  14.553 -1.5977 -1.4978  3.2215
 4827TIP3    H235973   2.301   5.967  14.598 -0.3340  0.1111  0.2739
 4828TIP3   OH235974   2.883   3.647   0.036 -0.0863 -0.4022  0.4635
 4828TIP3    H135975   2.850   3.679   0.120  0.9970 -0.9113  1.1085
 4828TIP3    H235976   2.951   3.584   0.059 -0.6256 -1.5104 -0.7908
 4829TIP3   OH235977   5.744   4.624   4.619  0.5188 -0.5072 -0.2501
 4829TIP3    H135978   5.695   4.547   4.650  0.8687 -0.9449 -0.7561
 4829TIP3    H235979   5.717   4.634   4.528 -1.7474  1.7544  0.5414
 4830TIP3   OH235980   5.356   6.770   2.864  0.2096  0.5178  0.3534
 4830TIP3    H135981   5.322   6.682   2.847 -0.0472  0.5753  0.5574
 4830TIP3    H235982   5.420   6.785   2.794  2.4233 -0.9684  1.9147
 4831TIP3   OH235983   5.843   0.783  11.539 -0.2034  0.3189 -0.2076
 4831TIP3    H135984   5.814   0.694  11.516  1.2587 -0.3101  0.2698
 4831TIP3    H235985   5.763   0.829  11.564 -0.9065 -1.0433  0.1153
 4832TIP3   OH235986   2.204   6.787  11.700  0.0831 -0.3176 -0.7868
 4832TIP3    H135987   2.291   6.747  11.703 -0.2552 -1.0233  1.0885
 4832TIP3    H235988   2.200   6.842  11.778 -1.3586 -0.8226 -0.4682
 4833TIP3   OH235989   4.722   3.875   2.764 -0.6679  0.3396  1.1382
 4833TIP3    H135990   4.708   3.962   2.802 -1.3839 -0.2884  2.3545
 4833TIP3    H235991   4.794   3.838   2.815  2.8249  1.8416 -2.2237
 4834TIP3   OH235992   5.929   3.445   0.259  0.2556 -0.4533  0.2967
 4834TIP3    H135993   6.015   3.450   0.217  0.4441 -0.2413  0.7023
 4834TIP3    H235994   5.948   3.433   0.352 -0.1598 -2.5625  0.1638
 4835TIP3   OH235995   3.215   5.794  15.788  0.0985  0.1442 -0.1050
 4835TIP3    H135996   3.222   5.888  15.773 -0.6007  0.3866  0.9918
 4835TIP3    H235997   3.235   5.755  15.703 -3.1117  1.3944 -1.6152
 4836TIP3   OH235998   6.130   4.948  15.707 -0.0601 -0.7047 -0.6476
 4836TIP3    H135999   6.165   4.863  15.684 -1.3771 -1.6397  0.6069
 4836TIP3    H236000   6.049   4.929  15.754 -0.5033  1.2450 -0.5149
 4837TIP3   OH236001   5.548   5.315  15.758  0.4594  0.1694  0.0991
 4837TIP3    H136002   5.502   5.268  15.687  1.2878 -0.9800  0.2997
 4837TIP3    H236003   5.591   5.246  15.808  0.9679  1.0897  0.9537
 4838TIP3   OH236004   2.744   5.107  16.663  0.0104 -0.5940  0.0764
 4838TIP3    H136005   2.690   5.082  16.588  0.8481 -0.4236 -0.5986
 4838TIP3    H236006   2.802   5.032  16.677  1.4320  0.2664 -0.9367
 4839TIP3   OH236007   0.470   2.405  10.765  0.5930 -0.2153  0.8339
 4839TIP3    H136008   0.463   2.417  10.860  1.9707 -0.6328  1.0097
 4839TIP3    H236009   0.558   2.369  10.752 -0.4570 -2.4923 -0.3898
 4840TIP3   OH236010   2.265   3.213   3.799  0.0437 -0.3754 -0.2518
 4840TIP3    H136011   2.207   3.138   3.788  0.8241 -0.8541 -1.3072
 4840TIP3    H236012   2.265   3.255   3.712 -1.3581  1.5936  0.6242
 4841TIP3   OH236013   5.827   4.478  13.551 -0.1508 -0.3843 -0.7555
 4841TIP3    H136014   5.766   4.547  13.574  0.4280  0.5313 -1.8308
 4841TIP3    H236015   5.778   4.421  13.492 -0.4327 -0.5079 -0.3991
 4842TIP3   OH236016   5.977   4.494  14.445 -0.4454  0.0921  0.5144
 4842TIP3    H136017   5.980   4.498  14.349 -0.7128 -0.2793  0.4890
 4842TIP3    H236018   5.972   4.401  14.465 -2.2567  0.2177  0.8251
 4843TIP3   OH236019   2.704   5.563   2.666  0.6139 -0.4659  0.0662
 4843TIP3    H136020   2.744   5.477   2.654 -0.7836 -0.9087 -1.9313
 4843TIP3    H236021   2.757   5.622   2.613  0.3393 -0.5168 -0.2725
 4844TIP3   OH236022   3.285   1.861   1.819  0.3776  0.1709 -0.4286
 4844TIP3    H136023   3.314   1.900   1.737  0.5715  1.0680  0.0547
 4844TIP3    H236024   3.193   1.841   1.805  0.1492  1.2592 -0.5225
 4845TIP3   OH236025   3.990   1.440  13.517 -0.0432  0.0431 -0.1540
 4845TIP3    H136026   3.976   1.381  13.443 -1.2881  0.5365 -0.3383
 4845TIP3    H236027   4.008   1.525  13.477 -0.9279  0.3580  0.0876
 4846TIP3   OH236028   2.816   3.969   0.030  0.7194 -0.0403 -0.4068
 4846TIP3    H136029   2.849   4.036  -0.030 -0.9714  1.1877 -0.0314
 4846TIP3    H236030   2.885   3.962   0.097  1.3443  0.6430 -0.9531
 4847TIP3   OH236031   2.900   2.264   6.372  0.1463 -0.1038 -0.1459
 4847TIP3    H136032   2.833   2.316   6.327  0.0422 -0.9675 -1.0223
 4847TIP3    H236033   2.900   2.180   6.326  0.9171 -0.5774  0.6903
 4848TIP3   OH236034   5.936   2.315  11.711  0.5336  0.3869 -0.4911
 4848TIP3    H136035   5.861   2.289  11.766  0.8013 -0.5638 -0.5668
 4848TIP3    H236036   5.945   2.409  11.727  1.4252 -0.0633  2.1294
 4849TIP3   OH236037   5.000   4.014   3.972 -0.0193  0.4847  0.2150
 4849TIP3    H136038   5.069   4.058   4.021 -0.3134  0.3715  0.7398
 4849TIP3    H236039   4.996   3.926   4.009 -0.6684  0.5937  0.4216
 4850TIP3   OH236040   4.810   5.637   2.468 -0.3000  0.0318  0.4592
 4850TIP3    H136041   4.814   5.565   2.531  2.1260 -0.4520 -0.1269
 4850TIP3    H236042   4.901   5.667   2.460 -1.1855  3.1106  0.5627
 4851TIP3   OH236043   2.640   6.174   2.146 -0.5167  0.0589  0.0167
 4851TIP3    H136044   2.643   6.269   2.149  0.2927  0.0471  0.0276
 4851TIP3    H236045   2.675   6.146   2.231 -1.4696 -0.2497  0.3150
 4852TIP3   OH236046   3.513   3.779  11.639 -0.0458 -0.3552  0.3023
 4852TIP3    H136047   3.441   3.840  11.622 -0.4569 -0.6778  0.8750
 4852TIP3    H236048   3.592   3.829  11.616 -0.3367  0.6116  1.3312
 4853TIP3   OH236049   3.044   0.262   4.079  0.2763  0.1042  0.0933
 4853TIP3    H136050   2.949   0.256   4.087  0.3449 -1.9118 -0.0204
 4853TIP3    H236051   3.058   0.324   4.008 -0.9708  0.1111 -0.1740
 4854TIP3   OH236052   6.511   4.838   5.794 -0.4169 -0.4960  0.0825
 4854TIP3    H136053   6.533   4.760   5.744  1.1188  0.0796 -0.1885
 4854TIP3    H236054   6.519   4.911   5.732 -1.2372 -0.0506  0.4767
 4855TIP3   OH236055   0.213   1.237   4.887  0.1928 -0.5753  0.0919
 4855TIP3    H136056   0.250   1.324   4.873  0.6696 -0.8486 -0.3783
 4855TIP3    H236057   0.261   1.202   4.962 -0.4639 -0.1837  0.7160
 4856TIP3   OH236058   5.847   2.061   1.126 -0.3279 -0.0087 -0.1597
 4856TIP3    H136059   5.903   2.106   1.062  0.0413 -0.9429 -0.5024
 4856TIP3    H236060   5.814   1.985   1.079 -1.1451  0.0244  0.3459
 4857TIP3   OH236061   5.722   5.067  14.206  0.1052  0.2727  0.0496
 4857TIP3    H136062   5.684   5.119  14.276  2.6257 -0.2676  1.9964
 4857TIP3    H236063   5.816   5.082  14.214  0.5572 -0.6463 -2.6016
 4858TIP3   OH236064   2.594   6.332   5.120  0.1368  0.2619 -0.1361
 4858TIP3    H136065   2.661   6.266   5.135 -0.5149 -0.6443 -1.0315
 4858TIP3    H236066   2.536   6.326   5.195  0.2243 -0.0050 -0.0915
 4859TIP3   OH236067   0.196   3.473   3.376  0.3203  0.0534 -0.2728
 4859TIP3    H136068   0.160   3.417   3.307 -1.4080 -0.5345  1.0345
 4859TIP3    H236069   0.128   3.475   3.444  0.8435  2.7196  0.3080
 4860TIP3   OH236070   6.187   0.902   4.558 -0.2911 -0.4536  0.3361
 4860TIP3    H136071   6.102   0.912   4.600  0.7085  1.9421  2.0608
 4860TIP3    H236072   6.238   0.851   4.621 -0.4187 -1.9346 -0.7166
 4861TIP3   OH236073   4.089   2.888   5.195  0.1464  0.5036 -0.2976
 4861TIP3    H136074   4.024   2.957   5.211 -0.5009  0.0123 -0.7891
 4861TIP3    H236075   4.109   2.895   5.102 -0.0804 -0.0981 -0.3984
 4862TIP3   OH236076   3.633   0.803   4.258  0.5267  0.0575 -0.4595
 4862TIP3    H136077   3.643   0.717   4.218  0.1466 -0.8859  1.4070
 4862TIP3    H236078   3.641   0.788   4.352  0.6433  2.0916 -0.0918
 4863TIP3   OH236079   4.391   3.480   0.175  0.6898 -0.0804 -0.0841
 4863TIP3    H136080   4.375   3.419   0.102 -0.5695 -1.2762  1.1312
 4863TIP3    H236081   4.462   3.440   0.225  0.9976  0.3274 -0.1844
 4864TIP3   OH236082   5.969   4.733   3.624  0.1423 -0.0011 -0.7152
 4864TIP3    H136083   6.027   4.809   3.620  1.2318 -0.8327 -1.6820
 4864TIP3    H236084   5.889   4.765   3.665  1.2834  1.2052  0.6688
 4865TIP3   OH236085   1.878   1.584  12.233 -0.0509  0.0929 -0.0174
 4865TIP3    H136086   1.929   1.512  12.272 -1.7158 -0.4733  1.2608
 4865TIP3    H236087   1.912   1.663  12.275  1.6981  0.1015 -1.3271
 4866TIP3   OH236088   1.515   6.155  16.448 -0.3199 -0.1917  0.0595
 4866TIP3    H136089   1.478   6.199  16.525  1.3318  1.3230  0.0547
 4866TIP3    H236090   1.475   6.200  16.373 -2.0709 -1.7898 -0.0482
 4867TIP3   OH236091   0.700   0.724   6.653 -0.1814 -0.0616  0.2954
 4867TIP3    H136092   0.776   0.782   6.649 -1.1047  1.0967 -2.7167
 4867TIP3    H236093   0.629   0.779   6.687 -0.4868 -0.1039 -0.2562
 4868TIP3   OH236094   1.583   3.599  12.135  0.0383  0.6156 -0.1375
 4868TIP3    H136095   1.596   3.693  12.131  1.1054  0.7100  2.7574
 4868TIP3    H236096   1.669   3.563  12.157 -0.5386 -0.9399 -0.2546
 4869TIP3   OH236097   1.892   2.183   1.092 -0.2754 -0.1825 -0.2107
 4869TIP3    H136098   1.811   2.226   1.065  0.3113  0.9384 -0.2414
 4869TIP3    H236099   1.900   2.204   1.185  0.3502  0.3449 -0.3770
 4870TIP3   OH236100   2.056   6.460   0.010  0.4556 -0.3192 -0.5212
 4870TIP3    H136101   2.025   6.396  -0.054  0.8524 -1.0108 -0.0471
 4870TIP3    H236102   2.088   6.406   0.083  2.2321  0.3680 -0.7518
 4871TIP3   OH236103   0.802   6.333  14.318 -0.1849 -0.5696  0.0527
 4871TIP3    H136104   0.716   6.373  14.309  1.1456  2.6667  0.3986
 4871TIP3    H236105   0.819   6.292  14.234 -1.6590 -0.4541 -0.3305
 4872TIP3   OH236106   3.011   0.051  14.144 -0.2567  0.2530 -0.0860
 4872TIP3    H136107   2.929   0.002  14.147 -0.7832  1.1355  0.5792
 4872TIP3    H236108   2.985   0.139  14.116  0.9092 -0.2512 -3.1344
 4873TIP3   OH236109   3.758   4.882   1.364 -0.4671  0.9162  0.1798
 4873TIP3    H136110   3.794   4.878   1.453  1.4153 -0.4610 -0.5811
 4873TIP3    H236111   3.833   4.908   1.310 -0.5271 -1.9236 -1.4563
 4874TIP3   OH236112   5.521   6.484   1.510 -0.0693 -0.1516  0.0052
 4874TIP3    H136113   5.444   6.492   1.452 -0.6224  0.3894  0.7989
 4874TIP3    H236114   5.504   6.404   1.560  0.3685 -0.5717 -0.5068
 4875TIP3   OH236115   4.973   3.193  12.371 -0.2428 -0.2829 -0.6111
 4875TIP3    H136116   4.974   3.229  12.282  0.9233  0.4665 -0.3116
 4875TIP3    H236117   4.899   3.235  12.413 -0.3448 -0.0697 -0.9975
 4876TIP3   OH236118   1.423   5.019   4.673 -0.3556 -0.3045  0.2355
 4876TIP3    H136119   1.367   5.063   4.737 -0.1156 -0.4880  0.5755
 4876TIP3    H236120   1.366   4.952   4.635 -0.4560 -0.2964  0.3680
 4877TIP3   OH236121   5.853   5.938  11.131 -0.0097  0.1766 -0.0472
 4877TIP3    H136122   5.876   5.955  11.040 -0.3980 -0.0885 -0.1961
 4877TIP3    H236123   5.862   6.023  11.174  1.9792 -0.0449  0.0730
 4878TIP3   OH236124   0.875   1.028   2.787  0.0605 -0.1072 -0.3412
 4878TIP3    H136125   0.810   1.098   2.786  1.4227  1.2149 -0.3101
 4878TIP3    H236126   0.925   1.042   2.867 -0.6030 -2.0942  0.4841
 4879TIP3   OH236127   4.612   6.795  11.353 -0.5280 -0.3042 -0.7149
 4879TIP3    H136128   4.670   6.869  11.333 -1.0281 -0.1151 -1.4757
 4879TIP3    H236129   4.524   6.829  11.338 -0.8377 -0.6661  0.2107
 4880TIP3   OH236130   3.902   3.528   0.603 -0.0613 -0.6888 -0.9060
 4880TIP3    H136131   3.878   3.438   0.583 -1.7388 -0.3857 -0.4343
 4880TIP3    H236132   3.836   3.557   0.666  1.4339  0.3440  0.2544
 4881TIP3   OH236133   3.441   2.610   2.216 -0.0030 -0.0440  0.0294
 4881TIP3    H136134   3.491   2.678   2.171 -1.6514  1.7507  0.7371
 4881TIP3    H236135   3.405   2.556   2.146  2.1986 -0.9243 -0.5115
 4882TIP3   OH236136   0.755   1.491  15.982  0.2991  0.4225  0.1738
 4882TIP3    H136137   0.690   1.533  16.039  0.8050 -0.0954  1.1593
 4882TIP3    H236138   0.830   1.550  15.985  0.8951 -0.3690  1.3067
 4883TIP3   OH236139   4.783   2.662   0.159  0.0028 -0.0552 -0.0834
 4883TIP3    H136140   4.868   2.681   0.117 -0.2540  1.3861 -0.0196
 4883TIP3    H236141   4.792   2.699   0.247 -0.7549  0.3071 -0.1512
 4884TIP3   OH236142   5.824   0.748   5.406  0.4850 -0.2321  0.1688
 4884TIP3    H136143   5.902   0.741   5.461  1.1580  0.4286 -0.6753
 4884TIP3    H236144   5.793   0.658   5.398  0.1179 -0.3103  1.9456
 4885TIP3   OH236145   6.787   2.496   1.979 -0.2712 -0.3139 -0.4128
 4885TIP3    H136146   6.839   2.564   1.938  2.1350 -1.6016  0.3282
 4885TIP3    H236147   6.776   2.525   2.069 -0.5405 -0.1994 -0.4828
 4886TIP3   OH236148   6.418   3.002  17.073 -0.1539 -0.0638 -0.1064
 4886TIP3    H136149   6.421   2.996  17.169 -0.0017 -0.0976 -0.1121
 4886TIP3    H236150   6.329   3.031  17.054 -0.2195 -0.1650  0.0402
 4887TIP3   OH236151   3.323   6.002   2.551  0.0096  0.9519 -0.3137
 4887TIP3    H136152   3.331   6.088   2.594  1.6327  0.3284  0.7128
 4887TIP3    H236153   3.390   5.948   2.593 -0.2138 -0.5059 -1.7533
 4888TIP3   OH236154   2.900   1.754  15.548 -0.4383  0.0043 -0.4758
 4888TIP3    H136155   2.980   1.775  15.499  0.7561 -1.1134  0.8765
 4888TIP3    H236156   2.886   1.661  15.532 -0.5277 -0.1812  0.5690
 4889TIP3   OH236157   3.424   1.535   3.493 -0.7092 -0.4984  0.0174
 4889TIP3    H136158   3.451   1.535   3.585  0.8987  0.9627 -0.3978
 4889TIP3    H236159   3.437   1.445   3.464 -0.7818 -0.8701  1.1031
 4890TIP3   OH236160   3.350   3.963  12.604  0.4730 -0.3584 -0.6171
 4890TIP3    H136161   3.389   4.025  12.665 -1.1141 -0.1967  0.2841
 4890TIP3    H236162   3.258   3.959  12.629  0.2173 -1.9121 -1.6471
 4891TIP3   OH236163   4.512   1.647   2.298 -0.2749 -0.3037  0.2209
 4891TIP3    H136164   4.489   1.622   2.209  0.5703 -0.1079 -0.0713
 4891TIP3    H236165   4.579   1.584   2.324  0.7428  0.6533  0.0525
 4892TIP3   OH236166   3.463   1.277   4.310  0.7216 -0.1447  0.1370
 4892TIP3    H136167   3.387   1.297   4.255  0.6519 -2.2071 -0.6474
 4892TIP3    H236168   3.534   1.328   4.272  0.3314 -0.3677 -0.9368
 4893TIP3   OH236169   0.999   4.314   4.294  0.0928 -0.2680 -0.1636
 4893TIP3    H136170   1.089   4.284   4.305 -0.3281 -0.6528  3.5189
 4893TIP3    H236171   1.007   4.407   4.274  1.2501 -1.1960 -5.4228
 4894TIP3   OH236172   0.136   1.977  13.452  0.6065  0.5657  0.2846
 4894TIP3    H136173   0.119   2.008  13.363 -0.2956  1.1154  0.6349
 4894TIP3    H236174   0.143   2.056  13.504 -0.4538  0.2353  0.9654
 4895TIP3   OH236175   4.340   1.440  13.581  0.0369 -0.0788  0.2222
 4895TIP3    H136176   4.428   1.472  13.560 -0.0860 -1.7188 -3.4965
 4895TIP3    H236177   4.290   1.518  13.601  1.3434  1.3925 -1.8518
 4896TIP3   OH236178   1.818   6.808  11.854  0.3543  0.0695  0.0677
 4896TIP3    H136179   1.847   6.798  11.763  0.4086 -0.4309  0.1373
 4896TIP3    H236180   1.758   6.735  11.869 -0.1411  0.5093  0.2471
 4897TIP3   OH236181   4.735   4.346   4.868  0.0804 -0.4333 -0.3037
 4897TIP3    H136182   4.778   4.309   4.792  2.3104  1.1318  0.0944
 4897TIP3    H236183   4.745   4.280   4.936 -2.5151 -2.1291 -1.4333
 4898TIP3   OH236184   5.048   4.813  12.544  0.7355  0.1807  0.2441
 4898TIP3    H136185   5.007   4.802  12.630 -2.1346 -0.2560 -1.0652
 4898TIP3    H236186   5.045   4.726  12.504 -0.7573  0.9300 -1.3992
 4899TIP3   OH236187   5.303   1.824   4.218 -0.3276  0.0413  0.1995
 4899TIP3    H136188   5.340   1.872   4.292 -1.5445  0.1312  0.7778
 4899TIP3    H236189   5.295   1.734   4.250 -0.6594  0.0389  0.1155
 4900TIP3   OH236190   3.276   0.940   0.916 -0.1098 -0.8025 -0.2238
 4900TIP3    H136191   3.215   0.876   0.952  0.4185 -2.0653 -1.5060
 4900TIP3    H236192   3.306   0.902   0.833 -0.0232  1.2499 -1.2013
 4901TIP3   OH236193   0.625   1.328  12.598 -0.3153 -0.4324 -0.0505
 4901TIP3    H136194   0.668   1.384  12.533  0.0038 -0.5710  0.0396
 4901TIP3    H236195   0.696   1.275  12.634 -0.0021  1.3169  2.1759
 4902TIP3   OH236196   6.132   2.587  15.870 -0.5879 -0.0933 -0.0007
 4902TIP3    H136197   6.149   2.509  15.924 -2.2735 -1.3079 -1.1008
 4902TIP3    H236198   6.113   2.552  15.783 -3.5433  1.3220 -0.0567
 4903TIP3   OH236199   3.093   0.289   0.592  0.1595  0.1641 -0.6409
 4903TIP3    H136200   3.185   0.280   0.568 -0.2680 -2.4110 -1.6049
 4903TIP3    H236201   3.058   0.351   0.528  0.8832 -0.0726 -1.2856
 4904TIP3   OH236202   6.025   6.132   0.871  0.3375  0.0930 -0.6556
 4904TIP3    H136203   5.994   6.123   0.961  0.6095 -0.0131 -0.5713
 4904TIP3    H236204   5.980   6.210   0.838  0.2853  0.1687 -0.4075
 4905TIP3   OH236205   4.043   0.008   0.048  0.2196  0.2034 -0.1258
 4905TIP3    H136206   3.976  -0.060   0.041  0.1990  0.1904  0.1947
 4905TIP3    H236207   4.084  -0.007   0.133 -0.1720  0.9419  0.2035
 4906TIP3   OH236208   4.457   2.765  16.925 -0.1168 -0.4354  0.4063
 4906TIP3    H136209   4.414   2.847  16.947  1.4628  0.9018 -1.1515
 4906TIP3    H236210   4.479   2.725  17.010  1.0717  1.8725  1.2649
 4907TIP3   OH236211   4.417   4.229   1.209  0.6911  0.1323  0.7177
 4907TIP3    H136212   4.461   4.245   1.125  0.8337  1.0375  0.9513
 4907TIP3    H236213   4.340   4.178   1.187 -0.3685  2.0466 -0.2455
 4908TIP3   OH236214   3.272   0.046  12.810 -0.1876 -0.2833 -0.2581
 4908TIP3    H136215   3.314   0.111  12.866  0.2405  0.1971 -1.1163
 4908TIP3    H236216   3.304  -0.038  12.844 -0.2933 -0.0278  0.4925
 4909TIP3   OH236217   6.443   3.247   3.800 -1.0387 -0.3647  0.1774
 4909TIP3    H136218   6.420   3.340   3.794 -1.2800 -0.4743 -0.8365
 4909TIP3    H236219   6.534   3.247   3.830 -0.9577  0.2181 -0.0419
 4910TIP3   OH236220   5.263   2.317  10.602  0.3276 -0.0148  0.5086
 4910TIP3    H136221   5.175   2.315  10.564 -0.3500 -1.8346  2.0220
 4910TIP3    H236222   5.314   2.367  10.539 -1.2855 -0.7451 -1.5363
 4911TIP3   OH236223   5.187   2.808  11.109  0.3357 -0.3883 -0.3590
 4911TIP3    H136224   5.219   2.898  11.114  1.7360 -0.9065  0.5021
 4911TIP3    H236225   5.253   2.756  11.154 -0.0392 -1.9672 -1.5444
 4912TIP3   OH236226   5.795   6.171   2.504 -0.0343  0.2573 -0.3331
 4912TIP3    H136227   5.783   6.261   2.474  1.9514  0.3392 -1.0237
 4912TIP3    H236228   5.780   6.175   2.598  1.9786  1.7608 -0.0187
 4913TIP3   OH236229   4.191   2.625   5.212 -0.2605 -0.4731 -0.5095
 4913TIP3    H136230   4.123   2.578   5.164  0.1390  0.3171 -1.8966
 4913TIP3    H236231   4.172   2.718   5.196 -0.0965 -0.1821  0.8619
 4914TIP3   OH236232   5.602   0.188  12.316 -0.5377  0.0816  0.1293
 4914TIP3    H136233   5.679   0.241  12.341 -0.7564  0.5349 -0.1409
 4914TIP3    H236234   5.606   0.184  12.221  0.1220 -1.3930  0.1926
 4915TIP3   OH236235   0.295   0.219  11.872  0.0963 -0.0965 -0.1435
 4915TIP3    H136236   0.281   0.166  11.950  0.3308  0.7822  0.5055
 4915TIP3    H236237   0.262   0.165  11.800  0.0411 -0.9850  0.5359
 4916TIP3   OH236238   6.699   3.645  11.941  0.3782  0.0484  0.1652
 4916TIP3    H136239   6.764   3.695  11.893  0.8250 -0.3304  0.3762
 4916TIP3    H236240   6.642   3.608  11.873 -0.6899  1.7870  0.0279
 4917TIP3   OH236241   0.419   0.053  14.226 -0.2769  0.1552 -0.2861
 4917TIP3    H136242   0.398   0.125  14.167 -1.0406  0.4292  0.3002
 4917TIP3    H236243   0.392  -0.026  14.178 -0.3417  0.3325 -0.5433
 4918TIP3   OH236244   6.134   0.407  16.282 -0.6894  0.0600 -0.0367
 4918TIP3    H136245   6.046   0.441  16.296 -1.7665 -3.3389  3.2547
 4918TIP3    H236246   6.132   0.371  16.193 -2.7315 -0.1650  0.0596
 4919TIP3   OH236247   2.731   4.009   0.613 -0.1273 -0.2576 -0.3924
 4919TIP3    H136248   2.643   4.010   0.651  0.7020 -0.1518  1.6691
 4919TIP3    H236249   2.761   3.919   0.623  0.5526  0.0358  0.3369
 4920TIP3   OH236250   1.596   6.178  11.355 -0.5306 -0.4385 -0.3601
 4920TIP3    H136251   1.670   6.118  11.367 -0.6444 -0.4102  0.5793
 4920TIP3    H236252   1.626   6.261  11.391 -1.6814 -0.9425  1.9909
 4921TIP3   OH236253   3.135   2.022  12.699 -0.4210 -0.1149 -0.0638
 4921TIP3    H136254   3.078   2.040  12.625  0.0548  2.8078  0.1847
 4921TIP3    H236255   3.088   2.058  12.775  1.1686  1.2874  0.3157
 4922TIP3   OH236256   5.793   4.006   2.253  0.6996  0.0201  0.3601
 4922TIP3    H136257   5.752   4.034   2.335  2.1947  1.9846  0.5159
 4922TIP3    H236258   5.797   3.910   2.259 -2.9196 -0.2503  0.6906
 4923TIP3   OH236259   0.676   0.800   0.838 -0.7175 -0.0602  0.7730
 4923TIP3    H136260   0.612   0.778   0.771 -0.0895  1.2666 -0.3200
 4923TIP3    H236261   0.688   0.719   0.888  1.1104 -2.1062 -2.6366
 4924TIP3   OH236262   2.530   3.952  10.643 -0.1276  0.6415  0.5636
 4924TIP3    H136263   2.480   3.934  10.563  1.1116  1.2813 -0.3839
 4924TIP3    H236264   2.578   3.871  10.659 -0.6001  0.4111  0.8394
 4925TIP3   OH236265   2.903   5.054   1.129 -0.1477 -0.2533  0.2861
 4925TIP3    H136266   2.941   5.008   1.203 -1.6444 -1.7970  0.1585
 4925TIP3    H236267   2.911   5.147   1.152 -0.5483 -0.6780  2.3712
 4926TIP3   OH236268   3.039   5.225   2.899  0.0910 -0.3640 -0.0143
 4926TIP3    H136269   2.970   5.287   2.923  1.7889  1.0195  1.6628
 4926TIP3    H236270   3.058   5.243   2.808  0.1103  1.1635  0.2773
 4927TIP3   OH236271   5.844   0.778   1.344 -0.2516  0.4459  0.1599
 4927TIP3    H136272   5.888   0.742   1.421 -0.1655 -2.0443 -0.9469
 4927TIP3    H236273   5.753   0.752   1.354 -0.4059  0.8509 -0.1596
 4928TIP3   OH236274   2.453   0.988  14.966 -0.1761 -0.2793 -0.1531
 4928TIP3    H136275   2.474   0.961  14.877 -0.9921 -0.6127 -0.2593
 4928TIP3    H236276   2.537   0.995  15.011  0.2220 -0.3305 -0.8845
 4929TIP3   OH236277   2.771   4.245   2.145 -0.4760 -0.2156 -0.1705
 4929TIP3    H136278   2.750   4.236   2.051 -0.4664  2.3259 -0.4614
 4929TIP3    H236279   2.847   4.302   2.148 -1.1010  0.5949  1.4326
 4930TIP3   OH236280   6.607   0.145  12.210 -0.4007 -0.4465 -0.0058
 4930TIP3    H136281   6.543   0.188  12.266 -0.5900 -1.0764  0.2764
 4930TIP3    H236282   6.630   0.210  12.144 -2.4322 -0.6834 -1.0251
 4931TIP3   OH236283   6.725   6.608   6.239  0.1531  0.1911 -0.1847
 4931TIP3    H136284   6.637   6.597   6.201  0.6481  3.2416 -2.6332
 4931TIP3    H236285   6.709   6.624   6.332 -1.9720  1.1266 -0.6378
 4932TIP3   OH236286   6.364   4.151  17.152 -0.5493  0.5234  0.1567
 4932TIP3    H136287   6.438   4.122  17.099 -1.9746  0.6278 -2.0115
 4932TIP3    H236288   6.372   4.247  17.153 -1.3024  0.6233 -1.1574
 4933TIP3   OH236289   5.861   3.931   3.305  0.2235 -0.7639  0.0132
 4933TIP3    H136290   5.952   3.960   3.309 -0.1738  0.5827 -0.0742
 4933TIP3    H236291   5.854   3.863   3.372  0.7186  0.8707  1.8331
 4934TIP3   OH236292   5.479   5.911  10.731 -0.2919  0.3438  0.1350
 4934TIP3    H136293   5.431   5.990  10.707 -0.8015  0.3898  1.2671
 4934TIP3    H236294   5.450   5.845  10.667 -0.7943  0.7417 -0.0526
 4935TIP3   OH236295   5.929   2.086  12.451 -0.1137  0.0951  0.0302
 4935TIP3    H136296   5.876   2.017  12.410  0.4697 -0.2402 -0.1623
 4935TIP3    H236297   5.891   2.168  12.417 -0.2967 -0.1514 -0.3732
 4936TIP3   OH236298   4.082   5.992   5.402 -0.5589  0.0413  0.7405
 4936TIP3    H136299   4.176   6.009   5.404 -0.4477 -0.6561  1.5199
 4936TIP3    H236300   4.042   6.076   5.427 -0.2335  0.8377 -1.2013
 4937TIP3   OH236301   0.617   3.755  17.063  0.2935  0.5170  0.4297
 4937TIP3    H136302   0.664   3.696  17.004  0.7369  1.4847 -0.2030
 4937TIP3    H236303   0.526   3.726  17.057  0.9137 -2.6413  3.1197
 4938TIP3   OH236304   6.581   4.958   0.688 -0.0193 -0.0753 -0.3112
 4938TIP3    H136305   6.541   5.014   0.621 -1.6935  0.6596  1.2251
 4938TIP3    H236306   6.508   4.915   0.730  0.8796  0.3071  1.7482
 4939TIP3   OH236307   2.545   0.708  12.765 -0.2652  0.8095  0.0313
 4939TIP3    H136308   2.542   0.770  12.692 -1.9641  1.4933  0.6369
 4939TIP3    H236309   2.638   0.686  12.774  0.0245  0.9277 -2.1255
 4940TIP3   OH236310   0.197   3.041  11.003 -0.0499 -0.4136  0.1353
 4940TIP3    H136311   0.160   3.059  11.089  0.6529 -1.2197  0.6259
 4940TIP3    H236312   0.165   3.111  10.947 -1.1279 -0.2962  0.8806
 4941TIP3   OH236313   5.020   1.733  16.735  0.2466  0.3925  0.4012
 4941TIP3    H136314   5.042   1.640  16.737 -1.6742 -0.1554 -0.6974
 4941TIP3    H236315   5.021   1.756  16.642 -0.1449  1.2357  0.5921
 4942TIP3   OH236316   6.058   3.891  15.723  0.4985  0.0719 -0.0395
 4942TIP3    H136317   6.111   3.843  15.787  0.4116 -0.1340 -0.1198
 4942TIP3    H236318   6.093   3.980  15.724 -0.9966  0.7095  1.9831
 4943TIP3   OH236319   1.657   5.695   5.084 -0.0784  0.1599 -0.1886
 4943TIP3    H136320   1.595   5.706   5.157 -0.7260 -1.1068 -0.5214
 4943TIP3    H236321   1.689   5.605   5.093  0.3192  0.2010 -1.1000
 4944TIP3   OH236322   3.061   4.064  16.308 -0.3781  0.0527 -0.4123
 4944TIP3    H136323   2.997   4.133  16.291  0.9309  1.1324 -1.1956
 4944TIP3    H236324   3.094   4.082  16.396  0.4748  0.8784 -0.8889
 4945TIP3   OH236325   0.079   0.202  15.293  0.1490  0.0608  0.0650
 4945TIP3    H136326   0.073   0.115  15.334  0.5653 -0.0269 -0.0597
 4945TIP3    H236327   0.172   0.214  15.275  0.1903  0.8407  0.7321
 4946TIP3   OH236328   0.404   4.716   3.260 -0.0080 -0.0368 -0.0543
 4946TIP3    H136329   0.344   4.656   3.304  0.1683  1.1746  1.9549
 4946TIP3    H236330   0.400   4.690   3.168 -0.9547 -2.2210  0.5251
 4947TIP3   OH236331   6.579   6.164  13.010 -0.5766 -0.3139  0.6280
 4947TIP3    H136332   6.550   6.170  13.101 -0.6871  0.8943  0.5323
 4947TIP3    H236333   6.669   6.197  13.012 -0.4626 -0.5988  0.3445
 4948TIP3   OH236334   5.283   5.972  15.124  0.0708  0.4874 -0.0175
 4948TIP3    H136335   5.328   5.999  15.204  0.6610 -1.1977  0.2560
 4948TIP3    H236336   5.320   6.030  15.056  0.4779  1.0991  0.7062
 4949TIP3   OH236337   6.804   5.683  13.694  0.8508 -0.4263  0.5353
 4949TIP3    H136338   6.728   5.626  13.705 -0.4576  1.0387 -0.4563
 4949TIP3    H236339   6.806   5.737  13.773 -0.7223  1.2483 -0.4930
 4950TIP3   OH236340   5.892   3.063   2.648  0.3776  0.4101 -0.2549
 4950TIP3    H136341   5.829   2.991   2.645 -0.6816  1.2316  1.0572
 4950TIP3    H236342   5.978   3.020   2.653 -0.2107 -0.7600  0.0842
 4951TIP3   OH236343   5.503   0.102  15.169 -0.4499  0.5850  0.1340
 4951TIP3    H136344   5.489   0.010  15.194  0.5826  0.0252 -1.2251
 4951TIP3    H236345   5.596   0.117  15.185 -0.3912  1.0719 -0.6267
 4952TIP3   OH236346   2.904   6.597   2.104 -0.0673 -0.3359 -0.0779
 4952TIP3    H136347   2.986   6.615   2.150 -0.6776  0.6725  0.6664
 4952TIP3    H236348   2.836   6.629   2.163 -0.9820 -0.8379 -0.8356
 4953TIP3   OH236349   5.710   6.279  16.054  0.5601  0.1888  0.4999
 4953TIP3    H136350   5.742   6.248  16.139  0.0733 -0.9944  0.2830
 4953TIP3    H236351   5.615   6.270  16.060  0.5062  0.3701 -0.0594
 4954TIP3   OH236352   2.470   6.357   2.786 -0.2807 -0.2953 -0.1099
 4954TIP3    H136353   2.506   6.439   2.820 -1.8228  0.2876  0.1768
 4954TIP3    H236354   2.436   6.380   2.699  2.7883 -1.5530 -1.8328
 4955TIP3   OH236355   4.184   2.027   1.187  0.2881 -0.1441 -0.4029
 4955TIP3    H136356   4.198   1.959   1.121 -1.3665 -1.5641  0.6157
 4955TIP3    H236357   4.155   2.103   1.137  0.6831 -0.6536 -1.4467
 4956TIP3   OH236358   6.752   4.076  15.841  0.0984 -0.1162  0.0819
 4956TIP3    H136359   6.684   4.141  15.824  0.6167  0.3471 -0.2433
 4956TIP3    H236360   6.834   4.120  15.818  0.4650 -0.8536 -0.0509
 4957TIP3   OH236361   2.833   1.723  11.186  0.1290 -0.5628  0.1436
 4957TIP3    H136362   2.925   1.713  11.213 -0.0577 -1.1013  0.6094
 4957TIP3    H236363   2.833   1.799  11.128  0.8745 -0.5673  0.1234
 4958TIP3   OH236364   4.776   0.994   1.871 -0.4784  1.1473 -0.2704
 4958TIP3    H136365   4.712   1.057   1.839 -0.5410  0.4267 -1.6316
 4958TIP3    H236366   4.787   0.932   1.799  0.2527  0.1182  0.6908
 4959TIP3   OH236367   6.451   1.207   4.036  0.2175 -0.0045  0.1748
 4959TIP3    H136368   6.420   1.157   4.111 -0.7172  1.7732  1.0412
 4959TIP3    H236369   6.545   1.193   4.033  0.0177 -1.5074  0.5835
 4960TIP3   OH236370   1.494   1.213  16.853 -0.2011  0.2701 -0.4287
 4960TIP3    H136371   1.454   1.215  16.940 -1.4849 -0.1378 -0.9835
 4960TIP3    H236372   1.559   1.142  16.858  0.6720  1.0992  0.5545
 4961TIP3   OH236373   0.606   2.837   1.917 -0.1223 -0.0226  0.1138
 4961TIP3    H136374   0.700   2.848   1.934  0.2836 -1.7669 -0.7212
 4961TIP3    H236375   0.576   2.779   1.987 -0.4357  0.0388  0.0277
 4962TIP3   OH236376   5.319   3.042   3.127 -0.0342 -0.2214  0.5346
 4962TIP3    H136377   5.366   2.997   3.197  1.8848 -1.2581 -1.3038
 4962TIP3    H236378   5.321   2.981   3.054  1.3900  2.1876 -1.5965
 4963TIP3   OH236379   3.593   2.929   5.141 -0.2729 -0.0318  0.5385
 4963TIP3    H136380   3.633   2.950   5.057 -0.2686  1.7353  0.9494
 4963TIP3    H236381   3.499   2.919   5.121 -0.2408  0.1603  0.2961
 4964TIP3   OH236382   4.585   2.771  14.087 -0.5333 -0.0005  0.0357
 4964TIP3    H136383   4.652   2.716  14.046 -0.3024  0.1464  0.2106
 4964TIP3    H236384   4.587   2.746  14.180 -0.0272  0.6994  0.2240
 4965TIP3   OH236385   1.713   1.777   6.208 -0.0142  0.0357 -0.1225
 4965TIP3    H136386   1.652   1.849   6.194  0.9654  1.7451  3.3675
 4965TIP3    H236387   1.794   1.805   6.166 -0.7117 -1.0453 -2.3970
 4966TIP3   OH236388   2.451   4.954   0.470  0.0948  0.0910 -0.0886
 4966TIP3    H136389   2.414   4.995   0.391 -0.0053 -2.2433 -1.3432
 4966TIP3    H236390   2.542   4.936   0.448  0.0187 -0.7518  0.2563
 4967TIP3   OH236391   2.288   3.573   5.009  0.4482  0.0889  0.0247
 4967TIP3    H136392   2.270   3.562   5.102 -0.3006 -0.5955 -0.1949
 4967TIP3    H236393   2.381   3.553   5.001  0.3785 -0.4826  0.5305
 4968TIP3   OH236394   1.302   5.277  12.392 -0.0031 -0.7126 -0.1276
 4968TIP3    H136395   1.284   5.362  12.431  1.4246  0.1062 -1.1423
 4968TIP3    H236396   1.343   5.226  12.462  1.7947  0.4610 -0.2649
 4969TIP3   OH236397   0.530   2.487  15.262  0.8163 -0.0899  0.0778
 4969TIP3    H136398   0.566   2.529  15.341  1.1597  1.1260 -0.7036
 4969TIP3    H236399   0.590   2.511  15.192 -0.6734  0.7266 -0.9828
 4970TIP3   OH236400   1.418   5.929  10.999 -0.3635  0.3262 -0.0660
 4970TIP3    H136401   1.499   5.978  10.984 -1.0551  1.5978  0.1925
 4970TIP3    H236402   1.383   5.964  11.081 -1.7116  0.5686 -0.7184
 4971TIP3   OH236403   5.115   4.737  16.547 -0.2171  0.0855 -0.3118
 4971TIP3    H136404   5.083   4.647  16.542 -0.0156 -0.0896  1.1982
 4971TIP3    H236405   5.040   4.791  16.522 -1.2520 -0.3970  1.5840
 4972TIP3   OH236406   5.776   1.469   6.310 -0.2594 -0.0487  0.1862
 4972TIP3    H136407   5.775   1.561   6.283  0.3431  0.0852  0.6042
 4972TIP3    H236408   5.836   1.467   6.385 -0.4158 -0.7502  0.2940
 4973TIP3   OH236409   4.451   3.451  16.067 -0.0497  0.4726 -0.1834
 4973TIP3    H136410   4.377   3.457  16.127 -0.4133 -0.6254 -0.5062
 4973TIP3    H236411   4.524   3.420  16.121 -0.6285 -1.5113 -0.4686
 4974TIP3   OH236412   1.807   4.718  14.679  0.2356  0.5436  0.5693
 4974TIP3    H136413   1.840   4.645  14.627  1.1498  1.2743  0.0852
 4974TIP3    H236414   1.731   4.683  14.725  0.0721 -0.4300 -0.4081
 4975TIP3   OH236415   5.211   4.502   1.388  0.3521  0.3964  0.1418
 4975TIP3    H136416   5.166   4.586   1.391  0.6844  0.5658  0.6810
 4975TIP3    H236417   5.226   4.485   1.295 -0.5306  0.4882 -0.0224
 4976TIP3   OH236418   3.307   4.116   5.109 -0.0202 -0.1090 -0.1354
 4976TIP3    H136419   3.304   4.057   5.184 -0.7297  1.4760  1.1561
 4976TIP3    H236420   3.268   4.066   5.038 -3.3243 -0.3033  1.6196
 4977TIP3   OH236421   5.872   0.725   4.522 -0.3742 -0.4106  0.1404
 4977TIP3    H136422   5.900   0.720   4.430 -0.5334 -0.9857  0.1208
 4977TIP3    H236423   5.888   0.637   4.556  1.2235  0.2171  1.1251
 4978TIP3   OH236424   6.163   3.209   4.092 -0.2643  0.0765  0.2007
 4978TIP3    H136425   6.181   3.158   4.013 -1.2342 -0.5974  0.3992
 4978TIP3    H236426   6.223   3.284   4.086  1.1390 -1.0169 -0.1441
 4979TIP3   OH236427   5.021   4.418  16.570  0.2452 -0.2566  0.5903
 4979TIP3    H136428   5.103   4.375  16.592 -0.5623 -0.9705  2.4277
 4979TIP3    H236429   4.954   4.365  16.612 -1.0762  0.8479 -0.0420
 4980TIP3   OH236430   4.132   0.720  14.108  0.5386 -0.2250  0.5667
 4980TIP3    H136431   4.058   0.659  14.115  0.0622  0.4482  1.8016
 4980TIP3    H236432   4.114   0.770  14.029 -0.8031  0.4855  1.2824
 4981TIP3   OH236433   4.916   2.932   3.709  0.1798  0.7434  0.6977
 4981TIP3    H136434   4.832   2.974   3.690  0.3856  0.2446 -1.5993
 4981TIP3    H236435   4.942   2.968   3.793 -1.6094  2.0681  0.7434
 4982TIP3   OH236436   5.729   1.941   2.055 -0.2022  0.0512  0.5011
 4982TIP3    H136437   5.754   1.999   2.127  0.6197 -0.3695  0.5584
 4982TIP3    H236438   5.639   1.915   2.076  0.5403 -1.3650  2.2713
 4983TIP3   OH236439   5.087   4.365  16.262  0.1487  0.0158 -0.2549
 4983TIP3    H136440   5.092   4.415  16.343 -0.8706  1.4819 -1.0641
 4983TIP3    H236441   5.179   4.352  16.236  0.4432  1.1242  0.1749
 4984TIP3   OH236442   3.270   4.195  13.299  0.1860 -0.4828 -0.0483
 4984TIP3    H136443   3.186   4.189  13.253  0.8907 -2.0719 -1.2387
 4984TIP3    H236444   3.251   4.245  13.378 -1.9389 -1.0910 -0.1245
 4985TIP3   OH236445   0.123   1.518   0.374  0.2721  0.3315 -0.0537
 4985TIP3    H136446   0.100   1.583   0.441 -1.9537 -0.3116 -0.1237
 4985TIP3    H236447   0.149   1.440   0.425  0.9154  0.6066  0.0418
 4986TIP3   OH236448   1.949   6.817   2.618  0.0667 -0.2439  0.2921
 4986TIP3    H136449   1.913   6.898   2.583  2.4276  0.6846 -0.2057
 4986TIP3    H236450   2.041   6.837   2.634  0.6620 -2.7644  0.4116
 4987TIP3   OH236451   4.163   4.201   2.702 -0.7295 -0.2860  0.2395
 4987TIP3    H136452   4.143   4.128   2.643 -0.5459  0.0131 -0.1987
 4987TIP3    H236453   4.090   4.202   2.764 -1.1212 -0.3687 -0.2111
 4988TIP3   OH236454   5.573   3.490   6.407  0.9589 -0.1703  0.2441
 4988TIP3    H136455   5.540   3.404   6.379 -2.9300  1.1258  0.2720
 4988TIP3    H236456   5.520   3.553   6.358  3.7760  2.3276  0.1068
 4989TIP3   OH236457   5.333   5.723   4.840 -0.2106 -0.4047  0.0046
 4989TIP3    H136458   5.260   5.698   4.896  0.6345 -1.4738  0.6810
 4989TIP3    H236459   5.297   5.721   4.751 -0.9359 -1.1959  0.3036
 4990TIP3   OH236460   1.152   2.503   4.594 -0.3637  0.0717  0.3772
 4990TIP3    H136461   1.084   2.524   4.530 -1.0819 -0.9414  0.7891
 4990TIP3    H236462   1.189   2.420   4.564 -0.3041 -0.1132  0.9508
 4991TIP3   OH236463   4.307   5.944   1.211  0.4496 -0.3316  0.4868
 4991TIP3    H136464   4.290   5.849   1.207  0.4086 -0.3009 -0.3073
 4991TIP3    H236465   4.304   5.965   1.304 -1.6564 -0.7407  0.5779
 4992TIP3   OH236466   2.596   5.619  14.843  0.1636  0.1842 -0.1427
 4992TIP3    H136467   2.678   5.602  14.889  0.8871  1.5175 -0.8715
 4992TIP3    H236468   2.569   5.706  14.872  0.1186  0.6344 -1.4313
 4993TIP3   OH236469   4.229   6.449  15.392  0.0923  0.1614  0.2597
 4993TIP3    H136470   4.235   6.537  15.353 -0.7514 -0.1942 -0.7145
 4993TIP3    H236471   4.202   6.465  15.482 -0.3593  0.8966  0.0047
 4994TIP3   OH236472   3.930   4.985   6.054  0.0275  0.0075 -0.0836
 4994TIP3    H136473   3.971   5.068   6.032  0.8694 -0.0618  1.1442
 4994TIP3    H236474   3.982   4.950   6.126 -1.6303 -0.5408  0.9146
 4995TIP3   OH236475   5.499   3.889  11.630  0.2682 -0.2037  0.0750
 4995TIP3    H136476   5.521   3.980  11.648  1.1511 -0.5047  0.6102
 4995TIP3    H236477   5.552   3.866  11.554  1.0934 -0.6448  0.7609
 4996TIP3   OH236478   6.645   4.475  16.816 -0.5935 -0.1863 -0.0618
 4996TIP3    H136479   6.691   4.532  16.878  0.9159 -0.1284 -1.1642
 4996TIP3    H236480   6.585   4.532  16.769 -0.1915  0.1942 -0.1179
 4997TIP3   OH236481   5.405   4.607  14.171  0.0419 -0.0911  0.3503
 4997TIP3    H136482   5.322   4.578  14.131  0.2310  0.5517 -0.5230
 4997TIP3    H236483   5.390   4.596  14.265 -0.5550 -1.2583  0.1508
 4998TIP3   OH236484   4.585   6.315  13.026  0.2518 -0.6779  0.6490
 4998TIP3    H136485   4.517   6.274  13.079 -0.4619 -0.1579  0.1576
 4998TIP3    H236486   4.666   6.298  13.073  0.0301 -2.8686  0.3076
 4999TIP3   OH236487   1.468   6.048  14.208 -0.3122  0.2090  0.2516
 4999TIP3    H136488   1.519   5.980  14.251 -0.1505  0.7974  1.0018
 4999TIP3    H236489   1.454   6.015  14.119  1.4964  0.0832 -0.0314
 5000TIP3   OH236490   1.103   6.379   5.846  0.0713  0.3548 -0.4464
 5000TIP3    H136491   1.051   6.320   5.792 -0.4926  1.5112 -1.1929
 5000TIP3    H236492   1.190   6.338   5.850 -0.3819 -0.6631 -0.6898
 5001TIP3   OH236493   2.433   4.292   3.338 -0.0971 -0.1351 -0.0239
 5001TIP3    H136494   2.479   4.252   3.411 -0.0059 -2.3955 -1.2401
 5001TIP3    H236495   2.503   4.323   3.280 -0.1697  1.1722  0.5494
 5002TIP3   OH236496   6.680   2.533   3.854  0.8312 -0.1088  0.1627
 5002TIP3    H136497   6.613   2.541   3.922  0.0772  0.6599 -0.6448
 5002TIP3    H236498   6.632   2.539   3.772  1.8482  0.0417 -0.4427
 5003TIP3   OH236499   0.442   3.309  14.427  0.5652 -0.5663 -0.5261
 5003TIP3    H136500   0.495   3.389  14.419 -0.0165 -0.1935 -0.6681
 5003TIP3    H236501   0.484   3.260  14.498  0.7463  0.0083 -0.2251
 5004TIP3   OH236502   4.936   1.486  15.573 -0.2462  0.2776  0.2588
 5004TIP3    H136503   4.883   1.525  15.504  0.1131  0.0632 -0.1412
 5004TIP3    H236504   4.893   1.514  15.654 -0.8544  0.2634 -0.0513
 5005TIP3   OH236505   1.947   0.340  16.314 -0.1004 -0.4342  0.0396
 5005TIP3    H136506   2.029   0.328  16.265 -0.1390 -1.9902  0.3174
 5005TIP3    H236507   1.900   0.258  16.302 -0.4478 -0.5683  2.0763
 5006TIP3   OH236508   5.703   0.074   0.575  0.1310 -0.0769  0.2216
 5006TIP3    H136509   5.635   0.093   0.511  1.9887  1.7849 -1.3010
 5006TIP3    H236510   5.769   0.023   0.527  0.8806  0.0752  1.0459
 5007TIP3   OH236511   0.010   5.688   0.763 -0.0570  0.3025  0.0366
 5007TIP3    H136512   0.074   5.759   0.760  1.7278 -1.1313  1.4958
 5007TIP3    H236513  -0.069   5.728   0.797  0.7898  1.6721  0.4612
 5008TIP3   OH236514   6.066   2.791  12.285  0.4475 -0.9486 -0.0281
 5008TIP3    H136515   5.992   2.781  12.345 -0.0201  0.4215 -0.3560
 5008TIP3    H236516   6.143   2.789  12.342  0.0841 -0.9316  0.4708
 5009TIP3   OH236517   4.859   1.012   0.079 -0.2564  0.1672  0.0867
 5009TIP3    H136518   4.890   0.951   0.145 -2.2558  0.0173  0.9525
 5009TIP3    H236519   4.935   1.067   0.059  1.0977 -1.4456  0.5618
 5010TIP3   OH236520   0.723   6.449   5.585  0.0574 -0.2983 -0.1855
 5010TIP3    H136521   0.648   6.508   5.584  0.9214  0.8306 -0.3348
 5010TIP3    H236522   0.702   6.383   5.519 -0.6182  0.2314 -0.5172
 5011TIP3   OH236523   6.412   0.443   0.131 -0.0504 -0.0790 -0.4571
 5011TIP3    H136524   6.382   0.442   0.040 -1.3587  0.3282 -0.0525
 5011TIP3    H236525   6.468   0.365   0.138  1.2407  0.6453 -1.9557
 5012TIP3   OH236526   4.880   0.031   2.721 -0.2178  0.4698 -0.1083
 5012TIP3    H136527   4.820   0.092   2.678 -0.2432  0.4251 -0.1367
 5012TIP3    H236528   4.825  -0.014   2.786 -1.0399 -1.8857 -2.2802
 5013TIP3   OH236529   1.087   0.894  11.711  0.1250  0.6013  0.0967
 5013TIP3    H136530   1.018   0.835  11.680  0.9226 -0.3260  0.0481
 5013TIP3    H236531   1.056   0.922  11.798  0.1006 -0.5240  0.4667
 5014TIP3   OH236532   0.770   0.594   1.914  0.0652 -0.5221  0.2043
 5014TIP3    H136533   0.767   0.548   1.997 -1.5858  1.2579  1.2025
 5014TIP3    H236534   0.741   0.529   1.849  1.4404 -1.9426  0.9454
 5015TIP3   OH236535   0.688   1.625  11.135 -0.5169  0.4272 -0.2678
 5015TIP3    H136536   0.779   1.636  11.108 -0.3512 -0.0018  0.0932
 5015TIP3    H236537   0.694   1.595  11.226 -1.0357  0.9015 -0.0765
 5016TIP3   OH236538   0.430   0.550  12.079 -0.3143 -0.7305  0.0484
 5016TIP3    H136539   0.476   0.533  11.998  0.9945 -0.9831  0.8195
 5016TIP3    H236540   0.395   0.465  12.105 -1.2122 -0.5486 -0.5080
 5017TIP3   OH236541   5.521   1.094  12.683 -0.1729 -0.5957  0.4720
 5017TIP3    H136542   5.492   1.184  12.691  0.5215 -0.2777 -0.4410
 5017TIP3    H236543   5.441   1.044  12.672 -0.4803  0.4161 -3.4175
 5018TIP3   OH236544   4.808   3.277  12.581  0.0523 -0.1360 -0.6565
 5018TIP3    H136545   4.755   3.203  12.610 -1.6586  1.7379  1.3299
 5018TIP3    H236546   4.852   3.307  12.660 -0.7604  2.0698 -0.9806
 5019TIP3   OH236547   4.112   6.711   2.678 -0.6809  0.0126 -0.7895
 5019TIP3    H136548   4.120   6.620   2.707 -1.5011  0.6409  1.6207
 5019TIP3    H236549   4.201   6.736   2.653 -0.1338 -0.9886  0.0630
 5020TIP3   OH236550   2.250   4.266  12.112 -0.1165 -0.0670  0.3607
 5020TIP3    H136551   2.302   4.301  12.184  0.6379 -0.0298 -0.1893
 5020TIP3    H236552   2.256   4.333  12.044  1.1865 -1.1432 -0.6356
 5021TIP3   OH236553   0.625   6.052  14.801 -0.3554  0.6855 -0.6293
 5021TIP3    H136554   0.709   6.023  14.765  0.0456  2.5534 -1.2745
 5021TIP3    H236555   0.648   6.115  14.869 -1.2111 -0.4664  0.7969
 5022TIP3   OH236556   0.364   5.792   3.986 -0.0595 -0.2246  0.1233
 5022TIP3    H136557   0.364   5.872   3.933  1.4018 -0.0299  0.3632
 5022TIP3    H236558   0.406   5.817   4.068  1.8564 -1.5585 -0.3808
 5023TIP3   OH236559   1.521   3.618   2.391 -0.2800 -0.0835 -0.1174
 5023TIP3    H136560   1.558   3.597   2.305 -1.3173 -0.2858 -0.5364
 5023TIP3    H236561   1.457   3.688   2.372  0.7301  1.1139  0.7606
 5024TIP3   OH236562   0.933   5.377   2.696 -0.2215 -0.2848 -0.2420
 5024TIP3    H136563   0.856   5.432   2.706 -0.5244 -0.7330 -0.0885
 5024TIP3    H236564   0.968   5.400   2.610  0.0152  0.5937  0.0776
 5025TIP3   OH236565   3.127   1.970   3.885 -0.2945 -0.2485 -0.5093
 5025TIP3    H136566   3.103   2.063   3.882  0.2658 -0.0478  0.6135
 5025TIP3    H236567   3.115   1.945   3.977  1.7425 -0.6625 -0.3050
 5026TIP3   OH236568   0.191   2.830  13.249 -0.6935  0.0892  0.0341
 5026TIP3    H136569   0.107   2.827  13.203 -0.3877  0.1074 -0.5294
 5026TIP3    H236570   0.172   2.877  13.330 -1.3038 -0.2049  0.0687
 5027TIP3   OH236571   0.660   0.302  13.593  0.0219  0.2951 -0.2569
 5027TIP3    H136572   0.731   0.239  13.606 -0.2027 -0.1262 -0.9687
 5027TIP3    H236573   0.616   0.306  13.678  0.5051  0.0631  0.0067
 5028TIP3   OH236574   3.845   1.769   5.601  0.3821  0.1707 -0.1393
 5028TIP3    H136575   3.866   1.834   5.534  0.5378  1.7718  1.3987
 5028TIP3    H236576   3.875   1.686   5.563  2.7737  1.3416 -1.0666
 5029TIP3   OH236577   4.452   0.112   2.283  0.5290  0.1722  0.4539
 5029TIP3    H136578   4.510   0.129   2.209 -0.0269 -3.1239 -0.9082
 5029TIP3    H236579   4.378   0.171   2.268  0.6788 -0.0231 -1.3696
 5030TIP3   OH236580   3.710   3.741  16.896  0.4044  0.4325  0.2305
 5030TIP3    H136581   3.673   3.739  16.984  1.7637 -1.3695  0.8189
 5030TIP3    H236582   3.787   3.797  16.904  0.7444 -0.0403  0.2890
 5031TIP3   OH236583   1.704   0.597   4.264  0.1563 -0.0301 -0.0340
 5031TIP3    H136584   1.653   0.631   4.191  0.0470 -0.7070 -0.2768
 5031TIP3    H236585   1.722   0.674   4.318 -1.6675  0.1405  0.3955
 5032TIP3   OH236586   0.695   6.636  10.675 -0.0480  0.6608  0.2153
 5032TIP3    H136587   0.664   6.706  10.617  0.2425  0.6539  0.0472
 5032TIP3    H236588   0.790   6.634  10.661 -0.0863  0.0509  0.0123
 5033TIP3   OH236589   5.963   2.168  15.129 -0.2767  0.5138 -0.1387
 5033TIP3    H136590   5.924   2.128  15.052  1.2117  1.6859 -1.5716
 5033TIP3    H236591   5.907   2.242  15.150 -0.5361  0.3520 -0.2652
 5034TIP3   OH236592   6.487   3.770  14.970 -0.5523 -0.0665  0.1558
 5034TIP3    H136593   6.556   3.706  14.986 -2.4503 -1.4397  4.4106
 5034TIP3    H236594   6.514   3.847  15.021 -1.1661  0.1950  0.0930
 5035TIP3   OH236595   0.646   3.170   1.041  0.1604 -0.0578 -0.0691
 5035TIP3    H136596   0.689   3.255   1.045  0.2908 -0.1619  1.1309
 5035TIP3    H236597   0.646   3.147   0.948 -0.4041  1.5152 -0.4851
 5036TIP3   OH236598   5.720   5.199  14.895 -0.2777  0.2372 -0.3012
 5036TIP3    H136599   5.661   5.154  14.835 -1.6108 -0.5329  1.4708
 5036TIP3    H236600   5.796   5.223  14.842 -0.8052 -1.5428 -1.9780
 5037TIP3   OH236601   3.283   3.930   0.739  0.2884  0.2981 -0.6466
 5037TIP3    H136602   3.296   3.933   0.834 -0.7736 -0.3676 -0.4569
 5037TIP3    H236603   3.346   3.993   0.704  2.4916 -1.2598  0.2882
 5038TIP3   OH236604   0.296   5.316  13.380  0.3020 -0.6445 -0.3637
 5038TIP3    H136605   0.224   5.316  13.443  2.2003  1.0898  2.0020
 5038TIP3    H236606   0.266   5.259  13.309 -3.2656 -0.1356  0.5594
 5039TIP3   OH236607   5.288   5.393   3.519  0.1747  0.2020  0.3712
 5039TIP3    H136608   5.314   5.330   3.587 -1.9353 -0.5657  0.5526
 5039TIP3    H236609   5.193   5.381   3.511  0.2517  0.7129 -2.2711
 5040TIP3   OH236610   0.307   6.045  13.220  0.3352 -0.4284 -0.5288
 5040TIP3    H136611   0.313   6.136  13.247 -2.8228  0.4662 -2.3700
 5040TIP3    H236612   0.258   6.002  13.290  0.6135 -0.4056 -0.3182
 5041TIP3   OH236613   3.127   1.394  15.594  0.1329 -0.1020 -0.1893
 5041TIP3    H136614   3.065   1.379  15.522  0.0065 -1.1233  0.1152
 5041TIP3    H236615   3.184   1.464  15.562 -0.4183  0.0054 -0.9686
 5042TIP3   OH236616   5.479   3.436  11.395 -0.5324 -0.2147 -0.2758
 5042TIP3    H136617   5.384   3.444  11.383 -0.3591  0.7745 -1.1946
 5042TIP3    H236618   5.491   3.422  11.489 -1.5702 -0.0955 -0.1146
 5043TIP3   OH236619   5.360   6.782   1.169 -0.4866 -0.6960 -0.1465
 5043TIP3    H136620   5.399   6.778   1.082  0.4144  0.8620  0.1493
 5043TIP3    H236621   5.434   6.771   1.229 -0.5119  1.6941  0.4241
 5044TIP3   OH236622   1.362   0.989   1.348  0.2059  0.3410  0.2976
 5044TIP3    H136623   1.437   0.933   1.367  1.0482  1.0517 -0.8263
 5044TIP3    H236624   1.286   0.934   1.365  0.9944 -0.7439  0.3978
 5045TIP3   OH236625   3.730   3.574   2.327  0.1187  0.1194  0.0263
 5045TIP3    H136626   3.782   3.541   2.254  1.6161  0.7361  0.7868
 5045TIP3    H236627   3.775   3.543   2.405 -0.5705  0.8006  0.7079
 5046TIP3   OH236628   3.923   2.548   4.198 -0.3075  0.6031  0.1068
 5046TIP3    H136629   3.895   2.473   4.251  0.1142  0.1247 -0.3420
 5046TIP3    H236630   3.843   2.599   4.186 -1.1216 -0.9242 -1.4668
 5047TIP3   OH236631   2.544   1.495  13.296 -0.9532 -0.5582 -0.0629
 5047TIP3    H136632   2.534   1.546  13.215 -1.4122 -1.8395 -0.8390
 5047TIP3    H236633   2.558   1.561  13.364  0.3473  0.5113 -1.3096
 5048TIP3   OH236634   0.252   5.740  16.400  0.0016 -0.0915  0.5574
 5048TIP3    H136635   0.313   5.670  16.424  0.4094 -1.1407 -2.9185
 5048TIP3    H236636   0.308   5.815  16.382 -0.1037  0.0976  1.0210
 5049TIP3   OH236637   1.382   0.831  11.625  0.0025 -0.3647 -0.0317
 5049TIP3    H136638   1.289   0.845  11.605 -0.3574 -0.8629  1.2294
 5049TIP3    H236639   1.413   0.775  11.553 -0.1847  1.2943 -1.4656
 5050TIP3   OH236640   0.414   5.080  15.809 -0.2311 -0.4782  0.2570
 5050TIP3    H136641   0.404   5.027  15.730  1.7409 -1.4757  0.6401
 5050TIP3    H236642   0.410   5.017  15.881 -1.0382  0.3114  0.9299
 5051TIP3   OH236643   1.531   2.031   0.562 -0.1098  0.2206 -0.5115
 5051TIP3    H136644   1.520   2.123   0.538  3.0341  0.4305 -1.6735
 5051TIP3    H236645   1.597   2.032   0.631 -1.7311 -1.0849  1.1486
 5052TIP3   OH236646   2.541   1.134  11.493  0.9031  0.0707 -0.0291
 5052TIP3    H136647   2.585   1.218  11.508  1.2852  0.5875 -3.3298
 5052TIP3    H236648   2.448   1.156  11.488  1.0133  0.3747 -1.0237
 5053TIP3   OH236649   1.771   5.426  16.513  0.5836 -0.0581 -0.2880
 5053TIP3    H136650   1.760   5.482  16.590  0.6077  0.4889 -0.6695
 5053TIP3    H236651   1.811   5.484  16.448  0.4124 -0.4678 -0.7610
 5054TIP3   OH236652   4.138   3.542   4.353 -0.8417 -0.0448  0.2993
 5054TIP3    H136653   4.150   3.635   4.372 -0.8059  0.3726 -1.5620
 5054TIP3    H236654   4.163   3.533   4.261  0.6483 -2.1963  0.8392
 5055TIP3   OH236655   6.289   1.431  15.068  0.3184 -0.0548 -0.0201
 5055TIP3    H136656   6.284   1.525  15.057 -2.0468 -0.2033 -0.7177
 5055TIP3    H236657   6.357   1.418  15.134  3.0796  1.8872 -2.2539
 5056TIP3   OH236658   1.369   1.426  11.554  0.2643  0.5963  0.1657
 5056TIP3    H136659   1.413   1.349  11.519 -0.0149  0.5088  0.0022
 5056TIP3    H236660   1.314   1.457  11.482 -0.5200  0.2605  0.6098
 5057TIP3   OH236661   4.912   6.394   1.106  0.0625 -0.8492 -0.4015
 5057TIP3    H136662   4.840   6.408   1.046 -0.7266  0.0745  0.7309
 5057TIP3    H236663   4.875   6.340   1.176  0.4432 -0.3284  0.2109
 5058TIP3   OH236664   4.591   3.787   0.504  0.5835  0.2109 -0.1337
 5058TIP3    H136665   4.505   3.744   0.500  1.2458 -1.0725 -1.1267
 5058TIP3    H236666   4.639   3.737   0.570  1.4177 -0.7253 -1.4150
 5059TIP3   OH236667   3.659   0.561  16.608 -0.3925  0.5023 -0.2399
 5059TIP3    H136668   3.693   0.544  16.695 -0.0418 -0.8499 -0.6163
 5059TIP3    H236669   3.615   0.480  16.583 -1.1427  1.1290 -1.0267
 5060TIP3   OH236670   2.239   6.331  13.097 -0.3417  0.2549  0.2133
 5060TIP3    H136671   2.198   6.254  13.136 -1.7926  0.9931  0.2186
 5060TIP3    H236672   2.322   6.340  13.144 -0.4376 -0.9256  0.6447
 5061TIP3   OH236673   4.946   3.548   3.753  0.1832 -0.5641 -0.2248
 5061TIP3    H136674   5.010   3.519   3.687 -0.3429 -1.4220 -0.3777
 5061TIP3    H236675   4.980   3.513   3.835  0.2050 -0.5364 -0.2221
 5062TIP3   OH236676   0.693   5.497   2.739 -0.5359 -0.6870 -0.1421
 5062TIP3    H136677   0.604   5.492   2.774 -0.7983  0.4485 -0.5772
 5062TIP3    H236678   0.683   5.545   2.656  0.5471 -0.0085  0.0945
 5063TIP3   OH236679   4.239   5.467   1.854 -0.0878  0.4072  0.2868
 5063TIP3    H136680   4.270   5.419   1.931 -0.2398  0.8544  0.6295
 5063TIP3    H236681   4.152   5.432   1.837 -0.3045  0.7439  0.6962
 5064TIP3   OH236682   2.961   2.590  10.661 -0.1870  0.3641 -0.3949
 5064TIP3    H136683   2.913   2.672  10.666  1.0528  1.1150 -0.2231
 5064TIP3    H236684   3.030   2.606  10.596 -0.3622 -0.7836 -0.8908
 5065TIP3   OH236685   4.966   2.276   5.204 -0.5633  0.0724 -0.0219
 5065TIP3    H136686   4.874   2.290   5.228 -0.1067  3.6748  0.0912
 5065TIP3    H236687   5.003   2.226   5.277 -2.4374 -1.7858 -0.2446
 5066TIP3   OH236688   4.039   2.853   2.109  0.4209 -0.5117 -0.2231
 5066TIP3    H136689   4.015   2.943   2.088 -0.6353 -0.8619 -0.5420
 5066TIP3    H236690   4.108   2.862   2.175 -1.3993  0.5254  1.6439
 5067TIP3   OH236691   2.875   5.747  11.136 -0.1871  0.3986  0.0275
 5067TIP3    H136692   2.876   5.658  11.102 -0.8208  0.2553  0.3566
 5067TIP3    H236693   2.869   5.802  11.058  0.7990  0.1833 -0.2059
 5068TIP3   OH236694   6.029   2.708  14.421 -0.8153 -0.4191  0.1565
 5068TIP3    H136695   6.022   2.760  14.501  2.6522  1.3609 -0.5228
 5068TIP3    H236696   5.964   2.745  14.362 -1.7860 -0.2022  1.3164
 5069TIP3   OH236697   1.907   5.530  15.259  0.0469 -0.7418 -0.0806
 5069TIP3    H136698   1.872   5.442  15.246 -2.1351  0.0074  0.3205
 5069TIP3    H236699   1.937   5.557  15.173  0.0842 -1.6201 -0.3523
 5070TIP3   OH236700   0.116   3.289   1.417 -0.4507  0.2347  0.5052
 5070TIP3    H136701   0.111   3.206   1.464  0.6166  0.6539  1.4057
 5070TIP3    H236702   0.101   3.356   1.484  1.0294  0.8394  0.2673
 5071TIP3   OH236703   0.536   0.796  11.388  0.0880  0.6076 -0.1973
 5071TIP3    H136704   0.492   0.744  11.455  0.5646 -0.0607 -0.3951
 5071TIP3    H236705   0.467   0.853  11.353  0.5663  4.0239  3.6493
 5072TIP3   OH236706   6.299   2.628  14.618 -0.4760  0.0884 -0.9894
 5072TIP3    H136707   6.371   2.686  14.640  1.1572 -1.3164 -2.2950
 5072TIP3    H236708   6.242   2.680  14.563 -2.8265  2.5612  3.2651
 5073TIP3   OH236709   2.140   4.896   3.934 -0.1334 -0.5370  0.6703
 5073TIP3    H136710   2.087   4.955   3.881  0.0830 -0.2470  0.7766
 5073TIP3    H236711   2.155   4.944   4.016 -0.8146 -1.1410  1.1662
 5074TIP3   OH236712   1.269   5.658  15.273 -0.3175 -0.4146  0.9594
 5074TIP3    H136713   1.315   5.576  15.292  0.0746  0.2177  2.9086
 5074TIP3    H236714   1.176   5.634  15.274 -0.2008 -0.8592  1.3726
 5075TIP3   OH236715   3.311   5.863  14.296 -0.3635 -0.1184 -0.3695
 5075TIP3    H136716   3.293   5.826  14.210  1.7485 -0.2135 -0.8273
 5075TIP3    H236717   3.307   5.787  14.355 -1.6870 -0.0736 -0.3753
 5076TIP3   OH236718   5.615   5.640   2.391  0.2880 -0.5046 -0.2993
 5076TIP3    H136719   5.568   5.715   2.426  0.4666 -0.9842  1.0247
 5076TIP3    H236720   5.549   5.589   2.344 -0.6022 -1.2602  1.6756
 5077TIP3   OH236721   2.635   5.872  15.435  0.7510 -0.3401 -0.6213
 5077TIP3    H136722   2.657   5.855  15.343  1.1305  0.3830 -0.6664
 5077TIP3    H236723   2.719   5.886  15.478  0.8241 -3.3944  0.4355
 5078TIP3   OH236724   4.152   1.256  15.209  0.8686 -0.1421 -0.1294
 5078TIP3    H136725   4.195   1.246  15.125  0.8631 -0.4854 -0.0903
 5078TIP3    H236726   4.101   1.176  15.221  1.2886 -0.3321  0.4423
 5079TIP3   OH236727   3.968   1.427   3.783 -0.4427  0.5544 -0.2615
 5079TIP3    H136728   3.963   1.352   3.723 -1.4748  0.3824  0.0239
 5079TIP3    H236729   3.897   1.413   3.845  2.6248 -1.1644  3.2457
 5080TIP3   OH236730   1.603   3.180   1.919  0.0199 -0.0378 -0.1770
 5080TIP3    H136731   1.674   3.239   1.946 -1.3920  1.1326  1.2011
 5080TIP3    H236732   1.526   3.214   1.965 -1.5994 -0.8005 -2.1984
 5081TIP3   OH236733   1.726   4.202   5.249  0.4215 -0.0607  0.9142
 5081TIP3    H136734   1.692   4.267   5.311  2.0171  0.4141  1.3430
 5081TIP3    H236735   1.652   4.181   5.193 -0.3031  1.6747  1.1521
 5082TIP3   OH236736   0.839   2.824   5.504 -0.0239 -0.6111 -0.1077
 5082TIP3    H136737   0.882   2.747   5.541  2.0017  0.7287  0.5005
 5082TIP3    H236738   0.818   2.800   5.414 -2.5223 -2.9819  0.9702
 5083TIP3   OH236739   6.326   1.386   4.186 -0.0634  0.3278  0.2938
 5083TIP3    H136740   6.234   1.367   4.170 -0.2938  0.0565  1.7864
 5083TIP3    H236741   6.373   1.327   4.127 -0.8302  0.3578 -0.3649
 5084TIP3   OH236742   5.605   0.808   6.220 -0.0704  0.1351  0.3045
 5084TIP3    H136743   5.566   0.852   6.295  1.8278 -0.2779  1.6119
 5084TIP3    H236744   5.544   0.737   6.199 -0.4965  0.0723  1.6571
 5085TIP3   OH236745   6.182   2.551  14.208  0.3038 -0.1353  0.3778
 5085TIP3    H136746   6.105   2.585  14.163  1.1902  1.9793  0.3492
 5085TIP3    H236747   6.182   2.596  14.292  2.5107  1.3944 -0.3689
 5086TIP3   OH236748   5.777   1.917  14.293 -0.6907  0.3777  0.2865
 5086TIP3    H136749   5.814   1.829  14.300 -1.2894  0.0150 -0.7781
 5086TIP3    H236750   5.831   1.971  14.350  2.9047  0.3181 -2.6926
 5087TIP3   OH236751   2.935   2.791   0.125 -0.1988  0.3943 -0.1873
 5087TIP3    H136752   2.917   2.715   0.069  0.1774  0.6333 -0.6360
 5087TIP3    H236753   2.909   2.866   0.073 -1.4919  0.5286  0.6362
 5088TIP3   OH236754   1.391   6.679   0.314  0.4888 -0.0712  0.1272
 5088TIP3    H136755   1.332   6.722   0.377  0.7942  1.2589 -0.4633
 5088TIP3    H236756   1.332   6.641   0.249  0.2404  1.2574 -0.4674
 5089TIP3   OH236757   0.383   4.903   0.344  0.5367 -0.1325  0.3558
 5089TIP3    H136758   0.468   4.873   0.379  1.0988  1.2174  0.2027
 5089TIP3    H236759   0.375   4.858   0.260  1.8700  0.9119 -0.3664
 5090TIP3   OH236760   0.847   0.765   3.557  0.5977 -0.4150 -0.0251
 5090TIP3    H136761   0.860   0.805   3.471  0.2133 -0.0612  0.0768
 5090TIP3    H236762   0.755   0.738   3.556  0.9756 -1.7722 -0.2872
 5091TIP3   OH236763   3.584   0.416   5.401  0.3226  0.3787 -0.5588
 5091TIP3    H136764   3.618   0.337   5.357 -0.7385  0.6006 -1.8552
 5091TIP3    H236765   3.620   0.411   5.489 -0.1571 -1.8809 -0.4072
 5092TIP3   OH236766   3.066   2.404  13.720 -0.2587 -0.3488  0.2639
 5092TIP3    H136767   2.992   2.371  13.770  0.3056 -0.5348  1.0057
 5092TIP3    H236768   3.135   2.338  13.732 -0.2618 -0.6424 -1.1839
 5093TIP3   OH236769   1.598   1.881  12.827  0.1299 -0.1948  0.4297
 5093TIP3    H136770   1.678   1.928  12.804  0.6481 -0.9485  0.6330
 5093TIP3    H236771   1.612   1.792  12.794 -1.0642 -0.0862 -0.4621
 5094TIP3   OH236772   3.066   1.811  16.049  0.1322 -0.5762  0.1516
 5094TIP3    H136773   2.994   1.825  16.110 -0.6568 -1.3542 -0.5639
 5094TIP3    H236774   3.028   1.758  15.979  1.4376 -1.1110 -0.1883
 5095TIP3   OH236775   5.507   1.840  14.226  0.2854 -0.6547 -0.2841
 5095TIP3    H136776   5.506   1.934  14.212  1.4475 -0.6610 -0.5143
 5095TIP3    H236777   5.596   1.821  14.257  0.2611 -1.7540 -0.8311
 5096TIP3   OH236778   2.384   5.665   5.808 -0.0825 -0.0242 -0.0238
 5096TIP3    H136779   2.360   5.749   5.768  1.2217  0.7316  0.7081
 5096TIP3    H236780   2.391   5.604   5.735 -2.3912  0.1113 -0.4563
 5097TIP3   OH236781   0.654   4.549  12.382  0.0484 -0.0770 -0.2629
 5097TIP3    H136782   0.584   4.610  12.404  1.3772  1.5001 -0.1724
 5097TIP3    H236783   0.611   4.465  12.372 -1.7079  0.6627  0.7035
 5098TIP3   OH236784   0.083   2.728  15.018  0.2578 -0.4367  0.3734
 5098TIP3    H136785   0.139   2.705  14.944  0.0015  0.2866 -0.0470
 5098TIP3    H236786   0.138   2.784  15.073 -0.2414  0.8172 -0.3686
 5099TIP3   OH236787   0.850   0.124   1.944 -0.5376 -0.1116 -0.3616
 5099TIP3    H136788   0.851   0.061   1.872  0.4660  1.1696 -1.5272
 5099TIP3    H236789   0.772   0.178   1.927 -0.2957  0.1965 -0.5093
 5100TIP3   OH236790   0.774   1.762  15.725  0.4455 -0.2306 -0.0376
 5100TIP3    H136791   0.680   1.781  15.733  0.3777 -1.3130  2.5441
 5100TIP3    H236792   0.816   1.848  15.729 -0.3537  0.1280  1.1978
 5101TIP3   OH236793   3.056   6.722   3.956  0.4259  1.1310 -0.2512
 5101TIP3    H136794   3.145   6.757   3.966  0.2076  1.6530 -0.1323
 5101TIP3    H236795   3.068   6.644   3.902  1.1404  0.3874  0.9326
 5102TIP3   OH236796   6.322   6.146  12.103  0.0072 -0.1561 -0.2557
 5102TIP3    H136797   6.303   6.199  12.026 -1.5691  0.1953  0.3426
 5102TIP3    H236798   6.265   6.070  12.095 -0.5632  0.1423  0.8146
 5103TIP3   OH236799   5.258   3.980  11.816  0.2822  0.5327  0.6720
 5103TIP3    H136800   5.199   4.046  11.853  1.1936  1.5527  0.3529
 5103TIP3    H236801   5.327   4.031  11.774  0.1633 -0.5930 -0.9898
 5104TIP3   OH236802   0.169   6.652   2.758 -0.4224 -0.0302  0.0834
 5104TIP3    H136803   0.202   6.699   2.682 -0.8732 -0.7473 -0.5718
 5104TIP3    H236804   0.224   6.682   2.831 -0.6085  1.3836 -0.3332
 5105TIP3   OH236805   6.681   5.548  15.091 -0.1947  0.2548 -0.0765
 5105TIP3    H136806   6.613   5.591  15.039 -0.5082  0.0513  0.1659
 5105TIP3    H236807   6.636   5.519  15.170 -0.1227 -1.0639 -0.5044
 5106TIP3   OH236808   4.059   4.485  11.880 -0.0854 -0.0320  0.5092
 5106TIP3    H136809   4.003   4.420  11.921 -0.4573 -0.5757 -0.8029
 5106TIP3    H236810   4.053   4.467  11.786  0.6241  1.2405  0.1837
 5107TIP3   OH236811   3.959   2.810   2.586  0.1495 -0.1890 -0.2155
 5107TIP3    H136812   3.966   2.849   2.499  3.3269 -1.5602 -0.7131
 5107TIP3    H236813   4.046   2.819   2.624 -0.4535 -1.9425  1.7780
 5108TIP3   OH236814   3.836   1.035  12.329  0.0024  0.1463 -0.3315
 5108TIP3    H136815   3.926   1.037  12.297  0.1408  0.2761  0.0698
 5108TIP3    H236816   3.810   0.943  12.319  1.1635 -0.5607  2.2544
 5109TIP3   OH236817   6.721   1.359   5.988 -0.1378  0.6234  0.0520
 5109TIP3    H136818   6.643   1.413   5.979 -0.0397  0.5557 -1.7183
 5109TIP3    H236819   6.760   1.359   5.900  0.2393 -1.7687  0.1494
 5110TIP3   OH236820   5.431   5.042  10.699  0.1407  0.4808 -0.3116
 5110TIP3    H136821   5.458   5.043  10.607 -0.7701  1.5316 -0.5971
 5110TIP3    H236822   5.491   5.102  10.743  1.7156 -1.3577  0.1703
 5111TIP3   OH236823   4.510   3.587  11.659  0.4857 -0.1393 -0.1058
 5111TIP3    H136824   4.496   3.672  11.618 -0.3129 -0.3149 -0.2023
 5111TIP3    H236825   4.503   3.524  11.587  0.3846 -0.3457  0.0828
 5112TIP3   OH236826   3.684   2.611   5.371  0.6654  0.0456 -0.4644
 5112TIP3    H136827   3.691   2.706   5.380 -0.2225  0.1238 -0.5328
 5112TIP3    H236828   3.596   2.590   5.403  1.1392 -0.8493  0.2846
 5113TIP3   OH236829   5.079   3.818   6.473 -0.0033 -0.1306 -0.4320
 5113TIP3    H136830   5.120   3.807   6.560 -1.0511  1.3224  0.2801
 5113TIP3    H236831   4.986   3.802   6.488 -0.3210  1.0051 -1.0960
 5114TIP3   OH236832   4.140   5.288   0.583 -0.8218  0.2555  0.6191
 5114TIP3    H136833   4.198   5.357   0.615 -0.8577  0.7235 -0.2939
 5114TIP3    H236834   4.190   5.207   0.594 -0.4663  0.5148  0.9454
 5115TIP3   OH236835   1.420   6.388  12.760 -0.2199 -0.7505 -0.3832
 5115TIP3    H136836   1.440   6.444  12.685 -1.6485 -1.2718 -1.1990
 5115TIP3    H236837   1.361   6.440  12.814 -1.1043 -1.2266 -0.8614
 5116TIP3   OH236838   5.825   0.373  15.248 -0.4668 -0.1717  0.3385
 5116TIP3    H136839   5.823   0.279  15.228  1.9179 -0.2607  0.1384
 5116TIP3    H236840   5.903   0.405  15.202 -1.8447  2.1688 -0.5208
 5117TIP3   OH236841   1.811   6.110  14.821  0.1676 -1.2082  0.1034
 5117TIP3    H136842   1.834   6.032  14.871 -1.1441 -1.4624  0.3430
 5117TIP3    H236843   1.795   6.177  14.888  1.7483 -0.5756 -0.1155
 5118TIP3   OH236844   2.396   0.264   5.221 -0.1676  0.2003 -0.5642
 5118TIP3    H136845   2.465   0.235   5.162  0.5512 -1.1032  0.8559
 5118TIP3    H236846   2.346   0.184   5.240 -0.2138  0.5346  0.7857
 5119TIP3   OH236847   1.161   2.452   5.423 -0.2103  0.2019 -0.1119
 5119TIP3    H136848   1.163   2.514   5.350  0.3249 -0.5616 -0.7592
 5119TIP3    H236849   1.120   2.374   5.387  0.8998 -0.5134  0.1373
 5120TIP3   OH236850   4.966   5.727  13.560  0.0443  0.3218  0.4187
 5120TIP3    H136851   4.936   5.734  13.651  0.4499  2.1701  0.4529
 5120TIP3    H236852   4.893   5.760  13.508 -0.1826 -0.7189  0.0532
 5121TIP3   OH236853   3.141   4.981   1.921 -0.2411  0.3333  0.1663
 5121TIP3    H136854   3.079   4.935   1.977 -3.5120  3.2181 -0.7880
 5121TIP3    H236855   3.118   4.952   1.832  1.4796 -0.3366 -0.1069
 5122TIP3   OH236856   6.448   1.081  15.640  0.0152 -0.4931 -0.0131
 5122TIP3    H136857   6.526   1.064  15.587  1.2431 -0.5495  1.7154
 5122TIP3    H236858   6.432   0.999  15.687 -1.5525 -0.7146 -0.8521
 5123TIP3   OH236859   4.497   3.241   3.614 -1.1218  0.6648 -0.4454
 5123TIP3    H136860   4.458   3.161   3.649 -0.1218  0.2506 -0.2286
 5123TIP3    H236861   4.466   3.246   3.524 -1.9267  0.5374 -0.1856
 5124TIP3   OH236862   1.174   4.469  15.359  0.0616  0.0038 -0.2575
 5124TIP3    H136863   1.157   4.474  15.265 -2.5220 -0.7911  0.0908
 5124TIP3    H236864   1.149   4.380  15.383 -1.7645  0.9221  1.5440
 5125TIP3   OH236865   1.059   6.474  11.916 -0.3501 -0.6302  0.2103
 5125TIP3    H136866   1.043   6.536  11.845  0.6384 -0.3594  0.2164
 5125TIP3    H236867   0.975   6.429  11.928 -1.0879  0.6983  0.2117
 5126TIP3   OH236868   3.364   1.260  15.455 -0.3046 -0.1105  0.4247
 5126TIP3    H136869   3.377   1.354  15.468  3.7924 -0.2730 -1.0860
 5126TIP3    H236870   3.386   1.221  15.540 -0.2170  0.2096  0.5504
 5127TIP3   OH236871   2.381   1.746  12.735  0.3229  0.3122 -0.0683
 5127TIP3    H136872   2.356   1.795  12.813  1.6407  0.9836 -0.0309
 5127TIP3    H236873   2.313   1.765  12.670 -0.4382  0.2581  0.7045
 5128TIP3   OH236874   1.328   1.106  14.986 -0.2201 -0.5372  0.7642
 5128TIP3    H136875   1.392   1.178  14.988 -1.1438  0.3776 -0.5970
 5128TIP3    H236876   1.382   1.027  14.984  0.9183  0.2138 -0.7780
 5129TIP3   OH236877   1.466   2.908  14.070  0.2704 -0.4732 -0.4185
 5129TIP3    H136878   1.553   2.872  14.052  0.4062 -0.0027 -0.7253
 5129TIP3    H236879   1.468   2.995  14.031 -0.4620 -0.5998 -0.7553
 5130TIP3   OH236880   0.656   4.418   0.834  0.3368  0.1483  0.4376
 5130TIP3    H136881   0.608   4.409   0.751  0.7161  1.3146  0.0792
 5130TIP3    H236882   0.642   4.509   0.860  1.8938  0.3600  0.6180
 5131TIP3   OH236883   5.762   4.285  12.975 -0.1584 -0.0678  0.4329
 5131TIP3    H136884   5.819   4.216  13.008  0.7940  0.8676  0.8286
 5131TIP3    H236885   5.758   4.270  12.880  1.0699  0.0632  0.3443
 5132TIP3   OH236886   4.971   4.971  15.368  0.0097  0.3002  0.5693
 5132TIP3    H136887   4.882   4.992  15.397  0.3085  1.2296  0.8600
 5132TIP3    H236888   4.983   4.879  15.392 -0.8564  0.1728  0.5567
 5133TIP3   OH236889   5.476   6.797  16.920 -0.6566  0.6899 -0.1099
 5133TIP3    H136890   5.541   6.731  16.941  0.1011  1.4318 -0.0533
 5133TIP3    H236891   5.456   6.839  17.003 -0.6776  0.9391 -0.2390
 5134TIP3   OH236892   3.621   1.677   0.489 -0.0277 -0.3866 -0.0701
 5134TIP3    H136893   3.650   1.768   0.490  1.8996 -0.9636 -0.2413
 5134TIP3    H236894   3.579   1.665   0.575  0.6649  0.3769  0.3898
 5135TIP3   OH236895   4.870   3.911   2.154 -0.7033 -0.0813 -0.6867
 5135TIP3    H136896   4.915   3.920   2.238 -2.2576 -2.5048  0.5057
 5135TIP3    H236897   4.941   3.911   2.090  0.4667  2.6584  0.4548
 5136TIP3   OH236898   5.884   3.732   3.999 -0.3239  0.2180 -0.0487
 5136TIP3    H136899   5.832   3.809   4.019 -0.0482 -0.0828  1.9977
 5136TIP3    H236900   5.972   3.766   3.982 -0.2888  0.3855  0.4669
 5137TIP3   OH236901   4.282   0.067   5.531 -0.2133 -0.2722 -0.0223
 5137TIP3    H136902   4.312   0.021   5.452  1.4436  0.4429  0.1710
 5137TIP3    H236903   4.209   0.013   5.563 -1.0896 -0.4504 -2.1598
 5138TIP3   OH236904   0.570   2.136   5.028 -0.0239 -0.0246 -0.0504
 5138TIP3    H136905   0.628   2.199   4.985 -0.2621  0.1290 -0.1475
 5138TIP3    H236906   0.505   2.190   5.072 -0.9289 -0.2194 -1.1027
 5139TIP3   OH236907   3.721   4.911  17.022 -0.0140  0.0129 -0.5361
 5139TIP3    H136908   3.751   4.898  17.112  0.2656  2.0984 -0.2690
 5139TIP3    H236909   3.792   4.962  16.981 -1.1814  1.1436 -1.2154
 5140TIP3   OH236910   4.784   2.160  14.020 -0.5756 -0.1808 -0.5059
 5140TIP3    H136911   4.733   2.177  14.099  0.4482  1.5318 -0.1611
 5140TIP3    H236912   4.741   2.212  13.952 -0.0125  0.3381 -0.4791
 5141TIP3   OH236913   6.100   5.981   0.052 -0.5722 -0.0905  0.1796
 5141TIP3    H136914   6.031   5.985  -0.014  0.8886  0.6895 -1.3709
 5141TIP3    H236915   6.112   6.072   0.080  0.0019 -0.1756  0.2253
 5142TIP3   OH236916   1.590   2.254  15.102  0.4737  0.3596 -0.3080
 5142TIP3    H136917   1.638   2.261  15.019 -2.6540 -3.4017 -2.7890
 5142TIP3    H236918   1.514   2.311  15.090  1.0239  1.4226  0.9675
 5143TIP3   OH236919   4.392   6.116   4.110  0.2146  0.1339 -0.5476
 5143TIP3    H136920   4.321   6.123   4.047  0.2791 -0.2254 -0.6632
 5143TIP3    H236921   4.395   6.202   4.153 -1.8921 -0.5991  1.2147
 5144TIP3   OH236922   5.260   2.227   3.386  0.4752  0.6101  0.5081
 5144TIP3    H136923   5.233   2.151   3.438 -1.3291  1.1332  0.4148
 5144TIP3    H236924   5.293   2.289   3.450 -1.3026  1.0686  1.0465
 5145TIP3   OH236925   4.976   2.712  11.784  0.8104  0.3349  0.3784
 5145TIP3    H136926   4.925   2.646  11.738 -0.6468  0.4330  1.7952
 5145TIP3    H236927   4.918   2.788  11.789  1.7135  1.0279  0.5533
 5146TIP3   OH236928   5.881   1.400  12.415  0.2544  0.4044  0.5759
 5146TIP3    H136929   5.801   1.443  12.386 -0.4351 -0.2869  1.3751
 5146TIP3    H236930   5.922   1.369  12.335  0.5425  2.1288  0.0206
 5147TIP3   OH236931   1.750   0.546  12.761  0.5108  0.3128  0.4709
 5147TIP3    H136932   1.736   0.500  12.678  0.3377  0.2584  0.5301
 5147TIP3    H236933   1.828   0.504  12.798  1.1031  0.9034 -0.0636
 5148TIP3   OH236934   4.650   0.484   4.815  0.0353 -0.5291  0.3083
 5148TIP3    H136935   4.703   0.481   4.894  0.0697  1.5846  0.4155
 5148TIP3    H236936   4.560   0.493   4.846  0.1481  1.4736  0.1547
 5149TIP3   OH236937   3.740   1.385  12.775 -0.5827 -0.1640  0.4928
 5149TIP3    H136938   3.782   1.418  12.854 -1.9167  0.0620  1.1261
 5149TIP3    H236939   3.727   1.462  12.720 -1.4675 -0.0034  0.9183
 5150TIP3   OH236940   1.449   6.220  11.784 -0.4869 -0.7299 -0.5940
 5150TIP3    H136941   1.361   6.257  11.776 -1.0818 -1.9285  0.0622
 5150TIP3    H236942   1.459   6.164  11.707  0.6158  1.1070 -1.8661
 5151TIP3   OH236943   6.248   2.317  13.754  0.2193 -0.0532  0.3360
 5151TIP3    H136944   6.199   2.272  13.822 -0.1046 -0.2920 -0.0467
 5151TIP3    H236945   6.273   2.248  13.692 -1.1798  0.4070 -0.8030
 5152TIP3   OH236946   5.279   4.319   3.661  0.2634 -0.2255 -0.0497
 5152TIP3    H136947   5.250   4.379   3.730  0.3612  0.5828 -0.6902
 5152TIP3    H236948   5.207   4.320   3.597  0.3329 -0.6732 -0.1343
 5153TIP3   OH236949   0.448   2.497  14.063 -0.4249 -0.0296 -0.6184
 5153TIP3    H136950   0.505   2.544  14.002 -0.3603 -0.4870 -0.9079
 5153TIP3    H236951   0.359   2.514  14.030 -0.3317 -1.2605 -1.5466
 5154TIP3   OH236952   3.903   3.776   3.537  0.1615 -0.0710 -0.0451
 5154TIP3    H136953   3.896   3.871   3.546  3.4585  0.0931  3.1090
 5154TIP3    H236954   3.815   3.743   3.553 -0.6453  2.3813  0.9745
 5155TIP3   OH236955   4.442   5.722   0.929 -0.1791  0.4554 -0.4459
 5155TIP3    H136956   4.500   5.658   0.970 -0.3736  0.5500 -0.0190
 5155TIP3    H236957   4.355   5.685   0.938  0.0139 -1.1589 -3.7483
 5156TIP3   OH236958   2.459   0.303   2.589  0.1514  0.2214  0.2277
 5156TIP3    H136959   2.377   0.344   2.562 -0.8462 -0.7406  1.6830
 5156TIP3    H236960   2.527   0.364   2.560 -1.1402  1.6679  0.1329
 5157TIP3   OH236961   0.072   4.096   1.977 -0.3736 -0.2307  0.3810
 5157TIP3    H136962   0.096   4.081   1.885  0.0431 -0.0844  0.4675
 5157TIP3    H236963   0.034   4.184   1.977  2.3768  1.0732  0.8478
 5158TIP3   OH236964   0.196   2.192   2.079 -0.8286 -0.0092  0.0254
 5158TIP3    H136965   0.162   2.215   1.992 -0.9079 -1.3888 -0.3241
 5158TIP3    H236966   0.117   2.186   2.134 -0.8460  0.0837  0.0116
 5159TIP3   OH236967   0.986   0.307   5.310 -0.0928 -0.4351  0.5692
 5159TIP3    H136968   0.952   0.267   5.391  0.8543  0.8981  1.6709
 5159TIP3    H236969   1.059   0.361   5.339  0.8103 -0.5618 -1.3112
 5160TIP3   OH236970   4.759   6.283   2.287 -0.3147  0.0237 -0.1294
 5160TIP3    H136971   4.731   6.212   2.230 -0.2563 -0.1169  0.0192
 5160TIP3    H236972   4.697   6.354   2.269 -0.5744 -0.1769 -0.0345
 5161TIP3   OH236973   3.886   0.304   4.960  0.5331 -0.3987 -0.0427
 5161TIP3    H136974   3.815   0.258   4.915  0.5731  0.1825 -0.7067
 5161TIP3    H236975   3.879   0.395   4.931  2.9794 -0.7148 -2.0504
 5162TIP3   OH236976   3.325   0.226  11.820 -0.1106  0.2628 -0.0577
 5162TIP3    H136977   3.300   0.278  11.896 -0.8455  0.9405 -0.7423
 5162TIP3    H236978   3.259   0.247  11.754  0.3735 -0.4986 -0.8065
 5163TIP3   OH236979   3.577   2.281   0.053  0.0624  0.0364  0.2280
 5163TIP3    H136980   3.539   2.311   0.135  0.7507 -0.4387  0.7256
 5163TIP3    H236981   3.650   2.225   0.079 -0.0566 -0.5746 -0.6974
 5164TIP3   OH236982   4.231   0.671   6.823  0.8378 -0.0961 -0.0718
 5164TIP3    H136983   4.320   0.635   6.818  0.5480 -0.6365 -2.4882
 5164TIP3    H236984   4.178   0.614   6.767 -1.2096 -0.1457  1.7890
 5165TIP3   OH236985   1.999   3.667   5.717 -0.0164  0.5707  0.3202
 5165TIP3    H136986   1.992   3.638   5.626  1.8496 -2.3163  0.9674
 5165TIP3    H236987   1.911   3.654   5.752  0.1409 -2.3031 -0.1001
 5166TIP3   OH236988   4.704   5.551  12.302  0.1813  0.6871  0.0710
 5166TIP3    H136989   4.685   5.466  12.261 -0.4027 -0.2924  2.2594
 5166TIP3    H236990   4.796   5.546  12.326  0.4703  1.1821 -0.8979
 5167TIP3   OH236991   3.949   2.946  11.730  0.7249 -0.0299  0.0390
 5167TIP3    H136992   3.952   2.852  11.747  0.5809  0.1483  1.1178
 5167TIP3    H236993   3.892   2.981  11.799 -2.0451  0.4357 -2.3183
 5168TIP3   OH236994   2.338   4.680   5.184  0.2440  0.3037 -0.4326
 5168TIP3    H136995   2.249   4.645   5.184  0.3303  0.0805 -0.7566
 5168TIP3    H236996   2.393   4.605   5.208  0.4157  0.2545 -0.9823
 5169TIP3   OH236997   5.763   3.501  14.203 -0.3847 -0.1470  0.0106
 5169TIP3    H136998   5.749   3.509  14.109  1.4065 -0.5586 -0.3477
 5169TIP3    H236999   5.776   3.590  14.234  0.1070 -0.0934 -0.3452
 5170TIP3   OH237000   4.367   3.791   4.844  0.4549  0.0371 -0.1156
 5170TIP3    H137001   4.331   3.840   4.770  1.2359  0.7746 -0.0300
 5170TIP3    H237002   4.444   3.842   4.871 -0.0550  0.0135  1.4746
 5171TIP3   OH237003   5.772   3.268  17.012 -0.2565  0.3606  0.5682
 5171TIP3    H137004   5.723   3.312  16.942 -0.8947 -0.3224  0.5772
 5171TIP3    H237005   5.705   3.227  17.066  0.3011 -0.2047  0.8433
 5172TIP3   OH237006   1.609   5.061   4.991 -0.2517  0.4223  0.8262
 5172TIP3    H137007   1.549   5.032   5.060  3.3435 -3.1404  2.9290
 5172TIP3    H237008   1.599   4.996   4.922 -1.0457  1.7040 -0.2954
 5173TIP3   OH237009   1.675   1.931  14.193 -0.2560  0.0560  0.5460
 5173TIP3    H137010   1.693   1.967  14.280 -0.2725  0.2520  0.4702
 5173TIP3    H237011   1.759   1.896  14.163 -0.2103  0.1444  0.5696
 5174TIP3   OH237012   6.395   1.381  16.460 -0.0621  0.2405  0.4139
 5174TIP3    H137013   6.452   1.316  16.500 -0.2283  0.4010  0.9225
 5174TIP3    H237014   6.367   1.341  16.377 -0.6707 -0.6010  1.0124
 5175TIP3   OH237015   2.677   3.316  13.676  0.3231 -0.9852  0.0409
 5175TIP3    H137016   2.748   3.335  13.614  0.5026  1.1161  0.8040
 5175TIP3    H237017   2.597   3.327  13.625  0.4833  0.2546  0.0236
 5176TIP3   OH237018   3.668   1.644   5.784 -0.1016  0.1544 -0.3884
 5176TIP3    H137019   3.710   1.686   5.709 -0.9457 -0.2116 -1.0803
 5176TIP3    H237020   3.575   1.645   5.763 -0.5469  1.5139  1.3851
 5177TIP3   OH237021   1.235   6.093  17.056 -0.1049  0.9831 -0.1435
 5177TIP3    H137022   1.255   6.179  17.020 -0.8984  2.5463  2.7721
 5177TIP3    H237023   1.189   6.112  17.138  0.1399 -2.2304  0.8847
 5178TIP3   OH237024   0.617   2.139  12.871  0.3181  0.1120 -0.3610
 5178TIP3    H137025   0.609   2.069  12.807 -1.4817  0.8869 -1.0505
 5178TIP3    H237026   0.543   2.127  12.930  0.6480  0.7575  0.2064
 5179TIP3   OH237027   3.925   4.921   4.331 -0.7917 -0.0533  0.0047
 5179TIP3    H137028   3.917   4.893   4.239  1.3600 -0.6330 -0.0744
 5179TIP3    H237029   3.859   4.870   4.377 -1.5097 -0.2002 -1.1359
 5180TIP3   OH237030   3.236   5.178   4.775  0.0299  0.3146  0.6231
 5180TIP3    H137031   3.255   5.221   4.692 -1.3385  0.3849  0.3223
 5180TIP3    H237032   3.155   5.130   4.759 -0.6720  0.9283  2.1278
 5181TIP3   OH237033   2.446   3.716  12.240  0.0241 -0.4866  0.0905
 5181TIP3    H137034   2.450   3.810  12.224  0.5537 -0.6710 -0.9783
 5181TIP3    H237035   2.355   3.699  12.265 -0.2999  0.1762 -0.6106
 5182TIP3   OH237036   6.117   3.622   3.023 -0.1964 -0.0908 -0.0232
 5182TIP3    H137037   6.076   3.630   2.937  0.8691  0.2103 -0.5181
 5182TIP3    H237038   6.206   3.591   3.005 -0.3319 -1.1723  1.0609
 5183TIP3   OH237039   2.438   3.963  15.736  0.8734  0.2702 -0.2663
 5183TIP3    H137040   2.354   3.981  15.693 -0.4125 -1.2465  1.4661
 5183TIP3    H237041   2.459   3.873  15.711  1.4768  0.3000  0.1175
 5184TIP3   OH237042   2.585   6.459   3.583  0.5921 -0.0778 -0.4812
 5184TIP3    H137043   2.635   6.378   3.585 -1.2765 -1.3064  1.2137
 5184TIP3    H237044   2.497   6.433   3.555  0.0399  1.4146 -0.2679
 5185TIP3   OH237045   0.509   2.820  10.554 -0.1189 -0.2563  0.0567
 5185TIP3    H137046   0.547   2.907  10.542  1.1014 -0.0428  4.0690
 5185TIP3    H237047   0.567   2.762  10.505  1.2757  0.8180  0.3660
 5186TIP3   OH237048   3.807   6.596  14.904  0.1537 -0.0768 -0.5395
 5186TIP3    H137049   3.744   6.620  14.837 -0.1207 -2.1735 -1.1249
 5186TIP3    H237050   3.891   6.596  14.858  0.6627  2.7528  0.2489
 5187TIP3   OH237051   5.186   1.632  13.263  0.3257  0.0124 -0.3144
 5187TIP3    H137052   5.174   1.707  13.204  0.8108 -0.4801 -1.0521
 5187TIP3    H237053   5.109   1.634  13.320  0.2536  0.9738 -0.4313
 5188TIP3   OH237054   5.725   2.549  11.425 -0.4107  0.0179  0.5143
 5188TIP3    H137055   5.754   2.615  11.487 -3.2878  2.6180 -0.6827
 5188TIP3    H237056   5.770   2.571  11.343  0.6840 -1.2413  0.7455
 5189TIP3   OH237057   4.027   0.911  14.383  0.0264 -0.0346 -0.6882
 5189TIP3    H137058   4.040   0.982  14.445 -3.5504 -0.3417  0.6643
 5189TIP3    H237059   4.084   0.841  14.415 -1.4455 -0.0748  2.2329
 5190TIP3   OH237060   1.891   6.199  11.878 -0.3905 -0.3417 -0.0668
 5190TIP3    H137061   1.951   6.139  11.834 -1.4722 -0.3540 -1.6134
 5190TIP3    H237062   1.905   6.283  11.835 -0.7778 -0.1239  0.2212
 5191TIP3   OH237063   4.157   0.399  11.405 -0.3856 -0.0756  0.4737
 5191TIP3    H137064   4.173   0.493  11.415 -0.5675 -0.0432  0.4565
 5191TIP3    H237065   4.220   0.372  11.338 -1.0403  0.2426 -0.2904
 5192TIP3   OH237066   2.305   5.042   4.806 -0.6321  0.5395  0.1315
 5192TIP3    H137067   2.275   5.124   4.845  0.5226  1.2901 -0.5153
 5192TIP3    H237068   2.334   4.990   4.881  0.2725  1.4292  0.4257
 5193TIP3   OH237069   3.250   6.359  15.020  0.0445 -0.2554  0.3860
 5193TIP3    H137070   3.258   6.269  14.989 -0.4660 -0.8625  1.9732
 5193TIP3    H237071   3.194   6.402  14.955  0.3958 -1.0200 -0.4465
 5194TIP3   OH237072   5.805   4.787  12.368 -0.0530 -0.0906  0.2260
 5194TIP3    H137073   5.883   4.765  12.317  1.5447  0.9515  2.1326
 5194TIP3    H237074   5.776   4.703  12.404 -0.2143 -0.5745 -0.9507
 5195TIP3   OH237075   1.823   6.601   3.258  0.5722 -0.1684  0.4069
 5195TIP3    H137076   1.800   6.539   3.189  0.8809 -1.3926  1.3606
 5195TIP3    H237077   1.778   6.682   3.234  0.4843 -0.6345 -1.0906
 5196TIP3   OH237078   0.378   1.635   2.878  0.0126  0.5826 -0.5577
 5196TIP3    H137079   0.407   1.565   2.936 -0.7515  1.5805  1.1267
 5196TIP3    H237080   0.334   1.590   2.805  0.5815 -0.7041 -0.1244
 5197TIP3   OH237081   6.767   0.114  11.195 -0.4065  0.4436  0.0890
 5197TIP3    H137082   6.766   0.019  11.187  0.5443  0.2228  1.9350
 5197TIP3    H237083   6.697   0.144  11.137 -0.5987 -1.3564 -0.6741
 5198TIP3   OH237084   5.991   5.794  16.624  0.2959 -0.0602 -0.3185
 5198TIP3    H137085   5.983   5.721  16.686 -0.1433 -0.8164 -1.2447
 5198TIP3    H237086   5.924   5.856  16.653  1.0508  0.2563  0.8195
 5199TIP3   OH237087   1.909   2.799   3.687 -0.2834 -0.5000  0.5113
 5199TIP3    H137088   1.957   2.782   3.768  1.1648  0.5876 -0.0729
 5199TIP3    H237089   1.914   2.717   3.638  3.6974  0.3671 -0.8466
 5200TIP3   OH237090   6.673   0.495  15.539  0.1981 -0.2910  0.4673
 5200TIP3    H137091   6.636   0.513  15.625 -0.9676 -2.3121  0.4523
 5200TIP3    H237092   6.717   0.411  15.549  2.7324  0.8692 -0.1802
 5201TIP3   OH237093   6.173   4.031  14.427 -0.5001 -0.2405  0.6014
 5201TIP3    H137094   6.219   4.077  14.497  0.1363 -0.8425  0.5892
 5201TIP3    H237095   6.222   3.950  14.415 -0.9045 -0.3823 -0.1878
 5202TIP3   OH237096   2.334   0.615  13.429  0.1294 -0.2326  0.0145
 5202TIP3    H137097   2.418   0.661  13.436 -0.8495  1.4420  2.1297
 5202TIP3    H237098   2.312   0.620  13.336  1.3862  1.2101 -0.2528
 5203TIP3   OH237099   1.486   5.280   0.796 -0.3338  0.1258 -0.4543
 5203TIP3    H137100   1.417   5.285   0.730  1.2919  0.9237 -2.1765
 5203TIP3    H237101   1.514   5.371   0.808 -1.4200  0.1943  2.3549
 5204TIP3   OH237102   1.491   2.505  13.979 -0.0501  0.2902  0.2500
 5204TIP3    H137103   1.559   2.483  14.043  1.1870  1.9222 -0.4221
 5204TIP3    H237104   1.530   2.485  13.894 -0.1878  1.7188 -0.1776
 5205TIP3   OH237105   0.520   4.767  11.543 -0.0608 -0.0325  0.2738
 5205TIP3    H137106   0.605   4.802  11.571 -0.5394  2.0888 -0.6623
 5205TIP3    H237107   0.457   4.834  11.569 -1.5384 -1.7302  1.2506
 5206TIP3   OH237108   3.223   6.108   5.326 -0.2364 -0.3342 -0.4524
 5206TIP3    H137109   3.177   6.192   5.331 -0.0717 -0.2996  2.1106
 5206TIP3    H237110   3.220   6.084   5.234 -2.9973  0.9842 -0.8125
 5207TIP3   OH237111   1.834   3.591  14.170  0.1753 -0.0685 -0.0359
 5207TIP3    H137112   1.761   3.651  14.157  0.0991  0.1684  1.4210
 5207TIP3    H237113   1.835   3.538  14.090 -1.8033 -0.3201  0.0567
 5208TIP3   OH237114   0.380   1.376   2.192 -0.0047  0.2439  0.0534
 5208TIP3    H137115   0.388   1.420   2.107  0.2688 -1.0199 -0.5975
 5208TIP3    H237116   0.449   1.310   2.191 -1.4496 -1.3261  0.2891
 5209TIP3   OH237117   1.990   2.135   4.115 -0.2161 -0.1541  0.5490
 5209TIP3    H137118   1.974   2.222   4.152 -2.9315 -0.6247  0.7227
 5209TIP3    H237119   1.958   2.074   4.182 -0.5367 -1.1917 -0.5134
 5210TIP3   OH237120   3.956   1.645   0.544 -0.3559  0.1235  0.2781
 5210TIP3    H137121   3.980   1.698   0.619  0.5205 -2.0495  1.6101
 5210TIP3    H237122   4.022   1.665   0.478 -1.2453  2.1987 -0.0613
 5211TIP3   OH237123   2.426   1.758   4.904 -0.0631  0.0321  0.4520
 5211TIP3    H137124   2.422   1.842   4.950 -0.4490  0.0761  0.3421
 5211TIP3    H237125   2.337   1.724   4.908 -0.4203  0.6398 -1.3660
 5212TIP3   OH237126   1.831   4.606   2.249 -0.1703 -0.0329 -0.2162
 5212TIP3    H137127   1.854   4.553   2.173 -0.1693  0.0611 -0.2822
 5212TIP3    H237128   1.848   4.696   2.221  3.4705 -0.1422  1.1163
 5213TIP3   OH237129   5.558   6.272  10.897 -0.2984  0.3815 -0.6943
 5213TIP3    H137130   5.598   6.306  10.977 -0.3793  1.7889 -1.2298
 5213TIP3    H237131   5.495   6.339  10.871 -2.5426 -1.4361 -0.2755
 5214TIP3   OH237132   4.776   3.391   1.687 -0.1528  0.1472 -0.4051
 5214TIP3    H137133   4.758   3.485   1.686  3.2953  0.9084 -0.8704
 5214TIP3    H237134   4.740   3.359   1.604 -2.0763  0.8043  0.1033
 5215TIP3   OH237135   3.365   5.932   0.286 -0.1834  0.4861 -0.0954
 5215TIP3    H137136   3.428   5.871   0.246 -0.2450 -0.9834  1.9141
 5215TIP3    H237137   3.419   5.991   0.338 -0.1914  1.7137 -1.4335
 5216TIP3   OH237138   1.134   2.575  17.146 -0.0754 -0.1862 -0.0391
 5216TIP3    H137139   1.116   2.567  17.240  0.9325  1.6413  0.3608
 5216TIP3    H237140   1.096   2.659  17.121 -0.2713 -0.6160 -1.2730
 5217TIP3   OH237141   1.729   6.817  13.263  0.0407  0.0277  0.4844
 5217TIP3    H137142   1.646   6.859  13.285  0.4288  1.2763 -0.3144
 5217TIP3    H237143   1.795   6.874  13.302  0.6101  0.5773 -1.2206
 5218TIP3   OH237144   3.350   5.661  16.854 -0.1195  0.1520  0.4787
 5218TIP3    H137145   3.401   5.742  16.855 -1.6291  1.1413  1.8172
 5218TIP3    H237146   3.378   5.613  16.932  0.1893 -0.2732  0.1195
 5219TIP3   OH237147   6.251   6.007   1.017 -0.0461  0.3152 -0.0997
 5219TIP3    H137148   6.169   6.046   0.990 -0.7487 -1.0343 -0.0364
 5219TIP3    H237149   6.319   6.060   0.976 -0.9339  1.5570 -0.0037
 5220TIP3   OH237150   3.784   3.571   4.718  0.2597 -0.4876  0.1017
 5220TIP3    H137151   3.876   3.564   4.744  0.2585 -1.4191 -0.0967
 5220TIP3    H237152   3.786   3.561   4.622 -0.1032 -1.3129  0.1674
 5221TIP3   OH237153   3.619   5.976   2.144  0.4069  0.4379  0.2665
 5221TIP3    H137154   3.652   6.032   2.074 -1.0216  1.8706  0.6916
 5221TIP3    H237155   3.631   6.028   2.224  2.6882 -1.4312  1.2952
 5222TIP3   OH237156   4.541   4.098  11.508 -0.1282  0.8272  0.2214
 5222TIP3    H137157   4.508   4.008  11.508 -1.3874  1.2542 -0.5237
 5222TIP3    H237158   4.619   4.095  11.452 -1.6435  0.6510 -2.0265
 5223TIP3   OH237159   6.520   3.298  14.102 -0.1051 -0.4499  0.4756
 5223TIP3    H137160   6.590   3.235  14.115  0.3960 -0.1624 -0.7342
 5223TIP3    H237161   6.501   3.294  14.008  1.0023  2.2776  0.0465
 5224TIP3   OH237162   2.769   5.725   1.326  0.2202 -0.0400 -0.6345
 5224TIP3    H137163   2.708   5.653   1.311 -1.1167  1.0185 -0.4079
 5224TIP3    H237164   2.725   5.782   1.389  2.3719 -0.3577  1.3100
 5225TIP3   OH237165   5.342   0.998   1.048  0.8302 -0.0567  0.1214
 5225TIP3    H137166   5.314   1.077   1.094  0.4403 -0.0077 -0.2005
 5225TIP3    H237167   5.433   1.016   1.023  0.4302  0.7003 -0.8389
 5226TIP3   OH237168   3.171   2.142  12.185  0.8936 -0.5797 -0.1492
 5226TIP3    H137169   3.235   2.085  12.227  0.8462  0.6744  1.7758
 5226TIP3    H237170   3.201   2.230  12.205  0.4314  0.0963 -2.2099
 5227TIP3   OH237171   3.749   2.450   1.937  0.3256 -0.3136  0.3997
 5227TIP3    H137172   3.738   2.488   1.850  0.2204 -1.1050  0.0521
 5227TIP3    H237173   3.811   2.507   1.981  3.2144 -1.8314 -1.4211
 5228TIP3   OH237174   2.914   4.210  11.183 -0.2064 -0.0701  0.0097
 5228TIP3    H137175   3.000   4.238  11.151  0.4314 -2.1483 -0.2876
 5228TIP3    H237176   2.883   4.149  11.115 -1.4752 -0.0737  0.5759
 5229TIP3   OH237177   0.582   1.964   3.798  0.5353  0.2491 -0.0408
 5229TIP3    H137178   0.671   1.932   3.781 -0.0645 -0.9269 -1.1560
 5229TIP3    H237179   0.563   2.023   3.725  0.7360  1.2716  0.7160
 5230TIP3   OH237180   1.637   1.009   5.299  0.2680  0.5824  0.2057
 5230TIP3    H137181   1.652   0.916   5.314  2.1385  1.0846  1.8789
 5230TIP3    H237182   1.651   1.050   5.385 -1.6099  2.3163 -0.2348
 5231TIP3   OH237183   1.029   1.862  16.175 -0.3057  0.0381 -0.0082
 5231TIP3    H137184   0.989   1.780  16.146 -0.3743 -0.0413  0.3077
 5231TIP3    H237185   1.094   1.883  16.108 -0.8766  0.1666 -0.5299
 5232TIP3   OH237186   6.730   0.432   5.733  0.3219 -0.1334  0.8609
 5232TIP3    H137187   6.683   0.405   5.812 -1.4988  2.5225  0.8156
 5232TIP3    H237188   6.661   0.454   5.670  1.7118 -0.3144 -0.8118
 5233TIP3   OH237189   4.743   1.009   5.776  0.2868 -0.5928  1.4376
 5233TIP3    H137190   4.665   0.953   5.779 -0.6212  0.4868 -0.4691
 5233TIP3    H237191   4.810   0.955   5.733 -0.2001 -0.6849  0.7748
 5234TIP3   OH237192   2.798   3.611   3.782 -0.0839 -0.2448 -0.2552
 5234TIP3    H137193   2.838   3.546   3.840 -0.7654  0.1179  0.6305
 5234TIP3    H237194   2.862   3.622   3.711 -0.2842 -2.4594 -0.8547
 5235TIP3   OH237195   0.604   2.865  15.201 -0.5543 -0.3613  0.0998
 5235TIP3    H137196   0.557   2.814  15.268 -1.3967 -1.4294 -1.2457
 5235TIP3    H237197   0.674   2.909  15.249  0.0645 -2.5961  1.4067
 5236TIP3   OH237198   6.620   6.690   0.609 -0.0531  0.1600 -0.0682
 5236TIP3    H137199   6.627   6.680   0.514 -0.1951 -0.2677 -0.0366
 5236TIP3    H237200   6.530   6.666   0.629  0.3986 -1.2769  0.3527
 5237TIP3   OH237201   3.613   2.582  14.761  0.0701 -0.4284 -0.5024
 5237TIP3    H137202   3.556   2.514  14.726  0.0369  0.1724 -1.6723
 5237TIP3    H237203   3.687   2.586  14.700  1.3655 -1.1343  0.9338
 5238TIP3   OH237204   5.388   2.701   0.605 -0.5246  0.4014  0.0496
 5238TIP3    H137205   5.437   2.782   0.597 -0.1139  0.0640 -0.8892
 5238TIP3    H237206   5.454   2.632   0.608 -0.9144 -0.0225 -0.7721
 5239TIP3   OH237207   3.619   6.071  13.150 -0.3051  0.9459 -0.8186
 5239TIP3    H137208   3.578   6.070  13.064  0.2233  0.3574 -1.0634
 5239TIP3    H237209   3.546   6.085  13.211 -0.6285  1.7739 -1.3782
 5240TIP3   OH237210   6.573   3.247  16.056 -0.5012 -0.3489  0.1725
 5240TIP3    H137211   6.554   3.156  16.034  0.9226 -0.9087  1.1020
 5240TIP3    H237212   6.585   3.246  16.151  2.7336  0.1434 -0.1371
 5241TIP3   OH237213   6.661   3.072   0.655 -0.0900  0.7316  0.3808
 5241TIP3    H137214   6.596   3.004   0.668  0.8837 -0.4145 -0.5246
 5241TIP3    H237215   6.694   3.057   0.566  1.2874  1.3674  0.7566
 5242TIP3   OH237216   3.260   5.128  11.129  0.2553 -0.0011  0.0968
 5242TIP3    H137217   3.305   5.051  11.094 -0.8864  0.3153 -2.1992
 5242TIP3    H237218   3.265   5.193  11.059 -2.8534  0.3866  0.1163
 5243TIP3   OH237219   1.465   1.540  12.482 -0.6275  0.4493 -0.1604
 5243TIP3    H137220   1.381   1.576  12.455 -0.3324  1.5053  0.2877
 5243TIP3    H237221   1.465   1.547  12.577  0.5255  1.7979 -0.2235
 5244TIP3   OH237222   0.144   5.006  15.677  0.0644  0.2211 -0.2210
 5244TIP3    H137223   0.135   4.960  15.593  0.2375 -0.0766 -0.0776
 5244TIP3    H237224   0.131   5.098  15.656  0.4005  0.1756 -0.6208
 5245TIP3   OH237225   1.871   2.676  13.113 -0.5185 -0.6753  0.8029
 5245TIP3    H137226   1.945   2.714  13.160 -1.4936  2.9123 -0.3203
 5245TIP3    H237227   1.798   2.681  13.175 -0.6820 -0.7184  0.6146
 5246TIP3   OH237228   6.072   1.432  15.650  0.5027  0.1349 -0.3821
 5246TIP3    H137229   5.980   1.459  15.649  0.0244 -1.3885 -0.3902
 5246TIP3    H237230   6.094   1.420  15.557  0.7688  0.6904 -0.3904
 5247TIP3   OH237231   1.176   2.177   2.462  0.2560 -0.8633  0.2231
 5247TIP3    H137232   1.153   2.214   2.547  1.8950 -1.6447  1.0709
 5247TIP3    H237233   1.113   2.214   2.401 -0.1035  0.8138  1.5479
 5248TIP3   OH237234   1.747   3.173   3.931  0.6113  0.1086  0.2629
 5248TIP3    H137235   1.705   3.234   3.870  0.3395  1.8779  2.1156
 5248TIP3    H237236   1.777   3.101   3.875 -2.0831  0.2378 -1.5901
 5249TIP3   OH237237   2.198   5.339  16.226 -0.0953  0.4709  0.5234
 5249TIP3    H137238   2.246   5.335  16.144 -1.2629  0.8300 -0.2001
 5249TIP3    H237239   2.219   5.425  16.262 -0.3762  0.7240  0.0905
 5250TIP3   OH237240   3.169   3.768   1.448 -0.1826  0.7291  0.2969
 5250TIP3    H137241   3.232   3.829   1.484  2.2717 -1.6045  0.3119
 5250TIP3    H237242   3.158   3.794   1.357  1.5057  0.7291  0.0673
 5251TIP3   OH237243   4.026   1.399  11.100  0.7584 -0.0570 -0.2391
 5251TIP3    H137244   4.036   1.387  11.194  1.8312  2.8377  0.1048
 5251TIP3    H237245   3.939   1.439  11.090  0.5547 -0.5610 -0.5095
 5252TIP3   OH237246   6.270   4.323   5.706 -0.2864  0.1318  0.1375
 5252TIP3    H137247   6.329   4.289   5.639 -1.6796 -1.5928 -0.3105
 5252TIP3    H237248   6.185   4.328   5.663 -1.0665 -0.2985  1.5544
 5253TIP3   OH237249   5.678   2.728  14.506  0.3057  0.0215 -0.6512
 5253TIP3    H137250   5.699   2.654  14.450  1.1870 -0.3011  0.0760
 5253TIP3    H237251   5.607   2.695  14.562 -0.8953  0.4916 -1.8375
 5254TIP3   OH237252   4.637   3.605  16.492  0.0346  0.1182  0.2435
 5254TIP3    H137253   4.730   3.585  16.505 -0.3725 -1.2760  1.2139
 5254TIP3    H237254   4.636   3.672  16.423  1.6750 -0.8028 -0.7233
 5255TIP3   OH237255   1.728   1.913   4.574  0.9332 -0.6184  0.3969
 5255TIP3    H137256   1.693   1.921   4.486  1.6612  0.6739  0.1969
 5255TIP3    H237257   1.803   1.972   4.576 -0.2809  1.0246  2.4646
 5256TIP3   OH237258   0.723   6.684   2.155 -0.1033 -0.4235  0.0010
 5256TIP3    H137259   0.724   6.779   2.162 -0.0328 -0.4560  0.4583
 5256TIP3    H237260   0.709   6.667   2.062  1.0492  0.0324 -0.2794
 5257TIP3   OH237261   3.628   4.707  11.700  0.1057  0.0669  0.3841
 5257TIP3    H137262   3.713   4.675  11.669 -0.5179  0.4471 -1.9041
 5257TIP3    H237263   3.613   4.786  11.649 -0.8207  1.0605  2.1043
 5258TIP3   OH237264   1.415   2.790   2.974  0.1419  0.0943  0.0935
 5258TIP3    H137265   1.371   2.796   3.059  0.7341  0.4788  0.3827
 5258TIP3    H237266   1.355   2.833   2.913 -0.4605 -0.5154  0.2398
 5259TIP3   OH237267   1.976   5.030  11.420  0.5871 -0.2423 -0.4324
 5259TIP3    H137268   2.006   5.109  11.465 -0.6219 -1.5834  3.0348
 5259TIP3    H237269   2.048   4.968  11.431  0.6999 -0.2911 -1.3571
 5260TIP3   OH237270   4.174   1.583  11.812  0.6716 -0.0209 -0.0463
 5260TIP3    H137271   4.185   1.488  11.804 -1.0984 -0.1719 -1.0821
 5260TIP3    H237272   4.104   1.594  11.876  2.9160  0.7529  2.4718
 5261TIP3   OH237273   1.256   2.322  12.344 -0.7292  0.3586  0.3376
 5261TIP3    H137274   1.229   2.403  12.386  0.0916  0.8538 -0.0607
 5261TIP3    H237275   1.262   2.259  12.415  1.8620  1.4945  1.2432
 5262TIP3   OH237276   0.670   2.512  15.048  0.7057  0.2973 -0.0098
 5262TIP3    H137277   0.661   2.419  15.029 -0.3397  0.3442  0.1712
 5262TIP3    H237278   0.671   2.555  14.963 -1.2022  0.2898 -0.0770
 5263TIP3   OH237279   6.122   3.169   6.299  0.6399  0.0559 -0.1361
 5263TIP3    H137280   6.097   3.093   6.351  1.5600  0.0351  0.2895
 5263TIP3    H237281   6.196   3.207   6.346 -0.5551  1.9415  0.3400
 5264TIP3   OH237282   1.905   5.524  16.815 -0.4398  0.0063  0.2224
 5264TIP3    H137283   1.861   5.459  16.870 -1.4997  0.0288 -0.5653
 5264TIP3    H237284   1.910   5.602  16.870 -0.3272 -0.3533  0.7293
 5265TIP3   OH237285   3.825   4.898   1.011 -1.0513  0.1024 -0.0772
 5265TIP3    H137286   3.871   4.835   0.955 -0.4610  1.2986 -0.9882
 5265TIP3    H237287   3.737   4.862   1.021 -0.5373 -1.1952 -0.0143
 5266TIP3   OH237288   0.816   3.421   1.092 -0.1337  0.1198 -0.1283
 5266TIP3    H137289   0.775   3.492   1.043  2.3342  2.1076  0.4741
 5266TIP3    H237290   0.876   3.379   1.030 -0.7241 -0.7118 -0.1569
 5267TIP3   OH237291   0.642   3.869   2.277  0.2120  0.0154  0.2339
 5267TIP3    H137292   0.589   3.856   2.198  0.5584 -1.6647  0.2345
 5267TIP3    H237293   0.702   3.939   2.255 -0.3977  0.2795 -0.6244
 5268TIP3   OH237294   3.739   3.202  11.305 -0.6413  0.1254  0.1711
 5268TIP3    H137295   3.766   3.119  11.343 -0.4273 -0.8558 -1.9851
 5268TIP3    H237296   3.821   3.251  11.294 -0.2170 -0.9726 -2.0624
 5269TIP3   OH237297   3.682   2.393   6.340 -0.2466  1.1166 -0.1068
 5269TIP3    H137298   3.692   2.406   6.435 -0.3571 -1.2958  0.2964
 5269TIP3    H237299   3.765   2.354   6.312 -0.7186  0.5136 -0.7140
 5270TIP3   OH237300   1.942   6.616  12.428  0.0111  0.2362 -0.5638
 5270TIP3    H137301   2.017   6.675  12.427  0.1621  0.0446 -0.5264
 5270TIP3    H237302   1.889   6.645  12.502  1.1449 -0.9951  0.7835
 5271TIP3   OH237303   3.329   2.519   4.827 -0.1399  0.5363  0.5774
 5271TIP3    H137304   3.280   2.573   4.764  1.8249  2.1956  0.3626
 5271TIP3    H237305   3.403   2.484   4.777  0.6032  0.6124  1.5783
 5272TIP3   OH237306   6.019   0.891   1.985 -0.0768 -0.4303  0.0803
 5272TIP3    H137307   6.074   0.813   1.998  1.0775  0.6451  2.2084
 5272TIP3    H237308   5.940   0.858   1.942  0.4726 -2.7505  0.7051
 5273TIP3   OH237309   5.974   1.174  14.466 -0.3347  0.2399 -0.4174
 5273TIP3    H137310   5.998   1.081  14.464  0.4266  0.4071  0.5058
 5273TIP3    H237311   5.980   1.202  14.374  1.0298 -0.2298 -0.4961
 5274TIP3   OH237312   6.291   0.268  14.759  0.1406 -0.0199 -0.0223
 5274TIP3    H137313   6.343   0.192  14.734  1.6508  0.9413  0.0824
 5274TIP3    H237314   6.328   0.340  14.709  0.1361  1.0491  1.4694
 5275TIP3   OH237315   4.230   4.826   4.292  0.7153 -0.0183 -0.8281
 5275TIP3    H137316   4.240   4.911   4.249  0.3045  0.5463  0.1328
 5275TIP3    H237317   4.256   4.762   4.226  3.7683  0.9502 -0.7214
 5276TIP3   OH237318   4.125   1.103  12.088 -0.2618  0.1260  0.0642
 5276TIP3    H137319   4.137   1.058  12.172  0.6941 -0.5209 -0.3969
 5276TIP3    H237320   4.089   1.036  12.030 -0.2868  0.3821 -0.2193
 5277TIP3   OH237321   2.758   4.965   2.120  0.2011 -0.4435  0.5301
 5277TIP3    H137322   2.822   4.898   2.097 -0.4660 -0.3584 -1.8139
 5277TIP3    H237323   2.695   4.965   2.048 -1.9543  0.1273  2.2746
 5278TIP3   OH237324   0.647   6.097  10.626  0.4083  0.2997 -0.5895
 5278TIP3    H137325   0.644   6.043  10.705 -0.5226  1.0094 -0.1282
 5278TIP3    H237326   0.739   6.092  10.598  0.5183 -0.8453 -0.1005
 5279TIP3   OH237327   2.028   5.389  14.061 -0.5805  0.0152  0.3087
 5279TIP3    H137328   1.969   5.434  14.000  0.1930  0.5451 -0.0710
 5279TIP3    H237329   2.104   5.367  14.008 -0.2966 -0.3595  0.8715
 5280TIP3   OH237330   3.189   2.636   4.643  0.6280  0.8175 -0.3613
 5280TIP3    H137331   3.105   2.643   4.598  0.4479 -0.8469 -0.3330
 5280TIP3    H237332   3.250   2.686   4.588 -0.1598  1.1766 -0.9260
 5281TIP3   OH237333   2.989   1.977   4.399 -0.1027  0.3260 -0.1171
 5281TIP3    H137334   2.974   2.042   4.330 -0.2818  2.4274  1.7596
 5281TIP3    H237335   2.996   1.894   4.353 -1.4863  1.4355 -2.5354
 5282TIP3   OH237336   1.902   4.470  13.354  0.5862 -0.2503 -0.5661
 5282TIP3    H137337   1.974   4.486  13.294  0.9117  0.1062 -0.0865
 5282TIP3    H237338   1.861   4.389  13.322  2.4688 -1.6598  0.3383
 5283TIP3   OH237339   5.089   2.100  13.653 -0.4442  0.2376  0.2356
 5283TIP3    H137340   5.058   2.018  13.692  0.9178  0.5038  1.9959
 5283TIP3    H237341   5.125   2.074  13.568 -1.1111 -0.7751  0.2462
 5284TIP3   OH237342   2.192   3.154   2.026 -0.2217  0.4350 -0.4502
 5284TIP3    H137343   2.191   3.073   1.975 -1.4123 -0.3115  0.6987
 5284TIP3    H237344   2.245   3.134   2.103 -0.1964  0.8835 -0.3452
 5285TIP3   OH237345   6.080   2.021  14.206  0.1150  0.2331 -0.3693
 5285TIP3    H137346   6.054   1.948  14.150  1.8599 -1.0483  0.3769
 5285TIP3    H237347   6.029   2.010  14.286 -1.1013  1.0402 -1.0167
 5286TIP3   OH237348   5.621   4.735   2.268 -0.1181 -0.2061  0.4295
 5286TIP3    H137349   5.641   4.657   2.318  0.4789  0.8386  1.8791
 5286TIP3    H237350   5.704   4.782   2.260 -0.5505  0.5290  0.0087
 5287TIP3   OH237351   6.193   4.675  11.935  0.2455 -0.0582  0.6682
 5287TIP3    H137352   6.152   4.642  11.855 -2.5083  0.2096  1.8474
 5287TIP3    H237353   6.278   4.709  11.907 -0.6952  0.1682 -2.1624
 5288TIP3   OH237354   0.181   0.623   2.884 -0.6447 -0.4191 -0.1894
 5288TIP3    H137355   0.227   0.662   2.809  0.4291  0.2940  0.8019
 5288TIP3    H237356   0.142   0.543   2.849 -1.4970  0.6873 -1.8747
 5289TIP3   OH237357   1.640   6.337  12.397 -0.1196 -0.5909 -0.0661
 5289TIP3    H137358   1.623   6.355  12.304 -0.7512  0.0701  0.1680
 5289TIP3    H237359   1.651   6.242  12.401  2.3956 -0.4435 -1.2073
 5290TIP3   OH237360   0.827   6.026   2.226  0.0361 -0.1907 -0.2434
 5290TIP3    H137361   0.883   6.006   2.151  0.8567  2.4062 -0.4016
 5290TIP3    H237362   0.762   6.087   2.192 -0.5896 -0.2369  0.8145
 5291TIP3   OH237363   2.074   3.359   2.803  0.0665  0.2958 -0.3425
 5291TIP3    H137364   2.086   3.404   2.719  1.5624 -0.5983 -0.6523
 5291TIP3    H237365   2.061   3.267   2.779  2.8081 -0.3933  0.3929
 5292TIP3   OH237366   3.381   2.559  10.866 -0.1460  0.3482 -0.2427
 5292TIP3    H137367   3.420   2.645  10.850 -0.1239  0.2409 -0.8092
 5292TIP3    H237368   3.455   2.498  10.863  0.1051  0.4760  1.9164
 5293TIP3   OH237369   0.566   4.779   3.464  0.0105  0.3195 -0.3435
 5293TIP3    H137370   0.510   4.775   3.387  0.5597  0.4646 -0.7615
 5293TIP3    H237371   0.653   4.756   3.432  0.0175 -0.9366  0.4892
 5294TIP3   OH237372   3.083   6.749  15.989 -0.2348 -0.2538  0.1258
 5294TIP3    H137373   3.121   6.753  15.901  0.1491 -1.0498  0.2503
 5294TIP3    H237374   3.023   6.824  15.992  1.2024  0.9460 -0.1154
 5295TIP3   OH237375   1.334   4.072  13.853  0.1508 -0.5823  0.2303
 5295TIP3    H137376   1.419   4.052  13.893  0.7786  2.0467  0.4011
 5295TIP3    H237377   1.273   4.075  13.927  1.0086  2.6890  0.9706
 5296TIP3   OH237378   0.938   5.232  11.610  0.2381  0.2832 -0.3726
 5296TIP3    H137379   1.026   5.268  11.628  0.7886 -0.9554 -0.5116
 5296TIP3    H237380   0.899   5.221  11.696  0.4902  0.1955 -0.2671
 5297TIP3   OH237381   1.009   2.918  11.242  0.1361 -0.0012  0.0548
 5297TIP3    H137382   0.926   2.958  11.268  0.7922  0.7365  1.0646
 5297TIP3    H237383   1.027   2.854  11.310  0.9155  0.5852  0.4138
 5298TIP3   OH237384   3.362   1.568  15.582 -0.2757 -0.2144  0.0635
 5298TIP3    H137385   3.449   1.606  15.577 -1.1939  1.8898 -3.2085
 5298TIP3    H237386   3.337   1.576  15.673  3.1218 -1.5630  1.2866
 5299TIP3   OH237387   4.191   0.048  13.479 -0.2640  0.6429 -0.6216
 5299TIP3    H137388   4.187  -0.023  13.414  0.2385  1.0809 -1.1385
 5299TIP3    H237389   4.277   0.037  13.520 -0.3569  0.7033 -0.4121
 5300TIP3   OH237390   1.110   1.689   4.344 -0.0608  0.6991  0.2178
 5300TIP3    H137391   1.190   1.740   4.330 -0.4471  1.3610  0.4067
 5300TIP3    H237392   1.087   1.657   4.257 -0.0015  1.1235  0.0431
 5301TIP3   OH237393   3.685   3.565  12.416  0.1525 -0.1669  0.1005
 5301TIP3    H137394   3.637   3.638  12.455  0.5118 -0.0294  0.2967
 5301TIP3    H237395   3.622   3.493  12.412 -0.1031  0.0509  0.2325
 5302TIP3   OH237396   5.742   6.754   0.269 -0.0405  0.1837 -0.7694
 5302TIP3    H137397   5.834   6.731   0.285  0.2089 -0.3545 -2.6557
 5302TIP3    H237398   5.743   6.850   0.262  0.4199  0.1692 -0.9828
 5303TIP3   OH237399   3.352   2.942   0.630  0.3397  0.7101 -0.0543
 5303TIP3    H137400   3.281   2.903   0.581 -0.1218  1.4636  0.0018
 5303TIP3    H237401   3.418   2.872   0.637  1.0524  0.9740 -2.9456
 5304TIP3   OH237402   5.298   1.849   0.858  0.3062 -0.3328 -0.2397
 5304TIP3    H137403   5.343   1.922   0.902 -1.2578  0.9571 -0.6794
 5304TIP3    H237404   5.224   1.829   0.914  0.0326 -0.7741 -0.7500
 5305TIP3   OH237405   5.410   6.216   1.083  0.3561 -0.0654 -0.0595
 5305TIP3    H137406   5.405   6.173   0.998  1.1300 -1.3842  0.5409
 5305TIP3    H237407   5.323   6.206   1.120  1.0160 -2.9778  0.9161
 5306TIP3   OH237408   2.096   0.830  15.133  1.1275 -0.4100  0.2005
 5306TIP3    H137409   2.183   0.865  15.152  0.4633  0.5929  1.6556
 5306TIP3    H237410   2.096   0.742  15.171  1.3559 -0.2218  0.6426
 5307TIP3   OH237411   1.124   4.428  13.704  0.7142  0.3029  0.3930
 5307TIP3    H137412   1.039   4.439  13.748  0.0734 -1.4229 -0.3099
 5307TIP3    H237413   1.112   4.473  13.619  1.3764  2.1625  1.2289
 5308TIP3   OH237414   1.485   3.650   0.740  0.2985 -0.2141 -0.2941
 5308TIP3    H137415   1.420   3.619   0.677 -1.3758  2.4829 -0.0191
 5308TIP3    H237416   1.436   3.664   0.821  2.0921 -2.0104  1.1927
 5309TIP3   OH237417   2.129   3.379  13.171  0.5194  0.4314  0.6610
 5309TIP3    H137418   2.101   3.376  13.262  1.0458  2.4097  0.9288
 5309TIP3    H237419   2.060   3.427  13.126  0.7543  0.3524  0.2096
 5310TIP3   OH237420   5.472   1.819  15.610  0.2547 -0.2233  0.1923
 5310TIP3    H137421   5.564   1.829  15.635 -0.3575  0.5096  2.4104
 5310TIP3    H237422   5.444   1.739  15.654 -0.5400  0.3818  0.8086
 5311TIP3   OH237423   2.630   0.217  11.720  0.1745  0.1860 -0.0679
 5311TIP3    H137424   2.552   0.248  11.673  0.2266 -0.8125 -0.8460
 5311TIP3    H237425   2.649   0.287  11.783 -1.1550  0.5920 -0.0827
 5312TIP3   OH237426   0.578   0.832  14.122 -0.3210 -0.1471  0.3574
 5312TIP3    H137427   0.663   0.872  14.100  0.9248 -2.4541  0.5675
 5312TIP3    H237428   0.513   0.892  14.085  1.4231  1.2204 -0.6863
 5313TIP3   OH237429   5.623   1.547   3.769  0.3106 -0.0247 -0.4572
 5313TIP3    H137430   5.531   1.545   3.741  0.3058  0.9257 -0.5513
 5313TIP3    H237431   5.672   1.554   3.687  0.4536 -0.2747 -0.3927
 5314TIP3   OH237432   1.980   0.302  12.161  0.5857  0.0089 -0.0800
 5314TIP3    H137433   1.984   0.220  12.112 -0.2479  0.5961 -1.1796
 5314TIP3    H237434   2.051   0.355  12.126  0.0703  0.3826 -0.5624
 5315TIP3   OH237435   5.481   5.417   5.565  0.6224 -0.1792 -0.4313
 5315TIP3    H137436   5.466   5.338   5.618 -1.6653  1.0881  0.9711
 5315TIP3    H237437   5.413   5.414   5.498  0.4537  0.6075 -0.3092
 5316TIP3   OH237438   0.412   6.484   3.865  0.5050 -0.4028 -0.0370
 5316TIP3    H137439   0.414   6.474   3.960  0.0291 -0.5256 -0.0359
 5316TIP3    H237440   0.362   6.408   3.834 -0.7751  0.4910 -0.2453
 5317TIP3   OH237441   2.113   6.208   0.241 -0.2997  0.3541 -0.1513
 5317TIP3    H137442   2.058   6.182   0.315 -0.4996 -0.9235 -0.7069
 5317TIP3    H237443   2.201   6.215   0.277 -0.3456 -0.5487  0.1684
 5318TIP3   OH237444   2.220   6.167  16.492  0.3612 -0.2646 -0.4792
 5318TIP3    H137445   2.153   6.230  16.518 -1.6377 -1.7799 -1.7032
 5318TIP3    H237446   2.297   6.220  16.472 -0.7268  1.6122  0.1075
 5319TIP3   OH237447   3.459   6.542  16.376 -0.6160  0.5521 -0.6641
 5319TIP3    H137448   3.540   6.545  16.325 -0.2582  0.4658 -0.1092
 5319TIP3    H237449   3.419   6.458  16.355  1.5879 -1.4375  2.2641
 5320TIP3   OH237450   0.686   1.755   4.254  0.2069  0.0496  0.1192
 5320TIP3    H137451   0.714   1.831   4.305  4.2308  0.1031 -1.8282
 5320TIP3    H237452   0.753   1.689   4.270 -0.3940 -1.2271 -2.1691
 5321TIP3   OH237453   4.541   5.090  13.133 -0.5447  0.0227 -0.5612
 5321TIP3    H137454   4.614   5.046  13.089 -0.2597 -0.1495  0.0644
 5321TIP3    H237455   4.576   5.176  13.157 -0.8983  0.3533 -1.2177
 5322TIP3   OH237456   6.106   4.417   0.537 -0.2144  0.6259  0.0527
 5322TIP3    H137457   6.143   4.490   0.587 -2.1205  1.2784  0.5854
 5322TIP3    H237458   6.079   4.456   0.454 -0.6702  0.3894  0.0876
 5323TIP3   OH237459   3.613   4.857   3.920  0.3020  0.3430 -0.1230
 5323TIP3    H137460   3.611   4.803   3.999 -0.4115 -0.7401 -0.8447
 5323TIP3    H237461   3.705   4.878   3.907  0.4837  0.0900  0.7023
 5324TIP3   OH237462   0.436   4.333  11.151 -0.2912  0.4435  0.0391
 5324TIP3    H137463   0.358   4.327  11.096  0.6298 -1.5963 -1.1647
 5324TIP3    H237464   0.479   4.414  11.123 -1.8193  1.5074  0.6043
 5325TIP3   OH237465   3.700   3.741   2.768  0.0093  0.4616  0.1765
 5325TIP3    H137466   3.696   3.770   2.859  0.0077 -0.1305  0.3691
 5325TIP3    H237467   3.744   3.812   2.722 -2.6354  2.1453  0.0610
 5326TIP3   OH237468   5.443   5.612   2.827 -0.2823  0.2667  0.6232
 5326TIP3    H137469   5.446   5.708   2.822 -0.1801  0.2889  1.0394
 5326TIP3    H237470   5.524   5.584   2.786 -0.7372  0.3182 -0.3309
 5327TIP3   OH237471   3.517   2.012   1.100  0.3495 -0.2934  0.0882
 5327TIP3    H137472   3.604   2.052   1.102 -0.0184  0.5064  1.8015
 5327TIP3    H237473   3.465   2.064   1.161 -1.0012 -1.5285  0.0439
 5328TIP3   OH237474   2.088   4.502  12.996  0.3675  0.3985 -0.9085
 5328TIP3    H137475   2.012   4.552  12.966 -0.4054 -1.0024 -1.4091
 5328TIP3    H237476   2.146   4.499  12.920 -0.2348 -0.6190 -1.3591
 5329TIP3   OH237477   2.590   3.715  15.556  0.0571 -0.5076 -0.1503
 5329TIP3    H137478   2.576   3.662  15.477 -0.0747  1.3132 -1.4068
 5329TIP3    H237479   2.541   3.669  15.625 -0.4107 -1.7659 -1.2790
 5330TIP3   OH237480   3.055   0.420   1.239  0.0269 -0.0138 -0.0662
 5330TIP3    H137481   3.118   0.425   1.311 -0.5972 -0.9751  0.5717
 5330TIP3    H237482   2.993   0.352   1.266 -1.3767  1.0043 -0.6048
 5331TIP3   OH237483   3.493   6.439  17.145  0.7405  0.1238 -0.2231
 5331TIP3    H137484   3.494   6.350  17.110  1.3892 -0.4430  1.1478
 5331TIP3    H237485   3.486   6.427  17.240 -0.6357  1.5836 -0.0923
 5332TIP3   OH237486   6.070   4.415  12.665 -0.2059 -0.0712 -0.4734
 5332TIP3    H137487   6.128   4.491  12.663  0.5969 -0.6770 -1.8155
 5332TIP3    H237488   6.116   4.351  12.719 -0.2582 -0.0768 -0.4350
 5333TIP3   OH237489   3.486   6.660   3.285  0.2021 -0.2225  0.6753
 5333TIP3    H137490   3.406   6.619   3.317  0.1783  0.0832  1.0234
 5333TIP3    H237491   3.474   6.666   3.190 -1.6296  2.6757  0.9343
 5334TIP3   OH237492   0.282   0.041  12.129  0.2883  0.2199  0.2065
 5334TIP3    H137493   0.317   0.020  12.216  0.4579  0.3232  0.1638
 5334TIP3    H237494   0.261  -0.044  12.090  2.1983  0.0198 -0.4845
 5335TIP3   OH237495   0.228   5.042  16.358 -0.0068  0.2217 -0.2169
 5335TIP3    H137496   0.297   4.983  16.328 -1.7481 -2.9655  1.5234
 5335TIP3    H237497   0.264   5.080  16.439  0.7151  0.7419 -0.7684
 5336TIP3   OH237498   3.606   2.794  14.914  0.2478  0.3448 -0.2560
 5336TIP3    H137499   3.641   2.781  15.002 -1.7975  1.8048  0.8555
 5336TIP3    H237500   3.613   2.708  14.873 -0.0765 -0.7616  1.8678
 5337TIP3   OH237501   6.294   1.265  16.226 -0.2080 -0.8484 -0.1731
 5337TIP3    H137502   6.348   1.297  16.154  1.9664 -1.4284  1.0753
 5337TIP3    H237503   6.307   1.170  16.226 -0.2526 -0.8747  0.8689
 5338TIP3   OH237504   5.825   5.322   3.755  0.3976 -0.0445  0.0431
 5338TIP3    H137505   5.770   5.277   3.819 -1.0857  1.7622  0.1348
 5338TIP3    H237506   5.763   5.372   3.701  1.9500  2.3010  0.3141
 5339TIP3   OH237507   0.468   5.217  11.926  0.3056 -0.1759 -0.5611
 5339TIP3    H137508   0.381   5.192  11.957  0.4187  0.6997  0.5082
 5339TIP3    H237509   0.509   5.260  12.001  2.0598 -1.4877 -0.6999
 5340TIP3   OH237510   0.555   1.598   1.232  1.0083 -0.2162  0.2705
 5340TIP3    H137511   0.584   1.625   1.319  0.4196 -0.5230  0.5744
 5340TIP3    H237512   0.607   1.650   1.171 -1.4374  3.1772  0.7999
 5341TIP3   OH237513   5.878   1.370  13.142 -0.5756 -0.5321  0.2230
 5341TIP3    H137514   5.871   1.463  13.122  2.2314 -0.5473 -1.3030
 5341TIP3    H237515   5.787   1.340  13.146 -1.5370  1.9964 -0.5673
 5342TIP3   OH237516   6.746   0.766   2.638 -0.3090  0.2662 -0.1173
 5342TIP3    H137517   6.697   0.690   2.668 -3.3730  1.6352 -1.2036
 5342TIP3    H237518   6.768   0.814   2.718  1.5077 -1.5442  0.5660
 5343TIP3   OH237519   5.609   4.013  13.515 -0.3591  0.7622  0.4868
 5343TIP3    H137520   5.620   4.107  13.530 -1.2639  0.9303  0.1129
 5343TIP3    H237521   5.683   3.973  13.562 -0.8337  1.5471  1.9589
 5344TIP3   OH237522   5.234   4.939   4.430  0.4002  0.1672 -0.0808
 5344TIP3    H137523   5.155   4.893   4.402 -0.1950  0.2707  1.3628
 5344TIP3    H237524   5.294   4.869   4.455  0.5656  0.1085 -0.6187
 5345TIP3   OH237525   2.849   6.708   0.785  0.4081 -0.8753 -0.0317
 5345TIP3    H137526   2.796   6.785   0.807  0.9488 -0.2281 -0.9249
 5345TIP3    H237527   2.866   6.665   0.869 -2.4843 -1.7757  0.2167
 5346TIP3   OH237528   0.971   4.735  14.112  0.3608  0.1719  0.5241
 5346TIP3    H137529   0.990   4.727  14.019  0.6527 -0.4810  0.6334
 5346TIP3    H237530   0.881   4.767  14.116 -1.1300 -3.4827 -0.0204
 5347TIP3   OH237531   3.733   2.026  15.485  0.1756  0.2258  0.3471
 5347TIP3    H137532   3.724   1.934  15.462  0.5346  0.4511 -0.7635
 5347TIP3    H237533   3.807   2.029  15.545 -2.0005 -0.6317  3.2643
 5348TIP3   OH237534   6.089   5.209   2.560 -0.7061 -0.1547 -0.9627
 5348TIP3    H137535   6.113   5.260   2.637 -0.9969 -2.4969  0.8066
 5348TIP3    H237536   6.077   5.273   2.491 -1.0399  2.1444  1.0974
 5349TIP3   OH237537   5.125   0.631  14.877  0.1797  0.0923  0.4618
 5349TIP3    H137538   5.175   0.679  14.942  0.7819  1.6317 -1.0605
 5349TIP3    H237539   5.191   0.579  14.830  0.0299  0.3559 -0.0515
 5350TIP3   OH237540   1.176   1.754   1.943 -0.4340 -0.0061 -0.0691
 5350TIP3    H137541   1.218   1.785   1.862 -1.4020 -1.9250 -1.3942
 5350TIP3    H237542   1.233   1.683   1.974 -0.0001  0.8055  1.0473
 5351TIP3   OH237543   1.539   6.224   4.953  0.2771  0.2803 -0.4409
 5351TIP3    H137544   1.609   6.160   4.966 -1.5471 -1.5894  0.7889
 5351TIP3    H237545   1.503   6.238   5.041 -2.9322 -1.3460 -1.3548
 5352TIP3   OH237546   5.684   4.902   5.945  0.0657 -0.1915  0.1778
 5352TIP3    H137547   5.726   4.886   6.030 -1.5426  0.5238  1.1602
 5352TIP3    H237548   5.757   4.919   5.885  1.2073  0.1663  1.6025
 5353TIP3   OH237549   3.471   1.514  12.476 -0.1159  0.5509 -0.0133
 5353TIP3    H137550   3.466   1.429  12.433  1.2111  0.5535 -0.2296
 5353TIP3    H237551   3.382   1.549  12.471 -1.1980 -1.6727  1.9204
 5354TIP3   OH237552   5.559   1.084  14.093  0.5388  0.1024 -0.5121
 5354TIP3    H137553   5.479   1.121  14.057  1.6395  2.1829 -0.9681
 5354TIP3    H237554   5.540   1.071  14.186 -0.8793 -1.1875 -0.9344
 5355TIP3   OH237555   4.785   5.192  11.129 -0.6412 -0.2467 -0.1607
 5355TIP3    H137556   4.876   5.206  11.154 -0.6619  1.0552 -0.7576
 5355TIP3    H237557   4.789   5.153  11.042 -0.6505 -0.6786  0.0301
 5356TIP3   OH237558   3.919   4.290   5.054 -0.1373  0.7376 -0.6479
 5356TIP3    H137559   3.938   4.347   5.128  2.6883 -0.4147 -0.3681
 5356TIP3    H237560   3.960   4.333   4.979 -2.1876  1.4272 -1.4623
 5357TIP3   OH237561   3.755   1.825  13.552 -0.1845  1.1121  0.0231
 5357TIP3    H137562   3.723   1.897  13.606  1.0788  0.5562  1.5897
 5357TIP3    H237563   3.828   1.788  13.602 -0.1096 -0.5724 -1.2499
 5358TIP3   OH237564   2.538   3.590   3.974  0.1264 -0.1217  0.3823
 5358TIP3    H137565   2.612   3.638   4.012 -0.7781  0.8586  0.9644
 5358TIP3    H237566   2.533   3.509   4.025  0.2826  0.1920  0.9020
 5359TIP3   OH237567   5.922   4.326   3.426  0.4709  0.3407 -0.0169
 5359TIP3    H137568   5.849   4.265   3.435 -0.6131  1.8673  2.5784
 5359TIP3    H237569   5.921   4.351   3.334  0.0326 -2.3431 -0.8433
 5360TIP3   OH237570   1.265   5.233  16.958 -0.0159  0.3124  0.3352
 5360TIP3    H137571   1.351   5.255  16.995 -0.2678 -0.0613  1.1644
 5360TIP3    H237572   1.285   5.191  16.874  0.6188 -0.0077  0.6403
 5361TIP3   OH237573   1.848   5.407   5.588  0.1632  0.5502 -0.2139
 5361TIP3    H137574   1.797   5.329   5.563  0.9330  0.3946 -1.3940
 5361TIP3    H237575   1.874   5.446   5.504 -0.1058  2.0237  0.3593
 5362TIP3   OH237576   4.047   5.281  14.513 -0.5172  0.1779 -0.3989
 5362TIP3    H137577   4.082   5.198  14.546 -0.3788 -0.1673 -1.3859
 5362TIP3    H237578   4.065   5.279  14.419 -0.8502  1.1647 -0.4946
 5363TIP3   OH237579   5.756   0.237  12.801 -0.0180  0.0839 -0.3102
 5363TIP3    H137580   5.834   0.189  12.775  1.2058  1.9139 -0.2107
 5363TIP3    H237581   5.716   0.265  12.719 -0.8561 -1.2091 -0.3761
 5364TIP3   OH237582   6.172   1.701   6.539 -0.2156 -0.4945  0.4582
 5364TIP3    H137583   6.264   1.681   6.555 -0.1954 -1.4233 -0.6884
 5364TIP3    H237584   6.161   1.791   6.571  1.1599 -0.2589  0.3211
 5365TIP3   OH237585   4.711   4.320   2.239 -0.0990 -0.1928 -0.1978
 5365TIP3    H137586   4.787   4.377   2.229 -1.0241  0.8912 -1.5098
 5365TIP3    H237587   4.646   4.356   2.178 -1.6095 -1.1818  0.7512
 5366TIP3   OH237588   0.730   4.922   1.784  0.3113 -0.3101  0.3285
 5366TIP3    H137589   0.697   5.005   1.819  0.0716 -0.5890  0.7803
 5366TIP3    H237590   0.692   4.917   1.696  0.8697  0.3701  0.0425
 5367TIP3   OH237591   3.349   0.568  11.703  0.1825 -0.4418  0.1169
 5367TIP3    H137592   3.413   0.639  11.712  0.5719 -0.9366  1.5048
 5367TIP3    H237593   3.383   0.514  11.632  0.5455  0.0725 -0.1138
 5368TIP3   OH237594   3.030   5.841  14.450 -0.3759 -0.1433  0.2332
 5368TIP3    H137595   3.052   5.759  14.405  3.5348  0.1672  1.1590
 5368TIP3    H237596   2.939   5.857  14.428 -0.6674 -3.5559 -1.8298
 5369TIP3   OH237597   1.975   3.904  12.788 -0.0166 -0.0549 -0.4491
 5369TIP3    H137598   1.890   3.865  12.810 -0.0686 -0.1521 -0.8176
 5369TIP3    H237599   1.953   3.981  12.736  0.1331 -0.3561 -0.9720
 5370TIP3   OH237600   2.357   1.993  11.875  0.2646  0.1975 -0.7183
 5370TIP3    H137601   2.376   1.951  11.791 -1.8124  0.4339 -1.3572
 5370TIP3    H237602   2.323   2.080  11.852 -0.6763  0.1315  0.3382
 5371TIP3   OH237603   2.741   4.404   0.192  0.5065 -0.5345 -0.1764
 5371TIP3    H137604   2.807   4.461   0.232  4.0335 -2.8812 -2.0538
 5371TIP3    H237605   2.735   4.329   0.252  0.9824 -1.1506 -0.8745
 5372TIP3   OH237606   0.646   3.699  16.230  0.4085  0.6594 -0.1678
 5372TIP3    H137607   0.665   3.639  16.302  1.9132  1.6102  0.2636
 5372TIP3    H237608   0.581   3.760  16.266  0.7139  0.7697  0.1997
 5373TIP3   OH237609   1.878   2.158   4.538  0.1689  0.3291 -0.0585
 5373TIP3    H137610   1.880   2.147   4.633 -0.3767 -3.0082 -0.3166
 5373TIP3    H237611   1.968   2.182   4.516  0.3941  0.8150  1.2738
 5374TIP3   OH237612   3.263   4.528  12.724 -0.0148 -0.6591 -0.1223
 5374TIP3    H137613   3.319   4.506  12.649 -1.0692 -1.6610 -0.6482
 5374TIP3    H237614   3.258   4.447  12.775 -0.4999 -0.4171  0.2257
 5375TIP3   OH237615   1.801   4.750   6.498 -0.9384  0.1445 -0.7579
 5375TIP3    H137616   1.858   4.814   6.454  1.4631 -0.1840  1.6195
 5375TIP3    H237617   1.835   4.665   6.470 -0.4861 -0.0554  0.3674
 5376TIP3   OH237618   0.504   2.251  13.942  0.2900  0.8441 -0.0026
 5376TIP3    H137619   0.468   2.188  14.004 -0.2327  1.2129  0.0701
 5376TIP3    H237620   0.497   2.336  13.986 -0.7415  1.2049 -0.8347
 5377TIP3   OH237621   2.217   2.829   2.602 -0.8247  0.0247 -0.3842
 5377TIP3    H137622   2.232   2.739   2.575  0.5226  0.2843 -0.5986
 5377TIP3    H237623   2.128   2.849   2.573 -1.1936 -1.2693 -0.1995
 5378TIP3   OH237624   4.471   6.831  13.591  0.0925 -0.8496  0.3274
 5378TIP3    H137625   4.522   6.862  13.666 -1.0997 -0.6798  1.0983
 5378TIP3    H237626   4.536   6.817  13.522  0.8353  2.2289  0.2800
 5379TIP3   OH237627   2.124   5.253  12.194 -0.3708 -0.2717 -0.1056
 5379TIP3    H137628   2.186   5.242  12.121 -1.2535  1.4769 -1.1703
 5379TIP3    H237629   2.059   5.184  12.180  0.8128 -1.5846  0.5444
 5380TIP3   OH237630   2.610   5.914   5.880 -0.2343  0.3483 -0.1498
 5380TIP3    H137631   2.569   5.954   5.803 -0.2664 -0.9419 -0.8202
 5380TIP3    H237632   2.697   5.887   5.851 -0.2458 -0.1552  0.2552
 5381TIP3   OH237633   6.014   0.056   1.007 -0.2109 -0.4298  0.1837
 5381TIP3    H137634   6.063  -0.016   1.047 -0.0549 -0.1819  0.4463
 5381TIP3    H237635   6.009   0.033   0.914  0.0548 -0.6529  0.2216
 5382TIP3   OH237636   3.161   5.596  14.994 -0.4094 -0.1569  0.3401
 5382TIP3    H137637   3.079   5.552  15.017 -0.6594  0.1689  0.0916
 5382TIP3    H237638   3.168   5.586  14.899  0.3882 -1.1060  0.4859
 5383TIP3   OH237639   1.199   0.988   0.875 -0.1907 -0.4407  0.4644
 5383TIP3    H137640   1.207   0.906   0.924 -0.5516 -0.0921  1.1053
 5383TIP3    H237641   1.254   1.050   0.922  2.4061 -0.9932 -1.5866
 5384TIP3   OH237642   4.416   4.186   2.201  0.0433  0.1564 -0.5780
 5384TIP3    H137643   4.448   4.275   2.187 -0.1357  0.4544  0.7890
 5384TIP3    H237644   4.490   4.139   2.239  0.1044 -0.2676 -1.1966
 5385TIP3   OH237645   4.304   3.788   3.219 -0.0449 -0.0308  0.2175
 5385TIP3    H137646   4.337   3.699   3.203 -1.0200 -0.9715  2.8576
 5385TIP3    H237647   4.210   3.782   3.205 -0.1716  0.4738  0.8166
 5386TIP3   OH237648   0.608   6.366  13.000 -0.0104  0.1222 -0.1403
 5386TIP3    H137649   0.551   6.290  13.010 -0.5642  0.5943  0.3682
 5386TIP3    H237650   0.593   6.418  13.079 -0.0246  1.0069 -0.7069
 5387TIP3   OH237651   2.441   4.971   3.471  0.2146 -0.1957 -0.4256
 5387TIP3    H137652   2.467   4.973   3.563 -1.4157  1.1561  0.0563
 5387TIP3    H237653   2.370   5.035   3.465  0.2025 -0.3505 -2.6075
 5388TIP3   OH237654   1.425   3.983  12.569  0.8188  0.4402 -0.7641
 5388TIP3    H137655   1.361   4.022  12.509  0.3860  0.3084 -0.3917
 5388TIP3    H237656   1.460   3.908  12.520 -1.7989 -1.6225  0.2140
 5389TIP3   OH237657   4.693   4.984   3.183  0.4395 -0.7549  0.2115
 5389TIP3    H137658   4.727   4.992   3.094 -0.4881 -1.1676 -0.1989
 5389TIP3    H237659   4.669   4.892   3.192 -1.0787 -0.3782  0.2679
 5390TIP3   OH237660   5.073   3.207  12.658 -0.0744  0.0947 -0.6185
 5390TIP3    H137661   5.129   3.132  12.679  0.4788 -0.0015 -2.2532
 5390TIP3    H237662   5.019   3.176  12.584  0.1674  1.2853 -1.3207
 5391TIP3   OH237663   4.521   5.164  11.966  0.3652 -0.0387  0.2024
 5391TIP3    H137664   4.524   5.257  11.942 -0.8734 -0.4245 -1.7100
 5391TIP3    H237665   4.600   5.127  11.927  1.9479  0.5012  2.7007
 5392TIP3   OH237666   2.133   1.792   2.267  0.2101 -0.6456 -0.4046
 5392TIP3    H137667   2.213   1.743   2.286  0.2411 -0.0927  0.9992
 5392TIP3    H237668   2.062   1.734   2.291  0.1923 -0.8248 -0.8704
 5393TIP3   OH237669   5.553   5.958  14.912  0.5438 -0.0819  0.6018
 5393TIP3    H137670   5.480   6.017  14.892  0.1985 -0.9146 -0.7896
 5393TIP3    H237671   5.629   6.000  14.871  0.6144  0.1679  0.9811
 5394TIP3   OH237672   5.988   3.342   5.941  0.0675 -0.4180 -0.2921
 5394TIP3    H137673   5.960   3.272   6.000  0.5671  0.2835  0.8044
 5394TIP3    H237674   6.056   3.388   5.989 -1.0116  1.5226 -0.5275
 5395TIP3   OH237675   1.400   0.298   1.710  0.0465  0.0495  0.6476
 5395TIP3    H137676   1.437   0.212   1.691  0.8493  0.3928  0.6258
 5395TIP3    H237677   1.381   0.295   1.804  0.8244  0.1192  0.8164
 5396TIP3   OH237678   1.346   5.592   0.971  0.1536 -0.2796  0.1244
 5396TIP3    H137679   1.332   5.502   1.003 -1.4144 -0.1810 -0.1663
 5396TIP3    H237680   1.341   5.646   1.049 -2.9430 -0.1095 -0.0632
 5397TIP3   OH237681   3.430   3.120   1.128 -0.5770 -0.0863 -0.6902
 5397TIP3    H137682   3.444   3.035   1.088  0.2819 -0.2460 -0.0892
 5397TIP3    H237683   3.415   3.180   1.055  1.4473 -0.2686 -1.3181
 5398TIP3   OH237684   6.186   3.384   0.190 -0.2004 -0.5103 -0.1294
 5398TIP3    H137685   6.216   3.349   0.274 -1.0193 -1.5822 -0.2711
 5398TIP3    H237686   6.266   3.418   0.148  0.2939 -0.4397  0.8444
 5399TIP3   OH237687   5.773   6.135  15.798  0.2398  0.1164 -0.2198
 5399TIP3    H137688   5.770   6.185  15.880 -0.0269  1.6826 -1.1431
 5399TIP3    H237689   5.847   6.172  15.750  0.4101 -0.7974 -0.6850
 5400TIP3   OH237690   1.217   5.425   4.580 -0.3553 -0.6089  0.0930
 5400TIP3    H137691   1.238   5.422   4.486 -1.5805 -0.6585 -0.1880
 5400TIP3    H237692   1.269   5.353   4.617  1.0595  0.1390 -0.3291
 5401TIP3   OH237693   3.209   2.323  16.467 -0.2053 -0.3981 -0.1478
 5401TIP3    H137694   3.170   2.368  16.542 -0.9847 -0.9640 -0.2009
 5401TIP3    H237695   3.137   2.314  16.405  0.2619 -0.5733 -0.6719
 5402TIP3   OH237696   4.558   4.763   0.192 -0.3013 -0.1772 -0.0275
 5402TIP3    H137697   4.484   4.759   0.252 -0.5367 -0.0374 -0.3057
 5402TIP3    H237698   4.524   4.810   0.115  0.2981  0.5943  0.1655
 5403TIP3   OH237699   2.437   4.592   3.885  0.3042  0.2088 -0.0206
 5403TIP3    H137700   2.513   4.650   3.885 -0.4546  1.2318 -0.4284
 5403TIP3    H237701   2.465   4.516   3.834  0.9782  0.6730 -0.3624
 5404TIP3   OH237702   3.320   6.344  16.277 -0.6119 -0.7592  0.4002
 5404TIP3    H137703   3.266   6.270  16.305  0.4222 -2.1043 -0.9882
 5404TIP3    H237704   3.260   6.399  16.226 -1.4058 -0.5833  1.4920
 5405TIP3   OH237705   2.161   3.746  14.797 -0.1212  0.2307 -0.6045
 5405TIP3    H137706   2.082   3.728  14.746 -1.0634 -0.2508  0.9622
 5405TIP3    H237707   2.207   3.662  14.800 -0.7951 -0.1153  0.5126
 5406TIP3   OH237708   1.551   4.193  15.922 -0.2423  0.5133  0.2495
 5406TIP3    H137709   1.643   4.171  15.936 -0.1381 -0.3104 -1.3850
 5406TIP3    H237710   1.546   4.219  15.830 -1.8131 -0.5406 -0.0137
 5407TIP3   OH237711   2.084   4.763   0.194  0.2469 -0.3005 -0.3497
 5407TIP3    H137712   2.072   4.849   0.235  1.3819 -1.0475  1.6942
 5407TIP3    H237713   2.121   4.783   0.108 -2.0869  1.3292 -1.0842
 5408TIP3   OH237714   4.382   2.453  15.437 -0.0158 -0.3053 -0.6820
 5408TIP3    H137715   4.338   2.420  15.515  0.7704 -0.9596 -0.4950
 5408TIP3    H237716   4.458   2.396  15.426  1.7359  1.7505 -0.0186
 5409TIP3   OH237717   1.236   2.941   6.406  0.0767  0.5882  0.3693
 5409TIP3    H137718   1.152   2.978   6.432  0.1467  1.0804 -0.0701
 5409TIP3    H237719   1.299   3.010   6.424  0.0578  1.1833 -1.5547
 5410TIP3   OH237720   1.565   3.080  14.573 -0.0078  0.3787  0.1278
 5410TIP3    H137721   1.652   3.042  14.587 -0.3538 -0.7319 -0.6075
 5410TIP3    H237722   1.554   3.142  14.645  0.3890 -1.2637  1.6738
 5411TIP3   OH237723   4.701   1.711  10.623  0.3370 -0.2637 -0.0898
 5411TIP3    H137724   4.632   1.771  10.649 -0.8874 -1.2016 -1.0855
 5411TIP3    H237725   4.782   1.758  10.642 -0.5749  1.4134 -0.2029
 5412TIP3   OH237726   1.218   1.030  16.266  0.4369  0.3147 -0.1497
 5412TIP3    H137727   1.209   0.944  16.308 -1.6602 -0.8148 -2.5687
 5412TIP3    H237728   1.312   1.045  16.263  0.8910 -1.9414  0.3639
 5413TIP3   OH237729   1.108   6.278  13.377 -0.4350  0.4943 -0.1574
 5413TIP3    H137730   1.029   6.282  13.430 -0.2574 -0.2763  0.1932
 5413TIP3    H237731   1.163   6.348  13.410 -1.3721  1.7172 -1.1061
 5414TIP3   OH237732   5.960   4.228  13.366  0.1938  0.1779  0.2120
 5414TIP3    H137733   6.020   4.169  13.410  0.2518 -0.0063 -0.1075
 5414TIP3    H237734   5.981   4.315  13.401  0.1446  0.0183  0.6429
 5415TIP3   OH237735   3.190   4.757   5.803 -0.1609 -0.3034  0.3076
 5415TIP3    H137736   3.207   4.709   5.884  1.8075 -0.4917 -0.1607
 5415TIP3    H237737   3.258   4.727   5.742 -1.6360 -0.2457 -1.4732
 5416TIP3   OH237738   3.396   0.128  15.835 -0.1802 -0.3662  0.1395
 5416TIP3    H137739   3.431   0.097  15.751  0.5632  1.2236 -0.1737
 5416TIP3    H237740   3.443   0.076  15.901  1.1840  0.2017 -0.3528
 5417TIP3   OH237741   6.814   3.444   2.228  0.4100  0.0629 -0.0432
 5417TIP3    H137742   6.755   3.488   2.168  0.2938 -1.1067 -0.8381
 5417TIP3    H237743   6.857   3.514   2.276  1.3140  1.1226 -2.2611
 5418TIP3   OH237744   3.177   5.832   3.236 -0.4168 -0.1277  0.1003
 5418TIP3    H137745   3.179   5.808   3.143 -1.7730 -0.7526  0.2161
 5418TIP3    H237746   3.237   5.771   3.278 -1.1598 -1.0306 -0.1219
 5419TIP3   OH237747   4.715   4.482   1.312 -0.7521 -0.4363  0.1808
 5419TIP3    H137748   4.777   4.527   1.369 -0.7320 -1.4176  0.9621
 5419TIP3    H237749   4.664   4.553   1.272 -0.5486  0.2920  1.1618
 5420TIP3   OH237750   3.152   3.208  14.641  0.1184  0.6624 -0.1109
 5420TIP3    H137751   3.185   3.119  14.654 -2.8542 -0.5196  0.2615
 5420TIP3    H237752   3.216   3.249  14.584  1.3809 -1.8682 -0.6795
 5421TIP3   OH237753   4.384   3.088   1.339 -0.0715  1.0430 -0.0429
 5421TIP3    H137754   4.401   3.032   1.264 -0.3293 -0.8262  1.2148
 5421TIP3    H237755   4.300   3.130   1.319  0.8082  2.1668 -1.6314
 5422TIP3   OH237756   0.061   6.200  13.941  0.0158  0.3817  0.2423
 5422TIP3    H137757   0.041   6.223  13.850 -1.2769  3.0804  1.1079
 5422TIP3    H237758   0.149   6.163  13.937 -0.1822 -0.0283 -2.1465
 5423TIP3   OH237759   6.772   5.112  13.748 -0.6962 -0.1548 -0.0148
 5423TIP3    H137760   6.679   5.094  13.731 -0.5060 -0.6033 -0.6105
 5423TIP3    H237761   6.813   5.025  13.746 -0.4875 -0.1401  1.7299
 5424TIP3   OH237762   1.934   3.025  11.391 -0.0423  0.0733  0.1258
 5424TIP3    H137763   1.943   3.008  11.484  0.7105  0.7786  0.1898
 5424TIP3    H237764   1.999   2.969  11.350 -0.0370  0.1232  0.0650
 5425TIP3   OH237765   3.923   3.089   1.645  0.1654 -0.6234 -0.1199
 5425TIP3    H137766   3.892   3.008   1.606 -0.6134 -0.1372 -0.5260
 5425TIP3    H237767   4.007   3.065   1.686 -0.1424 -1.6670 -0.0658
 5426TIP3   OH237768   5.624   0.515   3.837 -0.1905 -0.0694 -0.4084
 5426TIP3    H137769   5.579   0.482   3.759 -1.3049  2.6801 -1.0205
 5426TIP3    H237770   5.560   0.505   3.907 -0.4937  0.6565 -0.5751
 5427TIP3   OH237771   3.501   0.813   3.830 -0.5316 -0.0323 -0.2103
 5427TIP3    H137772   3.528   0.740   3.774 -2.0728  0.3119 -1.4802
 5427TIP3    H237773   3.579   0.835   3.880  0.5475 -1.2052 -1.2993
 5428TIP3   OH237774   6.169   5.296   2.811  0.2915  0.0808 -0.6702
 5428TIP3    H137775   6.228   5.370   2.827 -0.9832  0.8739  0.5871
 5428TIP3    H237776   6.159   5.255   2.897 -0.5061 -0.4069 -0.9901
 5429TIP3   OH237777   1.535   1.650   1.131 -0.1188 -0.3854  0.3515
 5429TIP3    H137778   1.465   1.682   1.075 -1.4030  1.5303  2.8247
 5429TIP3    H237779   1.615   1.668   1.083 -1.1977 -0.5236 -1.5796
 5430TIP3   OH237780   6.366   2.370  14.950  0.1452 -0.1958 -0.3673
 5430TIP3    H137781   6.462   2.365  14.958  0.0881 -0.8684 -0.0556
 5430TIP3    H237782   6.349   2.340  14.861  0.1411 -1.2251 -0.0230
 5431TIP3   OH237783   0.255   3.854   2.448  0.1633  0.4210 -0.0780
 5431TIP3    H137784   0.246   3.832   2.541  0.8202 -1.5947 -0.4472
 5431TIP3    H237785   0.349   3.855   2.433  0.1031  1.8631 -0.5124
 5432TIP3   OH237786   5.602   6.002  13.168 -0.4498  0.7800 -0.4941
 5432TIP3    H137787   5.556   5.957  13.239  1.8495 -0.5715  0.2320
 5432TIP3    H237788   5.556   5.974  13.088 -1.0860 -0.2564  0.2112
 5433TIP3   OH237789   3.555   0.042  14.223  0.1301 -0.3057  0.1925
 5433TIP3    H137790   3.592   0.130  14.224 -0.3785 -0.0862  0.4179
 5433TIP3    H237791   3.566   0.010  14.313 -0.3459 -0.1808  0.2996
 5434TIP3   OH237792   6.141   5.573  15.627  0.4495 -0.4138 -0.5721
 5434TIP3    H137793   6.158   5.653  15.677 -2.2276 -0.0879 -0.0491
 5434TIP3    H237794   6.201   5.508  15.664 -0.5540  0.1420  2.2629
 5435TIP3   OH237795   4.365   1.672   2.972  0.4451  0.1077 -0.0159
 5435TIP3    H137796   4.270   1.678   2.966  0.4042  1.3630  1.5329
 5435TIP3    H237797   4.397   1.750   2.927  0.7241 -0.0208 -0.0415
 5436TIP3   OH237798   3.510   5.754   3.302 -0.4239 -0.7292  0.0132
 5436TIP3    H137799   3.466   5.789   3.380  0.3427  0.6379 -0.1407
 5436TIP3    H237800   3.449   5.688   3.268 -1.4726 -0.2459  0.8858
 5437TIP3   OH237801   3.521   2.078  10.952 -0.5695 -0.2709  0.0899
 5437TIP3    H137802   3.521   2.108  10.861  0.2747  2.1347  0.7976
 5437TIP3    H237803   3.428   2.074  10.976 -0.7693 -0.0363 -0.6157
 5438TIP3   OH237804   0.172   5.922   6.444  0.0969  0.1019  0.7128
 5438TIP3    H137805   0.207   5.953   6.361  1.1066  0.1801  1.1566
 5438TIP3    H237806   0.119   5.994   6.477  0.4651  0.4293  0.5850
 5439TIP3   OH237807   2.580   4.419  14.160 -0.0782 -0.2461 -0.4169
 5439TIP3    H137808   2.655   4.441  14.216  1.0502  1.4974 -2.4618
 5439TIP3    H237809   2.514   4.484  14.183 -0.6477 -1.1713  0.6833
 5440TIP3   OH237810   4.811   3.579   3.173  0.4853 -0.1753 -0.6926
 5440TIP3    H137811   4.832   3.605   3.263 -3.4403 -0.7133  0.5847
 5440TIP3    H237812   4.848   3.492   3.163 -2.6428 -2.0654  2.1881
 5441TIP3   OH237813   6.056   3.747   3.713  0.1683 -0.2225  0.5534
 5441TIP3    H137814   6.136   3.740   3.765 -0.9007 -3.1078  1.9813
 5441TIP3    H237815   6.001   3.808   3.763  1.1205  1.1509 -0.0236
 5442TIP3   OH237816   0.988   4.335  15.550 -0.3076  0.3082  0.0358
 5442TIP3    H137817   1.022   4.246  15.536  1.4106  0.9192  0.1283
 5442TIP3    H237818   0.904   4.336  15.505  0.2894 -0.9537 -1.1686
 5443TIP3   OH237819   3.424   5.209  10.889 -0.2223  0.6018  0.1226
 5443TIP3    H137820   3.345   5.167  10.854  1.1806 -0.8299 -1.5264
 5443TIP3    H237821   3.457   5.263  10.817  0.4120  1.0337  0.7244
 5444TIP3   OH237822   1.475   2.907  15.594  1.2074  0.2090  0.5449
 5444TIP3    H137823   1.429   2.908  15.678  1.6719  0.1413  0.8009
 5444TIP3    H237824   1.568   2.908  15.617  1.3429  1.4893  0.0246
 5445TIP3   OH237825   5.274   1.382   3.996  0.5318  0.3292  0.0847
 5445TIP3    H137826   5.343   1.434   4.039  1.0379 -0.1159 -0.1881
 5445TIP3    H237827   5.318   1.302   3.968  0.5819  1.1971 -2.5724
 5446TIP3   OH237828   3.605   1.221  14.332 -0.4871  0.0710  0.1817
 5446TIP3    H137829   3.541   1.242  14.263  0.2931 -2.8883 -1.6482
 5446TIP3    H237830   3.688   1.256  14.299 -0.5529  0.9686  0.9399
 5447TIP3   OH237831   5.781   2.546  15.453 -0.0517 -0.1469 -0.3883
 5447TIP3    H137832   5.711   2.577  15.395 -0.4267  1.7007  0.9585
 5447TIP3    H237833   5.751   2.459  15.481 -2.0010  0.7081  0.3806
 5448TIP3   OH237834   0.348   0.194  14.943 -0.3391 -0.0415  0.1593
 5448TIP3    H137835   0.386   0.221  15.027 -0.5889  0.6979  0.0469
 5448TIP3    H237836   0.261   0.234  14.943 -1.5290 -2.4340  0.7996
 5449TIP3   OH237837   2.732   3.229  12.034 -0.0334 -0.2821 -0.1968
 5449TIP3    H137838   2.787   3.185  12.099  0.9513 -0.6619 -1.2346
 5449TIP3    H237839   2.789   3.236  11.957 -0.2732  2.4896 -0.2211
 5450TIP3   OH237840   0.416   3.695  11.295  0.5585 -0.4221  0.3596
 5450TIP3    H137841   0.333   3.667  11.334  0.3299 -1.6305 -0.8957
 5450TIP3    H237842   0.436   3.779  11.337 -1.8416  0.4323 -0.0379
 5451TIP3   OH237843   0.396   4.448  13.220  0.1599  0.3178 -0.0046
 5451TIP3    H137844   0.415   4.356  13.233  1.4048  0.6858  1.0249
 5451TIP3    H237845   0.482   4.490  13.210 -0.4102  1.2396 -1.5626
 5452TIP3   OH237846   1.173   3.929   3.787  0.1126  0.0235 -0.2886
 5452TIP3    H137847   1.266   3.935   3.808  0.1864 -0.9415 -0.3230
 5452TIP3    H237848   1.166   3.854   3.729 -0.6105  0.4557 -0.7795
 5453TIP3   OH237849   1.456   0.711   4.928 -0.0816  0.0002 -0.0239
 5453TIP3    H137850   1.396   0.635   4.929 -0.7289  0.4657  2.1567
 5453TIP3    H237851   1.531   0.682   4.980 -0.3159  0.8393  0.7863
 5454TIP3   OH237852   0.156   3.281  10.898 -0.5094 -0.3023  0.7286
 5454TIP3    H137853   0.229   3.326  10.856 -0.2419  1.2636  2.7318
 5454TIP3    H237854   0.082   3.292  10.838  0.0941  0.9693  0.1987
 5455TIP3   OH237855   4.045   5.914   0.172 -0.0192 -0.3896 -0.4598
 5455TIP3    H137856   4.112   5.853   0.140  0.9672  1.0008 -1.1522
 5455TIP3    H237857   4.014   5.958   0.094  0.4743  1.1426  0.1708
 5456TIP3   OH237858   2.672   5.800  12.952 -0.1856 -0.4879 -0.3434
 5456TIP3    H137859   2.671   5.894  12.970  0.4304 -0.9922  2.8523
 5456TIP3    H237860   2.763   5.781  12.930 -0.1631 -0.4379 -0.2943
 5457TIP3   OH237861   4.203   4.452  13.583  0.3445 -0.7437  0.0357
 5457TIP3    H137862   4.165   4.462  13.495  2.5435 -0.7989 -0.9774
 5457TIP3    H237863   4.257   4.373  13.576  0.5210 -0.7586  1.4560
 5458TIP3   OH237864   3.431   5.809  15.402  0.2962  0.1435 -0.0721
 5458TIP3    H137865   3.347   5.855  15.395  0.5305  0.5780 -0.0865
 5458TIP3    H237866   3.409   5.723  15.437 -0.1118  0.3830  0.2645
 5459TIP3   OH237867   0.139   5.983  13.446  0.4087 -0.0428  0.0524
 5459TIP3    H137868   0.202   5.914  13.464 -0.3357 -1.3562 -2.0057
 5459TIP3    H237869   0.054   5.939  13.450 -0.1242  0.8744 -0.7119
 5460TIP3   OH237870   6.696   6.118  14.738  0.3507  0.2899 -0.1662
 5460TIP3    H137871   6.718   6.046  14.680 -1.8385 -1.5347  1.1130
 5460TIP3    H237872   6.738   6.096  14.821 -0.6380  0.2674  0.3423
 5461TIP3   OH237873   3.353   3.005  14.684  0.2285  0.2497  0.1294
 5461TIP3    H137874   3.355   3.061  14.762 -0.9848  0.5954 -0.0605
 5461TIP3    H237875   3.388   3.060  14.614  2.5013 -0.4609  0.6182
 5462TIP3   OH237876   3.491   5.631  11.892 -0.0516 -0.4732 -0.0685
 5462TIP3    H137877   3.450   5.561  11.841 -1.2847  0.1125  0.0726
 5462TIP3    H237878   3.433   5.706  11.880  1.4252  0.6478 -0.5029
 5463TIP3   OH237879   0.063   2.967  12.992  0.1172  0.0366 -0.4374
 5463TIP3    H137880   0.145   3.011  13.012 -0.5282  0.7267  0.7472
 5463TIP3    H237881  -0.005   3.023  13.030 -1.0059  0.0754 -2.3661
 5464TIP3   OH237882   1.255   2.226   6.155  0.2202 -0.6617  0.1438
 5464TIP3    H137883   1.340   2.225   6.199  0.2557  0.1611  0.1155
 5464TIP3    H237884   1.203   2.161   6.201  0.1954  0.3120  1.5638
 5465TIP3   OH237885   3.716   2.570  13.993 -0.1806  0.4475  0.6556
 5465TIP3    H137886   3.636   2.525  14.017  0.1124  0.1859  1.1356
 5465TIP3    H237887   3.787   2.510  14.016  0.1637  0.7375  0.3781
 5466TIP3   OH237888   0.439   5.286  14.529  0.4724  0.4160 -0.8240
 5466TIP3    H137889   0.531   5.310  14.541  0.5903  0.4319 -1.6544
 5466TIP3    H237890   0.424   5.295  14.434 -0.5939  1.1589 -0.6133
 5467TIP3   OH237891   0.484   5.287  16.890 -0.7408  0.7129  0.3440
 5467TIP3    H137892   0.575   5.315  16.892  0.1676 -1.9973  2.8219
 5467TIP3    H237893   0.442   5.333  16.962 -0.9654  0.7536  0.1912
 5468TIP3   OH237894   4.310   3.769  16.032  0.1084 -0.3968 -0.1890
 5468TIP3    H137895   4.393   3.812  16.012  0.5759 -0.7509  0.9151
 5468TIP3    H237896   4.266   3.760  15.947  0.7121  0.7735 -0.6446
 5469TIP3   OH237897   5.606   2.502  12.859 -0.0425 -0.2282  0.4635
 5469TIP3    H137898   5.610   2.414  12.896 -2.2175 -0.0009  1.4097
 5469TIP3    H237899   5.513   2.516  12.842  0.3261  1.6723 -0.2404
 5470TIP3   OH237900   3.410   4.736  15.845 -0.0626  0.1307  0.6644
 5470TIP3    H137901   3.504   4.750  15.834 -0.1058  0.0162  0.1386
 5470TIP3    H237902   3.400   4.641  15.848 -0.2362  0.1304  0.0594
 5471TIP3   OH237903   1.775   0.133  15.624 -0.2527  0.3672  0.3059
 5471TIP3    H137904   1.764   0.130  15.529 -0.8172  1.5650  0.3257
 5471TIP3    H237905   1.815   0.218  15.641  1.4844 -0.5474  1.0011
 5472TIP3   OH237906   2.842   6.240  11.903  0.2198 -0.0791  0.3701
 5472TIP3    H137907   2.878   6.222  11.990  0.2602  1.9723  0.8442
 5472TIP3    H237908   2.750   6.214  11.908 -0.0008  0.8188  1.3397
 5473TIP3   OH237909   5.275   2.411   4.823 -0.1242 -0.1086  1.0169
 5473TIP3    H137910   5.203   2.378   4.877 -1.2454  0.2599 -0.2288
 5473TIP3    H237911   5.234   2.437   4.741  1.4857 -0.2011  0.1489
 5474TIP3   OH237912   0.236   3.352  15.955  0.6045  0.5517 -0.3058
 5474TIP3    H137913   0.264   3.331  16.044 -0.7557 -0.0623 -0.0038
 5474TIP3    H237914   0.147   3.319  15.949 -0.0415  2.3343 -1.2719
 5475TIP3   OH237915   2.230   4.642   2.936  0.1177 -0.2192 -0.3663
 5475TIP3    H137916   2.218   4.610   3.025 -0.6954 -0.2389 -0.4765
 5475TIP3    H237917   2.204   4.734   2.939  0.1759 -0.1943 -0.5599
 5476TIP3   OH237918   0.297   2.578  16.926 -0.3444 -0.5416  0.5121
 5476TIP3    H137919   0.211   2.618  16.914  0.8142  1.8046 -0.9011
 5476TIP3    H237920   0.296   2.501  16.869 -1.0226  0.3729 -0.7713
 5477TIP3   OH237921   3.576   4.104   2.409  0.0235 -0.1422 -0.4928
 5477TIP3    H137922   3.536   4.189   2.426  0.5667 -0.0795  0.5948
 5477TIP3    H237923   3.669   4.118   2.427  0.2187 -0.8026 -0.9490
 5478TIP3   OH237924   3.110   1.106  17.010  0.5487  0.0117  0.0657
 5478TIP3    H137925   3.096   1.015  17.035  0.7056 -0.1521 -0.4316
 5478TIP3    H237926   3.061   1.157  17.075  0.2555 -0.4320  0.1947
 5479TIP3   OH237927   2.313   4.885  11.897 -0.1387 -0.3650 -0.4294
 5479TIP3    H137928   2.278   4.817  11.954 -0.7172  0.9491  0.8349
 5479TIP3    H237929   2.366   4.837  11.832  2.3113 -1.8392  2.4196
 5480TIP3   OH237930   3.024   2.042  12.435  0.4359  0.4859 -0.5592
 5480TIP3    H137931   3.104   2.065  12.387  0.7563  0.4667 -0.0523
 5480TIP3    H237932   2.966   2.004  12.369  0.7420  0.7522 -0.9874
 5481TIP3   OH237933   4.048   1.588   4.583  0.3942 -0.2666 -0.2006
 5481TIP3    H137934   3.958   1.590   4.615  1.0302 -0.1463  1.6705
 5481TIP3    H237935   4.051   1.654   4.514 -1.0843 -0.7158 -0.7313
 5482TIP3   OH237936   4.157   6.131   6.112 -0.4513 -0.1590  0.1064
 5482TIP3    H137937   4.125   6.063   6.053 -0.4777  0.1040 -0.1815
 5482TIP3    H237938   4.107   6.118   6.193 -1.0090  0.0093 -0.2133
 5483TIP3   OH237939   3.037   1.514  16.431 -0.1553  0.3214  1.0568
 5483TIP3    H137940   3.109   1.478  16.483  1.0195  0.4495 -0.3961
 5483TIP3    H237941   3.033   1.458  16.353  0.7443  2.3494 -0.5577
 5484TIP3   OH237942   4.198   3.488  15.683  0.2028 -0.0562  0.5685
 5484TIP3    H137943   4.221   3.559  15.742  1.7434  0.1012 -0.1749
 5484TIP3    H237944   4.172   3.416  15.740 -0.5741  0.8265  1.3513
 5485TIP3   OH237945   4.613   2.649   4.901 -0.1712  0.4369  0.2414
 5485TIP3    H137946   4.591   2.742   4.894 -2.2488 -0.0164  0.2231
 5485TIP3    H237947   4.689   2.639   4.843 -2.3225  1.4245 -3.0828
 5486TIP3   OH237948   2.712   1.389  13.822  0.7312 -0.4650  0.2491
 5486TIP3    H137949   2.805   1.378  13.841  0.6681  0.0819  0.8973
 5486TIP3    H237950   2.702   1.360  13.731  1.8066  0.8755 -0.3225
 5487TIP3   OH237951   0.883   2.941  16.360  0.1215 -0.0327  0.6906
 5487TIP3    H137952   0.829   3.019  16.373 -0.0099 -0.0508  0.2408
 5487TIP3    H237953   0.825   2.877  16.319  0.6107  0.1108 -0.2382
 5488TIP3   OH237954   2.829   0.337  14.363 -0.1072 -0.1954 -0.2007
 5488TIP3    H137955   2.881   0.417  14.358  0.6662 -0.6394  0.4085
 5488TIP3    H237956   2.760   0.348  14.298  0.1490  0.8471 -0.3079
 5489TIP3   OH237957   2.001   1.687   5.598 -0.1579 -0.6742  0.2166
 5489TIP3    H137958   1.966   1.729   5.519 -1.1073  1.0192  1.4633
 5489TIP3    H237959   2.081   1.735   5.618  0.0674 -1.0772  0.2762
 5490TIP3   OH237960   0.966   5.633  10.761  0.4447  0.6348 -0.1164
 5490TIP3    H137961   0.925   5.675  10.836  0.9261  1.9809 -0.5751
 5490TIP3    H237962   0.993   5.547  10.794 -1.7518  0.1092  0.4730
 5491TIP3   OH237963   4.431   3.736   2.258 -0.3794 -0.1994  1.1164
 5491TIP3    H137964   4.339   3.752   2.237  0.0892  1.7606  0.3046
 5491TIP3    H237965   4.476   3.816   2.230  1.5131 -0.9272  1.9143
 5492TIP3   OH237966   0.560   0.626   0.636 -0.3760 -0.4112  0.0925
 5492TIP3    H137967   0.575   0.551   0.694  1.2153 -1.0858 -1.1223
 5492TIP3    H237968   0.644   0.641   0.593 -1.0052  1.2753 -0.6527
 5493TIP3   OH237969   2.826   6.297   5.665  0.3330  0.1989  0.0253
 5493TIP3    H137970   2.899   6.357   5.648  0.0115  1.0769  1.5132
 5493TIP3    H237971   2.866   6.224   5.711  0.6073 -0.3842 -1.1190
 5494TIP3   OH237972   3.599   5.507   0.380 -0.1181  0.1478  0.2406
 5494TIP3    H137973   3.645   5.441   0.327  1.2923  0.2087  1.3156
 5494TIP3    H237974   3.622   5.484   0.471  0.7330  2.3032  0.6317
 5495TIP3   OH237975   3.796   0.488  15.303 -0.4203 -0.3340  0.0806
 5495TIP3    H137976   3.782   0.454  15.392 -4.2661  0.1099 -0.1988
 5495TIP3    H237977   3.797   0.411  15.247 -1.6702 -0.4538  0.1938
 5496TIP3   OH237978   0.487   3.411  17.018  0.6968  0.1200 -0.7724
 5496TIP3    H137979   0.425   3.465  16.970  0.3026 -1.5499 -2.2210
 5496TIP3    H237980   0.536   3.364  16.951  0.8035 -1.5453  0.3982
 5497TIP3   OH237981   2.856   2.677  12.151  0.4590  0.3905 -0.1943
 5497TIP3    H137982   2.885   2.590  12.179 -1.0581  0.4364  1.7259
 5497TIP3    H237983   2.782   2.697  12.208  1.1999  3.2468 -0.0834
 5498TIP3   OH237984   4.832   3.915   4.585  0.1012 -0.2363 -0.1457
 5498TIP3    H137985   4.828   3.820   4.598 -0.3324 -0.4311 -1.5351
 5498TIP3    H237986   4.900   3.927   4.519 -0.2982  0.3629 -0.4542
 5499TIP3   OH237987   3.374   4.905   4.503  0.2208 -0.2325  0.8231
 5499TIP3    H137988   3.336   4.873   4.585  0.6629 -0.2730  1.0159
 5499TIP3    H237989   3.331   4.988   4.486 -0.5242 -0.6462  0.6230
 5500TIP3   OH237990   3.772   4.810  11.926 -0.5770 -0.3333 -0.8762
 5500TIP3    H137991   3.707   4.793  11.858 -1.9315  1.5499 -0.1607
 5500TIP3    H237992   3.726   4.794  12.008  0.0347  0.4476 -0.3628
 5501TIP3   OH237993   1.495   4.581   1.140 -0.0366 -0.2949  0.0016
 5501TIP3    H137994   1.560   4.646   1.114 -0.5808  0.6732  0.9649
 5501TIP3    H237995   1.532   4.498   1.112 -0.2756  0.5424 -3.2286
 5502TIP3   OH237996   2.146   1.676   3.378 -0.9938 -0.6715  0.3991
 5502TIP3    H137997   2.229   1.713   3.348 -1.0752 -1.4543 -0.8587
 5502TIP3    H237998   2.079   1.729   3.334 -1.1145 -1.8790 -0.9442
 5503TIP3   OH237999   3.723   5.437  12.681  0.0850  0.0231 -0.2222
 5503TIP3    H138000   3.678   5.394  12.608  0.0334  0.5158 -0.4824
 5503TIP3    H238001   3.808   5.461  12.646 -0.0766  0.5910 -0.2323
 5504TIP3   OH238002   3.756   1.215  11.817  0.1532 -0.2343  0.2555
 5504TIP3    H138003   3.838   1.174  11.791  0.6247  1.6452 -1.4719
 5504TIP3    H238004   3.719   1.248  11.735 -1.2986  0.7923  1.2758
 5505TIP3   OH238005   3.507   4.997   5.659  0.0956  0.4320  0.0271
 5505TIP3    H138006   3.513   5.043   5.743 -0.0658  0.4153  0.0487
 5505TIP3    H238007   3.511   5.066   5.593  0.4360  0.4269  0.0432
 5506TIP3   OH238008   2.516   1.521   2.580 -0.2154 -0.3644 -0.4664
 5506TIP3    H138009   2.608   1.543   2.597 -0.3345 -0.4935  0.4358
 5506TIP3    H238010   2.484   1.487   2.664 -1.1696 -0.0316 -0.6768
 5507TIP3   OH238011   0.945   5.486   4.621 -0.0897  0.4345  0.0634
 5507TIP3    H138012   0.934   5.559   4.561 -0.4890 -0.2821 -0.7437
 5507TIP3    H238013   1.023   5.441   4.591 -1.0392 -0.7058 -0.7606
 5508TIP3   OH238014   0.963   2.556  14.218  0.2685  0.4559 -0.5300
 5508TIP3    H138015   0.919   2.508  14.148  0.1706  1.2396 -1.0108
 5508TIP3    H238016   0.961   2.648  14.190  0.3116  0.7690  0.4499
 5509TIP3   OH238017   3.633   2.978   3.847  0.1462 -0.0333 -0.7253
 5509TIP3    H138018   3.635   2.892   3.806  1.0100  0.5767 -2.0499
 5509TIP3    H238019   3.593   2.963   3.932  0.7611 -1.8285 -0.7083
 5510TIP3   OH238020   4.385   5.947   3.834 -0.5771 -0.6813 -0.4975
 5510TIP3    H138021   4.315   5.972   3.774  1.6351  0.3289 -2.8154
 5510TIP3    H238022   4.351   5.870   3.880 -3.5285  0.3218 -0.7982
 5511TIP3   OH238023   0.460   4.641   4.569  0.0958 -0.5421 -0.4388
 5511TIP3    H138024   0.497   4.728   4.554  1.4475 -1.1751 -0.9418
 5511TIP3    H238025   0.371   4.658   4.599  1.3449  1.1527  2.7829
 5512TIP3   OH238026   5.677   1.087   0.618 -0.3514 -0.6910 -0.1843
 5512TIP3    H138027   5.597   1.037   0.633 -0.5310 -0.5136 -0.5568
 5512TIP3    H238028   5.697   1.075   0.525 -0.6770  0.3438 -0.3975
 5513TIP3   OH238029   2.881   5.700  16.753 -0.1579 -0.1782 -0.1844
 5513TIP3    H138030   2.824   5.759  16.802  0.3848  1.4120 -1.3855
 5513TIP3    H238031   2.955   5.685  16.811  0.7406  2.1138 -0.6339
 5514TIP3   OH238032   4.806   2.611  14.778 -0.7961  0.3708 -0.2448
 5514TIP3    H138033   4.832   2.541  14.719  0.7472  1.3607 -0.8077
 5514TIP3    H238034   4.710   2.613  14.772 -0.9053 -1.8044 -0.0078
 5515TIP3   OH238035   2.777   4.575  15.748  0.0695  0.2040 -0.1930
 5515TIP3    H138036   2.834   4.574  15.825 -0.6092 -1.0975  0.3334
 5515TIP3    H238037   2.718   4.501  15.762 -1.1883  0.9919 -1.1353
 5516TIP3   OH238038   6.229   2.026  11.855 -0.1522 -0.5179  0.1422
 5516TIP3    H138039   6.257   1.966  11.785 -0.7205 -1.1351  0.4360
 5516TIP3    H238040   6.302   2.025  11.917 -0.1968 -0.9995  0.1964
 5517TIP3   OH238041   1.650   3.018  12.168 -0.1202  0.2439 -0.3795
 5517TIP3    H138042   1.568   3.029  12.216  0.4680 -0.9497  0.9812
 5517TIP3    H238043   1.670   3.105  12.134 -0.3637  1.2782  1.9365
 5518TIP3   OH238044   1.231   4.138  12.165 -0.1554  0.2170 -0.3260
 5518TIP3    H138045   1.186   4.222  12.163 -1.5151 -0.4695 -2.8017
 5518TIP3    H238046   1.192   4.091  12.239  1.1348  1.9183  1.5563
 5519TIP3   OH238047   0.726   6.585  16.346 -0.2104  0.2299 -0.1568
 5519TIP3    H138048   0.773   6.502  16.335  0.7013  0.5069  1.4597
 5519TIP3    H238049   0.658   6.566  16.411  0.1909  0.8187  0.4393
 5520TIP3   OH238050   5.795   1.577   2.975  0.7433 -0.1775 -0.0207
 5520TIP3    H138051   5.793   1.664   2.935  0.0699 -1.3283 -2.7341
 5520TIP3    H238052   5.886   1.565   3.002  1.8163 -0.0075 -3.1517
 5521TIP3   OH238053   4.477   4.225  12.490  0.5699  0.0671  0.1801
 5521TIP3    H138054   4.436   4.263  12.567 -1.9593  0.9449 -1.4992
 5521TIP3    H238055   4.432   4.142  12.477  0.7375  0.0848 -0.5570
 5522TIP3   OH238056   4.556   0.094   1.790 -0.0827 -0.1336 -0.2419
 5522TIP3    H138057   4.557   0.001   1.768 -0.1791 -0.1356 -0.2389
 5522TIP3    H238058   4.571   0.139   1.706  0.3265 -0.1590 -0.1870
 5523TIP3   OH238059   1.566   2.859  16.494 -0.0988 -0.7693  0.0708
 5523TIP3    H138060   1.497   2.830  16.553  0.2645 -3.3483 -0.6542
 5523TIP3    H238061   1.647   2.852  16.545 -0.1688  0.7900  0.4435
 5524TIP3   OH238062   1.340   0.883  13.898  0.4097  0.0120  0.4213
 5524TIP3    H138063   1.358   0.790  13.886 -0.3740  0.1799 -3.3399
 5524TIP3    H238064   1.250   0.894  13.865  1.5543  2.4606 -2.2855
 5525TIP3   OH238065   6.247   1.305  11.178 -0.7056 -0.0580 -0.0561
 5525TIP3    H138066   6.262   1.211  11.170  0.0199  0.1475 -1.3664
 5525TIP3    H238067   6.183   1.313  11.248 -1.4315 -1.5849 -0.5036
 5526TIP3   OH238068   2.008   0.679   2.589  0.2787 -0.1169  0.6974
 5526TIP3    H138069   2.022   0.768   2.621  0.9998 -0.8347  2.5383
 5526TIP3    H238070   1.919   0.679   2.555  0.3638  1.3638  0.4240
 5527TIP3   OH238071   0.478   1.500  15.531  0.5030  0.1268  0.1322
 5527TIP3    H138072   0.567   1.520  15.503  1.0085 -1.8410  0.1527
 5527TIP3    H238073   0.487   1.421  15.584 -1.4286 -1.2367 -1.4039
 5528TIP3   OH238074   2.731   0.125  16.390 -0.7026 -0.5178 -1.2150
 5528TIP3    H138075   2.646   0.163  16.410  0.4189  0.2418  3.0669
 5528TIP3    H238076   2.759   0.083  16.471  1.9424 -3.0098 -3.1988
 5529TIP3   OH238077   5.510   2.641   4.427  0.7143  0.2083 -0.3986
 5529TIP3    H138078   5.454   2.616   4.353 -1.0416 -1.4163  1.3394
 5529TIP3    H238079   5.510   2.736   4.427 -0.1989  0.2350 -1.8007
 5530TIP3   OH238080   3.129   2.733  15.806  0.1337 -0.0905 -0.3745
 5530TIP3    H138081   3.157   2.762  15.893  0.3810 -0.0050 -0.4815
 5530TIP3    H238082   3.087   2.811  15.768  0.9397  0.1858 -0.7222
 5531TIP3   OH238083   5.006   1.895   4.334 -0.0280  0.1845 -0.3972
 5531TIP3    H138084   5.003   1.804   4.363 -2.2623 -0.0681 -1.2466
 5531TIP3    H238085   5.041   1.891   4.245 -0.5941  0.0875 -0.6192
 5532TIP3   OH238086   2.408   2.978   1.127  0.6445 -0.1316 -0.1567
 5532TIP3    H138087   2.355   2.925   1.187  0.1316 -0.6502 -1.0623
 5532TIP3    H238088   2.361   3.062   1.123  1.0642  0.1645  0.7017
 5533TIP3   OH238089   4.864   6.346  15.436 -0.2036  0.3523  0.3037
 5533TIP3    H138090   4.857   6.287  15.360 -1.3857 -1.1223  1.4848
 5533TIP3    H238091   4.778   6.339  15.478  0.0802  1.9658  1.2088
 5534TIP3   OH238092   1.268   1.541  16.349  0.4758  0.3248 -0.1560
 5534TIP3    H138093   1.217   1.461  16.338  1.8376 -0.5409 -0.4719
 5534TIP3    H238094   1.232   1.583  16.428  0.7649 -1.4075  0.9368
 5535TIP3   OH238095   5.597   1.636  13.377 -0.4274  0.2285  0.0454
 5535TIP3    H138096   5.522   1.616  13.432 -0.8561 -0.0785 -0.6311
 5535TIP3    H238097   5.659   1.565  13.392 -0.3688  0.3551  0.4192
 5536TIP3   OH238098   0.817   6.454   3.001  0.1907  0.0943  0.0523
 5536TIP3    H138099   0.762   6.382   3.032  0.5703 -0.5364 -0.6983
 5536TIP3    H238100   0.887   6.461   3.066  0.6912 -0.8697 -0.3611
 5537TIP3   OH238101   1.868   2.713   5.497 -0.1844 -0.3365  0.0506
 5537TIP3    H138102   1.862   2.666   5.580  0.3072  1.7753  1.3480
 5537TIP3    H238103   1.847   2.803   5.519  0.8348  0.4507 -1.9620
 5538TIP3   OH238104   0.128   4.896  10.307  0.1804 -0.0686 -0.0798
 5538TIP3    H138105   0.212   4.915  10.349  0.3495  0.3666 -0.6181
 5538TIP3    H238106   0.125   4.800  10.303 -0.6932 -0.2525  2.6546
 5539TIP3   OH238107   5.233   5.069  13.756 -0.0912  0.0421 -0.2077
 5539TIP3    H138108   5.271   4.982  13.742 -0.6682 -0.6023  1.7899
 5539TIP3    H238109   5.306   5.130  13.744  0.3879 -0.7225 -1.3374
 5540TIP3   OH238110   4.135   0.217   5.816  0.3652 -1.1551 -0.4076
 5540TIP3    H138111   4.077   0.144   5.795  1.4216 -2.1542  0.0298
 5540TIP3    H238112   4.212   0.176   5.855  0.7437  0.2426  0.3950
 5541TIP3   OH238113   6.104   5.954   5.440 -0.4328 -0.4335  0.2173
 5541TIP3    H138114   6.186   5.919   5.404 -0.8612 -1.2548  0.0289
 5541TIP3    H238115   6.055   5.877   5.468 -1.1439  0.0543  0.3289
 5542TIP3   OH238116   4.753   4.667  11.197 -0.4986  0.0269  0.9089
 5542TIP3    H138117   4.658   4.663  11.208 -0.7380  0.7840 -0.6588
 5542TIP3    H238118   4.773   4.760  11.200  0.0092 -0.0405 -0.0630
 5543TIP3   OH238119   0.215   6.230   0.297 -0.6664 -0.5420 -0.3089
 5543TIP3    H138120   0.251   6.177   0.227 -1.7573 -2.2170  0.3473
 5543TIP3    H238121   0.128   6.194   0.313 -0.8525  0.4610  1.2095
 5544TIP3   OH238122   1.636   2.264   4.711  0.5154  0.1986 -0.0655
 5544TIP3    H138123   1.655   2.194   4.649  0.5501  0.1836 -0.0382
 5544TIP3    H238124   1.693   2.336   4.685 -0.7856  0.8655 -1.2041
 5545TIP3   OH238125   4.816   0.214   5.242 -0.3575 -0.0703 -0.7960
 5545TIP3    H138126   4.856   0.154   5.179  0.5365  0.2343 -0.5303
 5545TIP3    H238127   4.886   0.235   5.303 -1.3569 -0.7946  0.6538
 5546TIP3   OH238128   0.807   1.341   5.653  0.4761 -0.0973 -0.2386
 5546TIP3    H138129   0.826   1.281   5.724 -1.0377  0.7889  0.9690
 5546TIP3    H238130   0.730   1.303   5.609  0.7960 -0.1257 -0.7806
 5547TIP3   OH238131   4.141   1.505   0.215  0.3781  0.1736  0.3069
 5547TIP3    H138132   4.173   1.553   0.139 -0.4312  0.3599  0.0738
 5547TIP3    H238133   4.199   1.429   0.221  0.5937  0.2766 -0.3552
 5548TIP3   OH238134   6.232   3.305  16.015  0.0660  0.2202 -0.3687
 5548TIP3    H138135   6.286   3.349  16.080 -0.1177 -0.0514 -0.0304
 5548TIP3    H238136   6.181   3.241  16.065  1.3901 -1.4097 -1.0202
 5549TIP3   OH238137   2.774   1.639  13.682 -0.1809 -0.2700  0.1629
 5549TIP3    H138138   2.772   1.721  13.731 -0.3635 -0.0830 -0.1553
 5549TIP3    H238139   2.722   1.578  13.735 -0.3806 -0.0684  0.1998
 5550TIP3   OH238140   5.320   4.809  13.793  0.2373 -0.1279 -0.1561
 5550TIP3    H138141   5.313   4.723  13.752 -0.9520 -0.4446  0.6575
 5550TIP3    H238142   5.411   4.814  13.824  0.7257 -0.4840 -1.4392
 5551TIP3   OH238143   4.361   0.652   1.469 -0.0365  0.1566  0.3851
 5551TIP3    H138144   4.362   0.718   1.539  1.7799  0.1622  0.4021
 5551TIP3    H238145   4.381   0.702   1.390  0.5098 -0.2453  0.2688
 5552TIP3   OH238146   4.657   4.670  16.804  0.1009 -0.3097 -0.0111
 5552TIP3    H138147   4.688   4.741  16.859 -1.9546  1.5720 -1.1247
 5552TIP3    H238148   4.684   4.590  16.850  2.0841  1.1350  1.5169
 5553TIP3   OH238149   2.428   2.967   4.431  0.6080  0.2925  0.5004
 5553TIP3    H138150   2.392   2.919   4.506  0.1027 -1.3906 -0.7616
 5553TIP3    H238151   2.364   2.957   4.362  2.5509 -1.1442 -1.2153
 5554TIP3   OH238152   0.185   2.596  12.505 -0.0990  0.2028 -0.5638
 5554TIP3    H138153   0.248   2.598  12.433 -0.1100  1.1026 -0.5576
 5554TIP3    H238154   0.231   2.634  12.580 -0.4077  0.1819 -0.3569
 5555TIP3   OH238155   5.408   3.107  12.103  0.2830  0.0691 -0.2651
 5555TIP3    H138156   5.419   3.012  12.109 -0.9368 -0.0107  1.3064
 5555TIP3    H238157   5.430   3.139  12.190  0.3652  1.2055 -0.6930
 5556TIP3   OH238158   1.261   0.141   5.394 -0.0718  0.1095 -0.4152
 5556TIP3    H138159   1.251   0.073   5.461 -0.3048  0.4246 -0.1238
 5556TIP3    H238160   1.323   0.204   5.432  0.8245 -0.3760 -1.0438
 5557TIP3   OH238161   2.200   5.241  14.455 -0.0787  0.8525 -0.1229
 5557TIP3    H138162   2.264   5.212  14.389 -0.4251  0.8731 -0.4715
 5557TIP3    H238163   2.221   5.333  14.470  1.1029  0.4147  1.0773
 5558TIP3   OH238164   0.390   4.235  11.643  0.2477 -0.1096 -0.4131
 5558TIP3    H138165   0.398   4.327  11.621 -1.2230  0.1883  0.1787
 5558TIP3    H238166   0.351   4.194  11.565  0.8823 -0.2294 -0.6689
 5559TIP3   OH238167   3.707   0.152   2.561 -0.2569  0.3298 -0.2425
 5559TIP3    H138168   3.778   0.141   2.624  0.6048 -1.6746 -1.4754
 5559TIP3    H238169   3.725   0.236   2.519 -1.1161  1.9418  2.4107
 5560TIP3   OH238170   6.527   0.850  14.642  0.5979 -0.1716 -0.3963
 5560TIP3    H138171   6.576   0.806  14.712 -0.6710 -0.1221  0.5563
 5560TIP3    H238172   6.550   0.943  14.652 -1.0429  0.1034  1.2273
 5561TIP3   OH238173   0.844   0.305  11.056 -0.0011  0.5229  0.3439
 5561TIP3    H138174   0.780   0.247  11.016  0.3004  0.9625 -0.8137
 5561TIP3    H238175   0.811   0.393  11.038  1.4815  0.8020 -1.3164
 5562TIP3   OH238176   1.448   1.164  12.384  1.0179 -0.7488 -0.4113
 5562TIP3    H138177   1.372   1.215  12.412  2.1363  0.5584  0.3858
 5562TIP3    H238178   1.433   1.147  12.291 -0.1211 -0.3039 -0.3247
 5563TIP3   OH238179   3.587   2.045   5.165 -0.6039  0.5400 -0.0763
 5563TIP3    H138180   3.578   2.096   5.246 -0.1469  1.6918 -0.7237
 5563TIP3    H238181   3.643   2.099   5.109  0.0785 -0.7838 -0.7198
 5564TIP3   OH238182   1.695   4.455   1.870 -0.2042 -0.4020 -0.1144
 5564TIP3    H138183   1.620   4.494   1.914 -0.6884 -0.4488 -0.8768
 5564TIP3    H238184   1.657   4.395   1.806  0.5204 -1.7526  0.6798
 5565TIP3   OH238185   3.415   1.010   5.802  0.3785  0.0946  0.2965
 5565TIP3    H138186   3.490   1.031   5.748 -0.1495 -0.9077 -0.8698
 5565TIP3    H238187   3.347   0.982   5.741 -1.0027  1.0954  1.3076
 5566TIP3   OH238188   3.613   3.608   2.022 -0.2290 -0.4065  0.3663
 5566TIP3    H138189   3.639   3.585   1.932 -0.5099  0.7040 -0.0193
 5566TIP3    H238190   3.680   3.670   2.051 -0.3463 -0.4734  0.7823
 5567TIP3   OH238191   4.923   0.641  12.802  0.4574 -0.1939  0.1096
 5567TIP3    H138192   4.915   0.557  12.847 -0.0043 -0.1896  0.0414
 5567TIP3    H238193   5.000   0.682  12.842 -1.0088  0.6369  2.2734
 5568TIP3   OH238194   6.028   4.336  12.045  0.0733 -0.2593  0.7943
 5568TIP3    H138195   5.932   4.343  12.051 -0.1577 -1.0266 -1.2767
 5568TIP3    H238196   6.047   4.343  11.951  2.0875  0.1595  1.1914
 5569TIP3   OH238197   1.307   0.215  15.949 -0.0550 -0.5185 -0.2304
 5569TIP3    H138198   1.341   0.162  16.021 -1.0758  0.2230  0.8454
 5569TIP3    H238199   1.321   0.162  15.871 -0.0816 -1.9115  0.6792
 5570TIP3   OH238200   3.966   4.941  16.245  0.0242  0.0558 -0.3342
 5570TIP3    H138201   3.978   4.846  16.251 -3.7399 -0.5764 -0.2683
 5570TIP3    H238202   3.954   4.969  16.336  0.8352  0.5637 -0.3785
 5571TIP3   OH238203   0.314   6.161  11.677 -0.1364  0.5476  0.0966
 5571TIP3    H138204   0.228   6.191  11.704 -0.1984 -0.6251  1.3311
 5571TIP3    H238205   0.376   6.213  11.728 -0.1932 -0.0911  0.8373
 5572TIP3   OH238206   6.234   5.195  12.381 -0.0561  0.1063 -0.2924
 5572TIP3    H138207   6.298   5.125  12.368 -0.2995 -1.1003  3.5363
 5572TIP3    H238208   6.181   5.195  12.302  1.8969 -1.8982 -1.7150
 5573TIP3   OH238209   6.560   0.580   1.268 -0.2329  0.6268  0.6444
 5573TIP3    H138210   6.581   0.515   1.336 -1.2947  0.4919  0.8557
 5573TIP3    H238211   6.530   0.528   1.194 -1.5428  0.8753  0.9778
 5574TIP3   OH238212   1.355   1.366   2.655  0.1485  0.3650 -0.1875
 5574TIP3    H138213   1.323   1.455   2.645 -0.3187  0.5872  2.4530
 5574TIP3    H238214   1.340   1.345   2.748  2.7210 -1.4682 -0.0644
 5575TIP3   OH238215   5.093   5.785   4.301  0.4193 -0.1910 -0.2579
 5575TIP3    H138216   5.019   5.730   4.327  0.1565  0.0291 -0.5306
 5575TIP3    H238217   5.157   5.723   4.267  0.7030 -0.4685  0.7336
 5576TIP3   OH238218   1.874   0.893  14.272 -0.4221  0.1664  0.0049
 5576TIP3    H138219   1.794   0.844  14.251 -0.1823 -0.3164  0.2057
 5576TIP3    H238220   1.863   0.976  14.227 -2.4910  1.4325  2.5857
 5577TIP3   OH238221   3.873   2.438  12.345  0.4713  0.3600  0.3696
 5577TIP3    H138222   3.947   2.437  12.284  0.6775  0.5734  0.6096
 5577TIP3    H238223   3.796   2.420  12.291  0.8884 -1.6210  0.3802
 5578TIP3   OH238224   5.496   3.286  11.636 -0.3214  0.2170  0.5931
 5578TIP3    H138225   5.405   3.256  11.645 -0.5691  0.6135 -0.4524
 5578TIP3    H238226   5.533   3.277  11.724 -0.9784 -1.2115  0.7501
 5579TIP3   OH238227   3.852   5.809  15.395  0.0169  0.6318  0.2116
 5579TIP3    H138228   3.915   5.780  15.461  1.4975  0.4016 -1.2398
 5579TIP3    H238229   3.844   5.735  15.335 -0.8312  1.0461 -0.1985
 5580TIP3   OH238230   4.698   5.532   0.380  0.0589  0.3416 -0.3351
 5580TIP3    H138231   4.608   5.544   0.349 -0.1370  2.1669  0.7920
 5580TIP3    H238232   4.702   5.440   0.407 -1.4507  0.2297 -0.4061
 5581TIP3   OH238233   5.618   4.527  13.997 -0.4038  0.4009 -0.4225
 5581TIP3    H138234   5.570   4.552  14.076  2.7312  1.6013  1.2770
 5581TIP3    H238235   5.575   4.447  13.967 -1.8744  0.0213  2.3579
 5582TIP3   OH238236   3.526   1.575   4.243  0.6956 -0.3651  0.4213
 5582TIP3    H138237   3.618   1.581   4.267  0.7928  0.4174 -0.0930
 5582TIP3    H238238   3.483   1.644   4.294  0.8318  1.0045 -1.2237
 5583TIP3   OH238239   1.597   2.235  15.358 -0.2763 -0.7635  0.1866
 5583TIP3    H138240   1.582   2.224  15.264  1.2572 -0.3275 -0.1453
 5583TIP3    H238241   1.681   2.282  15.363 -0.4096 -0.6457  1.7722
 5584TIP3   OH238242   4.234   4.921  13.702  0.2784 -0.3831  0.0088
 5584TIP3    H138243   4.306   4.929  13.640 -1.5393 -1.5472 -2.4317
 5584TIP3    H238244   4.205   5.011  13.717  0.4480 -0.0978 -1.2628
 5585TIP3   OH238245   1.932   6.600  15.225  0.0225  0.2853  0.1288
 5585TIP3    H138246   2.026   6.582  15.228 -0.1503 -0.6228  0.3747
 5585TIP3    H238247   1.896   6.528  15.174 -0.7052 -0.1337  1.2105
 5586TIP3   OH238248   0.852   3.537   4.338 -0.1620  0.1939 -0.0100
 5586TIP3    H138249   0.762   3.566   4.351  0.3692  1.5494  0.7988
 5586TIP3    H238250   0.905   3.601   4.385  1.3347  0.3112 -1.7441
 5587TIP3   OH238251   6.032   2.160  11.487 -0.0356 -0.2172  0.1329
 5587TIP3    H138252   6.012   2.237  11.540 -0.5928  0.4440 -1.0117
 5587TIP3    H238253   6.075   2.194  11.409 -0.1498 -1.0797 -0.3225
 5588TIP3   OH238254   3.361   6.561   2.272  0.4550  0.2162  0.3688
 5588TIP3    H138255   3.371   6.466   2.268 -0.0945  0.1494  0.5408
 5588TIP3    H238256   3.382   6.584   2.362  1.3092  0.3482  0.1420
 5589TIP3   OH238257   0.136   1.613   5.957 -0.4998  0.1400 -0.1969
 5589TIP3    H138258   0.101   1.573   6.036  1.1656 -0.5406  0.2389
 5589TIP3    H238259   0.200   1.550   5.925 -0.1821  1.0150 -1.3469
 5590TIP3   OH238260   3.551   1.095   1.060  0.1908  0.3187  0.8078
 5590TIP3    H138261   3.504   1.020   1.023 -0.1334  0.2123  1.4120
 5590TIP3    H238262   3.639   1.089   1.023  0.1349 -0.2999  0.7598
 5591TIP3   OH238263   2.105   5.029   0.335  0.4311 -0.2347  0.2047
 5591TIP3    H138264   2.124   5.002   0.425 -2.1278  0.0209  0.8854
 5591TIP3    H238265   2.123   5.123   0.334  1.0059 -0.3358  0.2559
 5592TIP3   OH238266   4.182   1.669  13.547  0.1325 -0.6714 -0.0816
 5592TIP3    H138267   4.182   1.724  13.468 -0.9237 -1.7446 -0.8655
 5592TIP3    H238268   4.239   1.716  13.608 -0.0036  0.8281 -1.0308
 5593TIP3   OH238269   0.270   3.454   2.469  0.3415 -0.0183 -0.0135
 5593TIP3    H138270   0.194   3.507   2.446  1.6612  1.1742 -1.9228
 5593TIP3    H238271   0.266   3.379   2.411 -0.4579 -1.0700  1.3370
 5594TIP3   OH238272   0.953   5.665   3.989  0.0527 -0.3379 -0.4486
 5594TIP3    H138273   0.953   5.731   3.919  0.3117 -1.1363 -1.2264
 5594TIP3    H238274   0.861   5.650   4.008 -0.0321 -0.3625 -0.8660
 5595TIP3   OH238275   6.214   2.404  11.488 -0.5919  0.3661  0.5747
 5595TIP3    H138276   6.220   2.391  11.393  1.4035 -0.4101  0.7396
 5595TIP3    H238277   6.278   2.473  11.507 -0.3577 -0.0725  1.4390
 5596TIP3   OH238278   4.624   0.824   2.948 -0.2561 -0.7679  0.0898
 5596TIP3    H138279   4.621   0.910   2.991 -0.0791 -0.2749 -0.8727
 5596TIP3    H238280   4.637   0.843   2.855 -0.0631 -1.8438 -0.1213
 5597TIP3   OH238281   0.449   3.699  10.451  0.1641  0.0427 -0.5324
 5597TIP3    H138282   0.515   3.764  10.477 -1.6207  2.3634 -1.4463
 5597TIP3    H238283   0.484   3.616  10.483  3.1133  1.2479 -0.2659
 5598TIP3   OH238284   4.545   4.855  15.369  0.2225  0.4147 -0.4191
 5598TIP3    H138285   4.533   4.760  15.369  1.4788  0.2399 -0.1626
 5598TIP3    H238286   4.523   4.881  15.280  0.7176 -0.2444 -0.7484
 5599TIP3   OH238287   2.366   1.005  16.705  0.7821  0.1559 -0.3464
 5599TIP3    H138288   2.434   0.949  16.668  1.2718 -0.2829  1.1745
 5599TIP3    H238289   2.320   1.041  16.628  0.9867 -1.6483 -1.3570
 5600TIP3   OH238290   2.793   5.471  13.083 -0.2700 -0.3060 -0.3184
 5600TIP3    H138291   2.713   5.521  13.100 -1.4062 -1.5212 -1.7898
 5600TIP3    H238292   2.862   5.519  13.129 -1.7836  0.9641  0.7160
 5601TIP3   OH238293   2.064   0.150  14.725 -0.4562  0.2585  0.0371
 5601TIP3    H138294   2.033   0.233  14.689 -3.3344  0.1270  1.8739
 5601TIP3    H238295   2.159   0.159  14.727 -0.6346  3.3199 -0.2642
 5602TIP3   OH238296   0.437   6.452   0.265 -0.3012 -0.3914  0.5152
 5602TIP3    H138297   0.351   6.410   0.275 -0.2793 -0.6872 -0.5120
 5602TIP3    H238298   0.496   6.380   0.242 -0.3808  0.2406 -1.9226
 5603TIP3   OH238299   4.283   1.236  13.294  0.6578  0.0845 -0.4665
 5603TIP3    H138300   4.212   1.233  13.357 -0.8428 -1.9918 -2.1464
 5603TIP3    H238301   4.293   1.330  13.274 -1.0955  0.4763  0.3391
 5604TIP3   OH238302   3.209   4.563   4.423 -0.5649 -0.3489  0.4717
 5604TIP3    H138303   3.147   4.518   4.367 -0.6153 -1.8736  1.6781
 5604TIP3    H238304   3.160   4.637   4.460 -1.4619 -1.1255  0.8606
 5605TIP3   OH238305   5.599   3.849   1.969  0.2094  0.3022 -0.2061
 5605TIP3    H138306   5.588   3.829   1.876 -1.2809  2.0012 -0.4502
 5605TIP3    H238307   5.674   3.908   1.971  0.7365 -0.3578 -0.2223
 5606TIP3   OH238308   4.090   6.276   0.404  0.1856 -0.4766 -0.3688
 5606TIP3    H138309   4.171   6.229   0.425  1.7029  1.0263 -2.3687
 5606TIP3    H238310   4.022   6.231   0.454  2.2071 -1.9194  1.2787
 5607TIP3   OH238311   4.499   2.800   0.776 -0.1636  0.2473  0.5831
 5607TIP3    H138312   4.406   2.808   0.754 -0.6902 -0.4145  2.3718
 5607TIP3    H238313   4.535   2.743   0.708 -1.2342 -0.0959  0.2779
 5608TIP3   OH238314   3.895   0.091   4.006 -0.1347  0.5326 -0.6406
 5608TIP3    H138315   3.913   0.052   3.920 -0.1626 -3.7192  1.0029
 5608TIP3    H238316   3.801   0.111   4.003  0.0652  1.3995 -1.8931
 5609TIP3   OH238317   0.040   5.159  11.326  0.0854 -0.0205 -0.1686
 5609TIP3    H138318   0.109   5.194  11.382 -1.3062  1.1668  0.8921
 5609TIP3    H238319  -0.009   5.236  11.297  0.5554 -0.6148 -2.8344
 5610TIP3   OH238320   5.672   3.058  15.440  0.3027 -0.1091  0.0824
 5610TIP3    H138321   5.660   3.108  15.360  3.6191  0.3535 -0.2683
 5610TIP3    H238322   5.599   3.084  15.496 -0.2080  2.1551 -1.5244
 5611TIP3   OH238323   5.955   4.680  13.247  0.7753 -0.6424 -0.5749
 5611TIP3    H138324   5.896   4.617  13.207 -1.4783  0.8935  0.1592
 5611TIP3    H238325   5.994   4.726  13.172  1.0310 -1.6370 -1.0692
 5612TIP3   OH238326   0.901   5.934   6.076  0.4494  0.4239  0.1953
 5612TIP3    H138327   0.946   6.004   6.124  1.0405  0.8058 -0.8766
 5612TIP3    H238328   0.944   5.853   6.104  0.9779  0.6712  0.1083
 5613TIP3   OH238329   0.426   4.212  16.413 -0.3655  0.1310  0.0333
 5613TIP3    H138330   0.505   4.186  16.459 -1.1739  0.1593  1.4973
 5613TIP3    H238331   0.364   4.234  16.483 -1.8953 -0.5616 -1.0522
 5614TIP3   OH238332   4.906   6.084   4.541 -0.5432  0.3835  0.6363
 5614TIP3    H138333   4.829   6.034   4.569 -0.5514  0.2252  0.3441
 5614TIP3    H238334   4.906   6.075   4.445  0.7582 -0.9972  0.7187
 5615TIP3   OH238335   5.169   4.759   5.505  0.1528  0.6375  0.3125
 5615TIP3    H138336   5.138   4.830   5.449  2.0360  1.0011 -0.3637
 5615TIP3    H238337   5.172   4.682   5.447 -0.5026  0.3409  0.6604
 5616TIP3   OH238338   4.885   5.119   1.731 -0.1898 -0.0602 -0.0653
 5616TIP3    H138339   4.896   5.171   1.811  0.7038 -1.4319  0.7507
 5616TIP3    H238340   4.806   5.154   1.690  0.4591  2.0329  0.3370
 5617TIP3   OH238341   3.060   0.580  11.200 -0.0410 -1.1445  0.5760
 5617TIP3    H138342   3.030   0.550  11.114 -0.8540  0.0248  0.4243
 5617TIP3    H238343   3.133   0.639  11.180 -1.4612  0.6535  0.5216
 5618TIP3   OH238344   5.461   5.410  14.091  0.2163 -0.0842 -0.5862
 5618TIP3    H138345   5.399   5.452  14.031 -1.6687  1.0381  1.9444
 5618TIP3    H238346   5.501   5.340  14.040 -2.7702 -0.5252 -2.5554
 5619TIP3   OH238347   3.854   6.573   2.644  0.6851 -0.1962  0.2089
 5619TIP3    H138348   3.935   6.527   2.624  0.4219 -0.4270 -0.3661
 5619TIP3    H238349   3.866   6.607   2.732  1.1324 -0.8329  0.3999
 5620TIP3   OH238350   2.702   2.459  14.018  0.3738  0.2212  0.0918
 5620TIP3    H138351   2.678   2.551  14.024  0.6923  0.3534 -0.5182
 5620TIP3    H238352   2.619   2.411  14.015  0.1886  0.5933 -1.0058
 5621TIP3   OH238353   4.907   0.794  16.358 -0.1803  0.3831  0.1028
 5621TIP3    H138354   4.952   0.716  16.393 -0.5308 -0.3898 -1.1120
 5621TIP3    H238355   4.887   0.846  16.436  1.0959 -0.1689  0.8539
 5622TIP3   OH238356   6.244   2.770   5.278  0.2279 -0.2858 -0.1874
 5622TIP3    H138357   6.267   2.759   5.370  1.1902 -0.4291 -0.4362
 5622TIP3    H238358   6.214   2.861   5.271  1.0592  0.0263  0.0976
 5623TIP3   OH238359   6.459   1.595  16.074  0.3791  0.5804 -0.4304
 5623TIP3    H138360   6.379   1.566  16.118 -0.0805  2.5343  0.1215
 5623TIP3    H238361   6.428   1.651  16.004  1.2307 -0.1366 -1.4009
 5624TIP3   OH238362   0.316   3.216   1.779 -0.1609 -0.0937  0.4017
 5624TIP3    H138363   0.398   3.194   1.734 -0.8108  0.0945 -0.9399
 5624TIP3    H238364   0.275   3.131   1.797 -0.6154 -0.1470 -0.7951
 5625TIP3   OH238365   1.992   6.764   2.202 -0.4721  0.4637 -0.0703
 5625TIP3    H138366   2.084   6.743   2.221 -1.1278 -0.7989  2.0370
 5625TIP3    H238367   1.987   6.859   2.213  0.5548  0.5457 -0.1862
 5626TIP3   OH238368   1.751   1.787  11.269  0.0033 -0.0400  0.6472
 5626TIP3    H138369   1.711   1.869  11.240  1.2357  0.0530 -0.9572
 5626TIP3    H238370   1.687   1.749  11.329 -2.1682  0.4267 -1.2079
 5627TIP3   OH238371   3.340   0.074  16.593 -0.4661  0.0074  0.7957
 5627TIP3    H138372   3.395   0.037  16.525  0.9338  1.0450  1.3282
 5627TIP3    H238373   3.323   0.002  16.653 -1.2067 -0.7602 -0.3084
 5628TIP3   OH238374   2.425   6.127  12.219  0.3666  0.3117 -0.3571
 5628TIP3    H138375   2.470   6.169  12.292  1.4450  1.7984 -1.7896
 5628TIP3    H238376   2.339   6.169  12.215  0.2283  0.0852  0.1476
 5629TIP3   OH238377   0.253   1.509  11.643  0.9089  0.3982 -0.0667
 5629TIP3    H138378   0.209   1.485  11.725  2.0332 -2.6478 -0.2302
 5629TIP3    H238379   0.337   1.547  11.671  1.7534 -1.6053  0.2705
 5630TIP3   OH238380   4.264   0.825   5.410  0.1854 -0.5037 -0.5472
 5630TIP3    H138381   4.251   0.837   5.316 -0.3042 -0.7851 -0.5213
 5630TIP3    H238382   4.344   0.873   5.430  0.4230 -0.6414 -1.1517
 5631TIP3   OH238383   2.116   4.981   1.990 -0.2440  0.1552 -0.3210
 5631TIP3    H138384   2.149   4.915   2.051 -0.1316  0.6210  0.1275
 5631TIP3    H238385   2.130   4.943   1.903 -2.3650 -1.4735 -0.0370
 5632TIP3   OH238386   0.563   6.763   1.930  0.1317 -0.0038 -0.2299
 5632TIP3    H138387   0.562   6.859   1.935 -1.6310 -0.0619  2.1187
 5632TIP3    H238388   0.491   6.735   1.986  0.9666 -2.7423 -0.3691
 5633TIP3   OH238389   5.065   0.044  13.162 -0.0557 -0.0105 -0.2394
 5633TIP3    H138390   5.020   0.125  13.186 -2.4459 -1.0634 -0.9028
 5633TIP3    H238391   5.088   0.056  13.070  1.0260  0.4859  0.0727
 5634TIP3   OH238392   4.151   1.548  13.063  0.1162  0.3521  0.2733
 5634TIP3    H138393   4.067   1.586  13.039 -1.5237 -2.4848  1.0613
 5634TIP3    H238394   4.150   1.545  13.158  1.0660  0.1483  0.2914
 5635TIP3   OH238395   2.003   2.866   1.148  0.1903  0.3495 -0.4653
 5635TIP3    H138396   1.973   2.806   1.080 -0.7941  0.4661 -0.1542
 5635TIP3    H238397   1.929   2.925   1.163  0.3088  0.1950  0.8505
 5636TIP3   OH238398   5.727   3.658  14.528 -0.2519 -0.0789  0.2037
 5636TIP3    H138399   5.781   3.677  14.451  0.5666 -1.9298  0.2556
 5636TIP3    H238400   5.790   3.656  14.601 -0.6295 -0.7328  0.5178
 5637TIP3   OH238401   6.703   3.984  13.406  0.3363  0.2218  0.2028
 5637TIP3    H138402   6.746   4.068  13.386 -1.2792  1.1476  0.4466
 5637TIP3    H238403   6.677   3.991  13.498  0.8661 -0.8896  0.4592
 5638TIP3   OH238404   3.491   5.076  12.601  0.4750  0.1429  0.0477
 5638TIP3    H138405   3.449   5.159  12.622 -0.7748  0.0016 -1.6570
 5638TIP3    H238406   3.432   5.009  12.636 -0.6760 -0.0485 -2.0652
 5639TIP3   OH238407   4.244   0.627   2.754  0.6975  0.1884 -0.7726
 5639TIP3    H138408   4.149   0.625   2.750  0.6846  1.2080 -1.3100
 5639TIP3    H238409   4.267   0.719   2.744  1.6658  0.2361  1.3610
 5640TIP3   OH238410   3.209   0.444   0.828  0.0689 -0.3861 -0.7913
 5640TIP3    H138411   3.208   0.531   0.788  2.2596  0.0926  0.0423
 5640TIP3    H238412   3.139   0.396   0.784 -1.2676  1.8167 -1.1944
 5641TIP3   OH238413   1.739   0.929   6.226  0.2591 -0.5561  0.3178
 5641TIP3    H138414   1.743   0.854   6.285  0.8408 -0.9024 -0.1523
 5641TIP3    H238415   1.831   0.952   6.210  0.1036 -0.2823 -0.2183
 5642TIP3   OH238416   0.993   4.994  16.247 -0.2338 -0.3471  0.0905
 5642TIP3    H138417   1.059   5.062  16.263 -0.4638 -0.0425 -0.2344
 5642TIP3    H238418   1.031   4.942  16.176 -0.4909  0.0438 -0.3452
 5643TIP3   OH238419   2.369   5.678  12.453 -0.3910  0.1010 -0.0258
 5643TIP3    H138420   2.331   5.708  12.371 -0.9426 -0.4651  0.0186
 5643TIP3    H238421   2.325   5.730  12.520  0.8366  1.3547 -0.1307
 5644TIP3   OH238422   1.491   6.040  11.587  0.3670 -0.0464 -0.0077
 5644TIP3    H138423   1.505   6.077  11.499 -0.5788  0.5433  0.0722
 5644TIP3    H238424   1.412   5.988  11.579  0.1706  0.1564  0.5315
 5645TIP3   OH238425   0.749   5.634  15.152  0.3698  0.0155  0.4481
 5645TIP3    H138426   0.666   5.665  15.116  0.1125 -0.4480  0.6242
 5645TIP3    H238427   0.794   5.596  15.076 -0.0948 -0.7974  0.5557
 5646TIP3   OH238428   5.097   0.717  13.175 -0.2304 -0.0011 -0.2988
 5646TIP3    H138429   5.173   0.746  13.225  0.3074 -2.4345  0.4066
 5646TIP3    H238430   5.114   0.749  13.086 -0.4750  3.0639  0.6260
 5647TIP3   OH238431   3.558   0.745  13.069 -0.4831 -0.5736  0.4045
 5647TIP3    H138432   3.492   0.799  13.111 -2.1936 -1.8032 -0.5854
 5647TIP3    H238433   3.640   0.793  13.081 -1.5462  1.0317  1.6044
 5648TIP3   OH238434   2.742   0.578   2.132  0.1746  0.4627  0.3420
 5648TIP3    H138435   2.660   0.531   2.120  1.4168 -1.9219  0.4336
 5648TIP3    H238436   2.742   0.604   2.224 -1.6753  3.0770 -0.3148
 5649TIP3   OH238437   1.871   0.437   1.392 -0.3274 -0.2096  0.2002
 5649TIP3    H138438   1.784   0.436   1.353  0.4848 -1.3100 -1.7243
 5649TIP3    H238439   1.859   0.396   1.478 -1.7711  0.1220  0.1802
 5650TIP3   OH238440   5.503   2.280   4.887  0.5511  0.4999  0.2244
 5650TIP3    H138441   5.475   2.235   4.967  0.1351  0.3778  0.0085
 5650TIP3    H238442   5.427   2.330   4.859  0.5199  0.0955 -0.4134
 5651TIP3   OH238443   4.257   6.309   5.146 -0.1155  0.5846 -0.4271
 5651TIP3    H138444   4.226   6.382   5.199 -0.7434 -0.0223  0.0511
 5651TIP3    H238445   4.231   6.332   5.056 -1.7913  0.2059 -0.0734
 5652TIP3   OH238446   3.064   5.510  15.690 -0.2400 -0.3035 -0.4684
 5652TIP3    H138447   2.976   5.512  15.651 -0.5666 -1.9945  0.1026
 5652TIP3    H238448   3.050   5.482  15.781  0.8736 -0.4786 -0.3319
 5653TIP3   OH238449   0.273   3.211   2.274  0.1471 -0.1790  0.2162
 5653TIP3    H138450   0.232   3.134   2.313 -1.7568  0.9854  0.6723
 5653TIP3    H238451   0.230   3.220   2.189 -0.2371  0.8154  0.5039
 5654TIP3   OH238452   2.366   0.152   2.804 -0.1385 -0.6698 -0.2529
 5654TIP3    H138453   2.360   0.174   2.711 -0.1184  1.0235  0.1197
 5654TIP3    H238454   2.446   0.196   2.834 -1.2318  0.5571  0.9995
 5655TIP3   OH238455   2.521   1.928  16.046  0.2364  0.0312 -0.0673
 5655TIP3    H138456   2.537   1.843  16.086  0.0528  0.6394  1.3644
 5655TIP3    H238457   2.434   1.919  16.006 -0.1364 -0.2181  0.7716
 5656TIP3   OH238458   2.050   5.078  10.726  0.1514  0.2878 -0.2105
 5656TIP3    H138459   2.023   5.045  10.640 -2.7654  1.0167  0.2889
 5656TIP3    H238460   1.990   5.151  10.742  0.9815  0.5088  2.2222
 5657TIP3   OH238461   1.933   1.834  12.626 -0.4065 -0.3139 -0.2139
 5657TIP3    H138462   1.872   1.894  12.667 -0.2537 -0.3630  0.0889
 5657TIP3    H238463   1.897   1.747  12.643  0.2234 -0.4026  0.7833
 5658TIP3   OH238464   1.683   2.054  11.153  0.2479 -0.0169 -0.1188
 5658TIP3    H138465   1.591   2.051  11.125  0.1566  2.2612 -0.2952
 5658TIP3    H238466   1.728   2.095  11.080  0.4522  3.6799  1.8122
 5659TIP3   OH238467   2.053   4.686   5.661 -0.2696  0.0338 -0.0712
 5659TIP3    H138468   2.133   4.679   5.608 -0.2360  1.4734 -0.2467
 5659TIP3    H238469   1.999   4.612   5.632 -1.6076  2.3983 -4.5594
 5660TIP3   OH238470   0.851   1.988   1.621  0.0536  0.6280  0.4280
 5660TIP3    H138471   0.916   1.971   1.553  0.6788 -0.8674  1.3662
 5660TIP3    H238472   0.767   1.969   1.578  0.3342  1.0070 -0.3086
 5661TIP3   OH238473   2.880   3.214  16.170 -0.2001  0.6629 -0.0732
 5661TIP3    H138474   2.798   3.219  16.121  0.4092 -0.9344 -1.3934
 5661TIP3    H238475   2.854   3.220  16.262 -1.6908  1.0550 -0.4893
 5662TIP3   OH238476   1.160   5.230  16.339 -0.0962  0.2775 -0.0871
 5662TIP3    H138477   1.249   5.207  16.311 -0.8687 -0.7903 -1.8803
 5662TIP3    H238478   1.152   5.323  16.320 -0.3536 -0.2463 -3.1003
 5663TIP3   OH238479   6.258   6.121  16.990  0.2370 -0.0472  0.0552
 5663TIP3    H138480   6.219   6.192  17.039 -1.7301 -1.0150 -0.0260
 5663TIP3    H238481   6.314   6.164  16.925  0.0609  1.3515  0.8014
 5664TIP3   OH238482   6.461   4.696  15.123 -0.2096  0.1901 -0.1141
 5664TIP3    H138483   6.513   4.675  15.046  1.4176  2.0478  0.3926
 5664TIP3    H238484   6.443   4.611  15.163  0.9495 -0.6510 -1.2751
 5665TIP3   OH238485   3.437   4.676  13.267  0.1724  0.1337  0.2666
 5665TIP3    H138486   3.350   4.638  13.282  0.9093 -0.9128  2.3607
 5665TIP3    H238487   3.443   4.748  13.330  1.4765 -1.0343  1.5544
 5666TIP3   OH238488   3.049   1.190  11.571 -0.0058 -0.1148  0.3451
 5666TIP3    H138489   3.117   1.233  11.622  0.0494 -2.4846  2.4674
 5666TIP3    H238490   3.078   1.198  11.480  1.4982  1.5453  0.9171
 5667TIP3   OH238491   0.309   4.020   1.029  0.6712 -0.5107  0.8665
 5667TIP3    H138492   0.256   3.940   1.024  1.2746 -0.8689 -0.2634
 5667TIP3    H238493   0.266   4.074   1.095  0.1859 -1.7231  1.5615
 5668TIP3   OH238494   3.537   5.132  15.823  0.3431  0.3027  0.2508
 5668TIP3    H138495   3.524   5.197  15.755 -1.2918  0.3935  0.6088
 5668TIP3    H238496   3.547   5.049  15.776  0.0077  0.4721 -0.1209
 5669TIP3   OH238497   3.386   2.695   3.264  0.5921 -0.0410  0.2148
 5669TIP3    H138498   3.359   2.787   3.272 -1.3211 -0.3017 -2.2046
 5669TIP3    H238499   3.481   2.698   3.277  0.2512  1.7037  3.6492
 5670TIP3   OH238500   1.936   0.760  10.759  0.1036  0.7728  0.2254
 5670TIP3    H138501   1.884   0.792  10.686  0.6932 -0.9982 -1.0241
 5670TIP3    H238502   2.027   0.780  10.734  0.5473 -2.1418 -0.8473
 5671TIP3   OH238503   2.389   2.104  15.179 -0.0231 -0.4659 -0.6728
 5671TIP3    H138504   2.362   2.099  15.271  2.7419 -0.5243  0.2412
 5671TIP3    H238505   2.345   2.182  15.145 -1.1035 -0.4530  0.6908
 5672TIP3   OH238506   6.238   3.877   4.597 -0.3689  0.3249 -0.6429
 5672TIP3    H138507   6.241   3.907   4.688  0.3847 -2.3770  0.2984
 5672TIP3    H238508   6.153   3.907   4.565 -0.4741  1.6763  0.7976
 5673TIP3   OH238509   1.095   2.754  13.879 -0.0397 -0.1138  0.1894
 5673TIP3    H138510   1.061   2.843  13.881 -0.4879 -0.2809  0.1462
 5673TIP3    H238511   1.024   2.702  13.840 -0.2115 -0.6806  1.2415
 5674TIP3   OH238512   4.099   1.707  15.048 -0.6974  0.1210  0.0792
 5674TIP3    H138513   4.044   1.702  15.126  0.0146 -0.9303  0.5435
 5674TIP3    H238514   4.047   1.668  14.979 -1.2815  0.9317  0.0522
 5675TIP3   OH238515   6.253   5.743   0.053  0.1145  0.6777  0.1376
 5675TIP3    H138516   6.225   5.671   0.110  1.2520  0.2534  0.1998
 5675TIP3    H238517   6.185   5.810   0.063  0.2371  0.5826  1.9520
 5676TIP3   OH238518   1.614   2.620   2.867  0.1064  0.4432 -0.3593
 5676TIP3    H138519   1.685   2.680   2.843 -0.7185  0.9051 -1.7241
 5676TIP3    H238520   1.544   2.677   2.900  0.1356  0.0289  0.4653
 5677TIP3   OH238521   1.686   5.323   3.899 -0.1772  0.0517 -0.0479
 5677TIP3    H138522   1.697   5.382   3.825  0.6469 -0.0089  0.0155
 5677TIP3    H238523   1.693   5.235   3.862  0.6687  0.0272  0.1594
 5678TIP3   OH238524   3.153   1.001   3.594  0.2374 -0.1356  0.1205
 5678TIP3    H138525   3.140   1.095   3.584 -1.6014 -0.3282  0.3988
 5678TIP3    H238526   3.162   0.987   3.688 -1.3199 -0.4183  0.2476
 5679TIP3   OH238527   6.040   5.963   0.638  0.0997  0.5020 -0.1321
 5679TIP3    H138528   5.954   5.927   0.658  0.9596 -1.2773  0.6208
 5679TIP3    H238529   6.069   6.003   0.720  1.1379 -1.4869  0.5482
 5680TIP3   OH238530   0.161   3.103  15.157 -0.0479 -0.0147  0.1317
 5680TIP3    H138531   0.125   3.046  15.225 -1.7392  1.3468  0.4463
 5680TIP3    H238532   0.084   3.132  15.107  0.7375  1.9369 -0.0288
 5681TIP3   OH238533   4.068   3.216  12.393 -0.0716 -0.4691  0.9142
 5681TIP3    H138534   4.004   3.194  12.326  2.0290  1.5201 -1.9852
 5681TIP3    H238535   4.042   3.304  12.422  0.8205  0.0088  0.3091
 5682TIP3   OH238536   3.219   2.803   0.961 -0.5453 -0.2933  0.2270
 5682TIP3    H138537   3.167   2.830   1.037 -0.8639  1.0664 -0.4536
 5682TIP3    H238538   3.305   2.781   0.997 -1.1285 -1.1571  1.1695
 5683TIP3   OH238539   1.249   3.374   3.687  0.2685  0.0975  0.2547
 5683TIP3    H138540   1.192   3.359   3.763 -0.9026 -1.7638 -0.9145
 5683TIP3    H238541   1.315   3.305   3.693  0.3739  0.1551 -0.2422
 5684TIP3   OH238542   1.701   4.087  11.454  0.2150 -0.1415 -0.3938
 5684TIP3    H138543   1.780   4.034  11.437  0.3088 -0.3111  0.4958
 5684TIP3    H238544   1.650   4.034  11.515  0.1957  0.6849  0.3276
 5685TIP3   OH238545   6.283   5.754   4.626 -0.5178 -0.1738 -0.0138
 5685TIP3    H138546   6.252   5.665   4.640 -1.5500  0.4490  1.9816
 5685TIP3    H238547   6.306   5.757   4.533 -0.1058 -2.6057 -0.0510
 5686TIP3   OH238548   3.353   1.138  11.158  0.2429  0.1208 -0.7001
 5686TIP3    H138549   3.316   1.065  11.109 -0.8632  0.6341 -0.6505
 5686TIP3    H238550   3.376   1.203  11.092 -0.4806  0.4722 -0.6159
 5687TIP3   OH238551   0.429   1.352   1.205 -0.1043 -0.7011 -0.1084
 5687TIP3    H138552   0.472   1.437   1.211 -0.3762 -0.6048  0.5916
 5687TIP3    H238553   0.466   1.311   1.127  0.3250 -0.1066 -0.2191
 5688TIP3   OH238554   5.146   0.020   1.331  0.1041  0.2380 -0.3274
 5688TIP3    H138555   5.225  -0.004   1.283  0.5036  0.6431  0.1076
 5688TIP3    H238556   5.177   0.035   1.421 -0.3105  1.2518 -0.3428
 5689TIP3   OH238557   0.858   2.873   2.210 -0.6876  0.5151  0.1029
 5689TIP3    H138558   0.906   2.947   2.247 -0.2577  0.1759  0.2342
 5689TIP3    H238559   0.912   2.796   2.232 -0.4659  0.2915 -1.1635
 5690TIP3   OH238560   5.170   6.329   4.244  0.2853 -0.0215  0.1271
 5690TIP3    H138561   5.137   6.418   4.256  0.7567 -0.0515  1.9169
 5690TIP3    H238562   5.142   6.305   4.155 -0.0734  1.7957 -0.2946
 5691TIP3   OH238563   3.479   1.279  13.693 -0.3017 -0.4410  0.1653
 5691TIP3    H138564   3.444   1.224  13.623 -1.1335 -1.5690  1.4010
 5691TIP3    H238565   3.478   1.368  13.657  0.9923 -1.1790 -1.8552
 5692TIP3   OH238566   4.294   6.248   1.571  0.3629  0.2357  0.2928
 5692TIP3    H138567   4.355   6.317   1.544  0.5826 -0.6246 -1.5504
 5692TIP3    H238568   4.208   6.281   1.546  0.4074  0.1183 -0.0235
 5693TIP3   OH238569   6.793   1.550   4.559 -0.5141  0.5008  0.3274
 5693TIP3    H138570   6.773   1.469   4.511  0.2851  1.0339 -0.9324
 5693TIP3    H238571   6.869   1.527   4.612 -1.7807 -0.2807  1.9183
 5694TIP3   OH238572   0.030   2.842   2.780  0.3989  0.3374  0.0182
 5694TIP3    H138573   0.037   2.753   2.814  2.1868  0.8059  1.0200
 5694TIP3    H238574  -0.004   2.893   2.854  0.0498  0.6245 -0.3349
 5695TIP3   OH238575   1.288   0.053   3.627 -0.1694  0.4379  0.8474
 5695TIP3    H138576   1.296  -0.041   3.645  1.9041  0.8145  2.1762
 5695TIP3    H238577   1.321   0.095   3.706 -0.7359  2.3072  0.1316
 5696TIP3   OH238578   5.462   0.357   4.771 -0.1734  0.5558  0.0266
 5696TIP3    H138579   5.469   0.317   4.858  0.8819 -0.9837 -0.7345
 5696TIP3    H238580   5.369   0.376   4.761 -0.5521 -0.7525  0.8561
 5697TIP3   OH238581   2.278   1.337  15.945  0.3128  0.1025 -0.0832
 5697TIP3    H138582   2.208   1.348  16.010 -0.3379 -2.0588 -0.3303
 5697TIP3    H238583   2.287   1.423  15.904 -1.5044  0.6895  0.6645
 5698TIP3   OH238584   2.225   2.835   1.333  0.0572 -0.0487 -0.1317
 5698TIP3    H138585   2.159   2.857   1.267 -0.3265  2.6921  1.0392
 5698TIP3    H238586   2.181   2.849   1.417  1.6844  0.4760  0.6765
 5699TIP3   OH238587   2.459   6.388  14.838 -0.0102 -0.1646  0.3874
 5699TIP3    H138588   2.382   6.350  14.880 -0.3676 -0.3766 -0.4270
 5699TIP3    H238589   2.440   6.380  14.744  0.3104  1.2042  0.1965
 5700TIP3   OH238590   3.960   5.120  12.506  0.2745  0.2703 -0.0259
 5700TIP3    H138591   3.902   5.136  12.431  1.5921  0.8237 -0.9885
 5700TIP3    H238592   3.910   5.064  12.565 -1.0123  0.2785 -1.0713
 5701TIP3   OH238593   2.631   5.654   6.073  0.1227 -0.1409 -0.0548
 5701TIP3    H138594   2.703   5.686   6.127  1.4555  0.0336 -1.8770
 5701TIP3    H238595   2.565   5.723   6.076  0.9248  0.6275 -0.0763
 5702TIP3   OH238596   5.738   2.365  15.124  0.0184 -0.4361 -0.1496
 5702TIP3    H138597   5.801   2.416  15.073  0.6703 -0.8843  0.1907
 5702TIP3    H238598   5.709   2.426  15.193 -0.6382  0.0707 -0.8570
 5703TIP3   OH238599   1.331   3.690   0.950 -0.4611  0.0994 -0.2658
 5703TIP3    H138600   1.265   3.621   0.960 -1.1638  0.5870 -1.3987
 5703TIP3    H238601   1.281   3.771   0.947  0.3495  0.6913  0.9327
 5704TIP3   OH238602   0.561   6.550  16.596 -0.4628  0.0561 -0.0334
 5704TIP3    H138603   0.587   6.573  16.685 -0.6558  1.6165 -0.3619
 5704TIP3    H238604   0.483   6.603  16.579  0.0297  0.3765 -1.4085
 5705TIP3   OH238605   4.692   0.716  12.273  0.5923  0.5379 -0.4024
 5705TIP3    H138606   4.679   0.748  12.362 -0.0047 -2.2183  0.6353
 5705TIP3    H238607   4.761   0.650  12.282 -0.3601 -0.6873 -1.7013
 5706TIP3   OH238608   6.816   0.042  11.481 -0.8208 -0.0953  0.1037
 5706TIP3    H138609   6.821   0.131  11.515 -0.8270 -0.0605  0.0131
 5706TIP3    H238610   6.823   0.052  11.386 -2.1043 -0.0791 -0.0034
 5707TIP3   OH238611   5.866   0.342  16.838 -0.0140 -1.0125  0.3364
 5707TIP3    H138612   5.852   0.437  16.840  0.2994 -0.9712  1.4415
 5707TIP3    H238613   5.807   0.310  16.769  0.8122  0.1169 -0.9497
 5708TIP3   OH238614   5.007   3.039  12.057  0.0163  0.4985  0.3332
 5708TIP3    H138615   5.081   3.085  12.016 -0.0701  0.8498  0.5631
 5708TIP3    H238616   5.047   2.985  12.124  0.3380 -1.3250 -1.2343
 5709TIP3   OH238617   1.998   4.714  11.859 -0.1504  0.3642  0.6608
 5709TIP3    H138618   1.985   4.781  11.926 -0.3015  1.2849 -0.2670
 5709TIP3    H238619   1.935   4.737  11.790  1.2440  0.5057 -0.5985
 5710TIP3   OH238620   1.659   5.863  11.783  0.0100 -0.1164  0.7527
 5710TIP3    H138621   1.612   5.922  11.724  0.9206  0.8659  0.9706
 5710TIP3    H238622   1.591   5.822  11.835 -0.6850  0.4189  0.2850
 5711TIP3   OH238623   4.819   4.869  15.001 -0.0659  0.3267 -0.9251
 5711TIP3    H138624   4.756   4.805  15.035 -0.3890  2.3805  2.6910
 5711TIP3    H238625   4.901   4.820  14.995 -0.4888 -0.6780  0.9168
 5712TIP3   OH238626   5.385   1.610   3.193 -0.3665  0.4672 -0.4673
 5712TIP3    H138627   5.378   1.705   3.182  0.8131  0.7173  0.7339
 5712TIP3    H238628   5.376   1.575   3.104  1.5926  1.8597 -1.2780
 5713TIP3   OH238629   5.139   4.605   4.919 -0.1430 -0.1940  0.6055
 5713TIP3    H138630   5.192   4.644   4.989  0.2003  0.0399  0.2187
 5713TIP3    H238631   5.085   4.540   4.964  0.2995 -0.2685  1.0432
 5714TIP3   OH238632   3.643   1.346   5.138  0.4771  0.0237  0.4633
 5714TIP3    H138633   3.734   1.342   5.110 -0.3885 -0.5874 -2.5872
 5714TIP3    H238634   3.635   1.432   5.180  2.0313  0.9322 -0.9639
 5715TIP3   OH238635   4.828   1.796   2.121  0.0633 -0.0218  0.1268
 5715TIP3    H138636   4.764   1.734   2.154 -0.1097 -0.1846 -0.5093
 5715TIP3    H238637   4.850   1.765   2.033  0.0018  0.7902 -0.1863
 5716TIP3   OH238638   1.145   1.327  12.629 -0.7823 -0.4288  0.2933
 5716TIP3    H138639   1.200   1.402  12.654  0.2311 -0.8009 -0.7408
 5716TIP3    H238640   1.170   1.258  12.690 -0.0487 -0.6059 -0.1919
 5717TIP3   OH238641   2.695   1.984  13.173  0.3147 -0.2287  0.0856
 5717TIP3    H138642   2.619   2.002  13.228  0.4076  0.0968  0.1073
 5717TIP3    H238643   2.721   2.069  13.139 -0.7856 -0.5890 -1.8500
 5718TIP3   OH238644   4.865   0.859  16.637  0.3027 -0.5026 -0.2713
 5718TIP3    H138645   4.873   0.786  16.697  0.4724 -0.9354 -0.8074
 5718TIP3    H238646   4.771   0.877  16.632  0.2443 -0.8053 -0.2751
 5719TIP3   OH238647   0.051   4.584  15.316  0.1020  0.1710 -0.5688
 5719TIP3    H138648   0.069   4.674  15.345 -0.6842 -0.1749  1.1134
 5719TIP3    H238649   0.110   4.530  15.368 -0.2253 -0.3684 -0.7548
 5720TIP3   OH238650   3.523   6.212  16.143 -0.0488  0.3934 -0.3982
 5720TIP3    H138651   3.497   6.123  16.163 -1.2132  0.3712 -1.8248
 5720TIP3    H238652   3.464   6.267  16.196  1.5775  0.3875  1.5609
 5721TIP3   OH238653   0.419   4.860  13.786  0.2975 -0.0424 -0.0852
 5721TIP3    H138654   0.336   4.904  13.767  0.7950  0.9963  0.0532
 5721TIP3    H238655   0.481   4.898  13.723  0.9446  0.1550  0.6523
 5722TIP3   OH238656   0.266   6.462  12.945  0.1795  0.0016  0.1515
 5722TIP3    H138657   0.324   6.422  12.880 -0.3204 -0.9510  0.2858
 5722TIP3    H238658   0.184   6.413  12.938  0.3426 -0.6141  1.9982
 5723TIP3   OH238659   4.175   2.377   4.286 -0.3651  0.0259 -0.6354
 5723TIP3    H138660   4.206   2.465   4.308  0.5346 -0.7911  1.7020
 5723TIP3    H238661   4.082   2.389   4.267 -0.1813  1.5243 -0.7165
 5724TIP3   OH238662   4.306   3.664  16.290 -0.4878  0.0392  0.6864
 5724TIP3    H138663   4.295   3.698  16.201 -0.1385 -0.7070  0.3496
 5724TIP3    H238664   4.388   3.703  16.320  0.3331 -1.0910  0.0020
 5725TIP3   OH238665   5.323   1.037   2.951 -0.3734  0.0998  0.0037
 5725TIP3    H138666   5.252   1.018   3.012 -0.2423  0.2486  0.2017
 5725TIP3    H238667   5.393   0.977   2.976  0.4927  1.6048  1.4013
 5726TIP3   OH238668   2.956   0.046   0.323 -0.2753  0.1292  0.2605
 5726TIP3    H138669   3.048   0.050   0.296 -0.4742  0.3540 -0.3864
 5726TIP3    H238670   2.959   0.002   0.408  0.1314 -2.9230 -1.2045
 5727TIP3   OH238671   6.631   5.405   1.383  0.1520 -0.6719  0.1272
 5727TIP3    H138672   6.648   5.415   1.477 -0.0800  2.3128 -0.0534
 5727TIP3    H238673   6.536   5.403   1.377  0.1156  0.8104 -0.1170
 5728TIP3   OH238674   3.206   4.407  14.413  0.5655  0.0255 -0.5643
 5728TIP3    H138675   3.209   4.460  14.333 -1.7355  0.7881 -0.2172
 5728TIP3    H238676   3.195   4.471  14.484  0.6565 -0.7551  0.1790
 5729TIP3   OH238677   4.370   0.448  12.190 -0.4361  0.4529  0.5043
 5729TIP3    H138678   4.359   0.355  12.174 -1.1872  0.5427  0.4773
 5729TIP3    H238679   4.463   0.458  12.211 -0.2457 -0.2264  0.0224
 5730TIP3   OH238680   6.758   6.614   4.263 -0.1201 -0.2564 -0.0477
 5730TIP3    H138681   6.663   6.621   4.249  0.0690  2.2924 -0.3732
 5730TIP3    H238682   6.784   6.701   4.293  2.1337 -0.9364  0.1001
 5731TIP3   OH238683   1.266   4.605   0.170  0.0191 -0.2228 -0.5970
 5731TIP3    H138684   1.194   4.623   0.110 -0.2570 -1.1768 -0.5689
 5731TIP3    H238685   1.297   4.518   0.145  0.1607 -0.4633  0.3763
 5732TIP3   OH238686   3.075   4.132   0.927  0.4211  0.0947  0.4287
 5732TIP3    H138687   3.037   4.152   1.012 -0.8870 -1.0508  0.1510
 5732TIP3    H238688   3.117   4.213   0.899 -0.5724  0.9673  1.4204
 5733TIP3   OH238689   5.414   0.737   2.520 -0.0839 -0.5283  0.5575
 5733TIP3    H138690   5.365   0.656   2.508 -0.6166  0.0131 -1.2670
 5733TIP3    H238691   5.384   0.794   2.449 -0.9080  1.8685  2.6777
 5734TIP3   OH238692   3.802   1.380  14.523 -0.0354 -0.2582  0.4738
 5734TIP3    H138693   3.733   1.352  14.464  0.0985  1.1902 -0.4182
 5734TIP3    H238694   3.758   1.391  14.608 -1.8736  4.1460 -0.7892
 5735TIP3   OH238695   5.946   0.470  15.893 -0.6484  0.4840  0.0433
 5735TIP3    H138696   5.891   0.402  15.855  1.6014 -0.7005 -1.2931
 5735TIP3    H238697   6.008   0.493  15.824  1.1157  1.0997  1.7171
 5736TIP3   OH238698   1.238   1.039   1.695 -0.2595  0.5027 -0.2366
 5736TIP3    H138699   1.229   0.945   1.678 -3.4788  0.9181 -1.4953
 5736TIP3    H238700   1.315   1.065   1.644  0.6500 -1.3811  0.0507
 5737TIP3   OH238701   0.719   3.713   4.889  0.5846  0.0801 -0.2055
 5737TIP3    H138702   0.769   3.643   4.930  0.4433 -1.1143 -1.9807
 5737TIP3    H238703   0.647   3.729   4.950  0.1082 -1.9420 -0.1622
 5738TIP3   OH238704   0.905   3.491  10.883  0.0537 -0.0265 -0.1438
 5738TIP3    H138705   0.952   3.426  10.936  0.9384  0.2918 -0.5147
 5738TIP3    H238706   0.928   3.575  10.923 -0.1885  0.1333 -0.3434
 5739TIP3   OH238707   3.142   0.344   3.543  0.5337  0.0278  0.0272
 5739TIP3    H138708   3.079   0.352   3.471 -0.3396  2.2558  0.9231
 5739TIP3    H238709   3.180   0.432   3.551  1.7662 -0.5829  1.2750
 5740TIP3   OH238710   4.972   0.430   3.263  0.6537  0.2674  0.0551
 5740TIP3    H138711   5.042   0.381   3.219  2.2093  3.8287 -1.8782
 5740TIP3    H238712   5.004   0.441   3.353  2.6447  1.6773 -0.7440
 5741TIP3   OH238713   5.463   4.701   3.881 -0.2744  0.4790  0.0337
 5741TIP3    H138714   5.378   4.717   3.841 -0.2748 -0.8107 -0.5258
 5741TIP3    H238715   5.526   4.711   3.809 -0.1568 -0.6432 -0.0263
 5742TIP3   OH238716   0.750   3.997  14.525 -0.2105 -0.6444 -0.3186
 5742TIP3    H138717   0.816   3.928  14.538 -1.1307 -1.4574  0.1891
 5742TIP3    H238718   0.684   3.956  14.469 -1.5962 -0.7804  1.3209
 5743TIP3   OH238719   1.655   1.573   6.037 -0.0324  0.2722  0.3478
 5743TIP3    H138720   1.673   1.634   6.108  0.7813 -1.7401  1.9775
 5743TIP3    H238721   1.710   1.603   5.965  0.2340  1.5165  1.0420
 5744TIP3   OH238722   6.763   2.767   5.414 -0.0605 -0.3101  0.1273
 5744TIP3    H138723   6.742   2.843   5.360  1.4099  0.7396  0.9413
 5744TIP3    H238724   6.852   2.743   5.387 -1.3391 -3.3999 -1.9100
 5745TIP3   OH238725   2.587   2.713  13.864 -0.0102  0.6782  0.0809
 5745TIP3    H138726   2.505   2.681  13.827  0.0463  1.6376 -0.8874
 5745TIP3    H238727   2.645   2.723  13.789  0.8597  0.4438  0.7051
 5746TIP3   OH238728   1.816   1.654   0.944 -0.1482 -0.1754 -0.3345
 5746TIP3    H138729   1.742   1.713   0.930 -0.1219 -0.3700 -1.3670
 5746TIP3    H238730   1.777   1.567   0.947  0.0520 -0.3054 -1.1646
 5747TIP3   OH238731   2.147   2.250   2.572  0.5110 -0.1605 -0.0321
 5747TIP3    H138732   2.176   2.159   2.573  1.9500  0.2889  0.2542
 5747TIP3    H238733   2.124   2.267   2.481 -2.8368 -1.6976  0.3642
 5748TIP3   OH238734   5.940   4.449   3.895  1.0331 -0.0022 -0.0981
 5748TIP3    H138735   5.866   4.437   3.956  0.5122  3.2487  0.0910
 5748TIP3    H238736   5.901   4.442   3.808  0.3790  1.7181  0.0009
 5749TIP3   OH238737   0.549   2.761  16.481  0.1053  0.1863  0.2702
 5749TIP3    H138738   0.530   2.744  16.389  0.9112 -1.2626  0.3441
 5749TIP3    H238739   0.608   2.837  16.479 -0.3217  0.5117 -0.3610
 5750TIP3   OH238740   0.308   6.756   2.960 -0.6264  0.4232  1.1600
 5750TIP3    H138741   0.397   6.756   2.925 -1.0027 -1.2749  0.0590
 5750TIP3    H238742   0.314   6.703   3.040 -0.7571 -0.4022  0.6450
 5751TIP3   OH238743   3.049   3.232  13.025  0.5021  0.1987  0.1998
 5751TIP3    H138744   3.113   3.302  13.030  0.5590  0.1660 -0.0524
 5751TIP3    H238745   3.076   3.181  12.949  0.6685 -0.2990  0.5838
 5752TIP3   OH238746   0.024   3.198   0.853 -0.0525  0.3691 -0.4897
 5752TIP3    H138747  -0.019   3.263   0.909  1.2641  0.1581  0.8348
 5752TIP3    H238748   0.118   3.214   0.865  0.4994 -3.3956  2.1280
 5753TIP3   OH238749   4.707   2.729  10.475  0.2239 -0.5705 -0.5807
 5753TIP3    H138750   4.795   2.731  10.439 -0.0591 -2.0213 -1.4273
 5753TIP3    H238751   4.719   2.733  10.570  1.0406  1.9658 -0.7299
 5754TIP3   OH238752   2.284   5.286   0.274  0.1653 -0.2344 -0.5644
 5754TIP3    H138753   2.342   5.211   0.263 -0.7432 -1.1374  0.5107
 5754TIP3    H238754   2.307   5.345   0.202  0.9543 -1.5075 -1.4015
 5755TIP3   OH238755   4.232   6.127   4.551  0.2059 -0.4457  0.0061
 5755TIP3    H138756   4.166   6.089   4.610  0.1915  1.3326  1.2308
 5755TIP3    H238757   4.302   6.156   4.610  0.0750  1.6378 -0.7875
 5756TIP3   OH238758   1.031   2.026   5.362 -0.0287 -0.7460 -0.4347
 5756TIP3    H138759   1.086   2.023   5.440 -0.3204 -1.2646 -0.2444
 5756TIP3    H238760   1.015   2.119   5.348  1.1366 -0.5670 -0.6707
 5757TIP3   OH238761   1.298   5.635   4.025 -0.1636 -0.1930 -0.2003
 5757TIP3    H138762   1.320   5.725   4.002 -1.3163  0.3991  0.8746
 5757TIP3    H238763   1.352   5.616   4.102 -1.8797  0.6102  1.2926
 5758TIP3   OH238764   4.162   4.170  11.961 -0.3235  0.1129 -0.4908
 5758TIP3    H138765   4.254   4.163  11.935 -0.2791 -1.5800  0.0173
 5758TIP3    H238766   4.113   4.168  11.879  0.0084 -1.1274 -0.6723
 5759TIP3   OH238767   3.572   0.967  14.425 -0.0020 -0.5024  0.0651
 5759TIP3    H138768   3.667   0.954  14.428  0.1546  0.6683  2.2934
 5759TIP3    H238769   3.560   1.041  14.365  0.3888 -1.2344 -0.9401
 5760TIP3   OH238770   3.373   1.739  11.904  0.0191  0.2552  0.2081
 5760TIP3    H138771   3.340   1.655  11.871 -0.2508  1.1830 -2.0527
 5760TIP3    H238772   3.295   1.793  11.918  0.1363 -0.0229  2.3285
 5761TIP3   OH238773   0.519   2.957   5.252 -0.0972 -0.0850  0.1464
 5761TIP3    H138774   0.464   2.971   5.328 -0.2680  0.2408 -0.0350
 5761TIP3    H238775   0.511   2.863   5.232 -0.4098 -0.0792  0.2517
 5762TIP3   OH238776   3.716   2.586  12.538  0.1961 -0.4786 -0.5232
 5762TIP3    H138777   3.767   2.539  12.472  0.6603 -2.2393  1.0010
 5762TIP3    H238778   3.637   2.532  12.550  0.5941 -0.7461  1.0405
 5763TIP3   OH238779   4.315   0.337  11.163 -0.0036 -0.2400 -0.1095
 5763TIP3    H138780   4.304   0.401  11.094 -0.4877  0.3288  0.4851
 5763TIP3    H238781   4.405   0.307  11.153 -0.4869 -1.2463 -1.8811
 5764TIP3   OH238782   1.480   2.105   4.219  0.1480 -0.6152  0.0584
 5764TIP3    H138783   1.499   2.191   4.182 -0.2159 -1.1932 -1.5787
 5764TIP3    H238784   1.413   2.120   4.285 -1.7760  0.1037 -1.9520
 5765TIP3   OH238785   5.015   2.239   1.600  0.4342  0.0410 -0.4848
 5765TIP3    H138786   4.980   2.261   1.514 -0.0992  0.3843 -0.1811
 5765TIP3    H238787   5.103   2.277   1.600  0.7447 -0.6485 -1.1711
 5766TIP3   OH238788   6.717   3.631  16.661  0.0068 -0.8551 -0.3259
 5766TIP3    H138789   6.765   3.588  16.591 -1.1413  0.0039 -1.7020
 5766TIP3    H238790   6.664   3.561  16.701 -0.3995 -1.0989 -1.2673
 5767TIP3   OH238791   3.913   5.096   3.486 -0.0919 -0.0515  0.6236
 5767TIP3    H138792   3.832   5.048   3.503 -0.2891 -0.9657 -2.2403
 5767TIP3    H238793   3.980   5.028   3.479  0.1301  0.2744 -0.8348
 5768TIP3   OH238794   6.176   2.932  13.834  0.7410 -0.2965  0.4517
 5768TIP3    H138795   6.125   2.891  13.764  1.1484 -0.0274 -0.0086
 5768TIP3    H238796   6.266   2.931  13.802  1.0879 -1.0671  1.3974
 5769TIP3   OH238797   3.625   6.480  13.896  0.4228  0.4313 -0.1630
 5769TIP3    H138798   3.568   6.487  13.972 -0.2345  0.9600 -0.6895
 5769TIP3    H238799   3.651   6.570  13.876  0.7503  0.2796 -0.4443
 5770TIP3   OH238800   4.508   4.393   1.487  0.6082 -0.4900 -0.4081
 5770TIP3    H138801   4.511   4.474   1.436  3.2875  0.0766  0.4578
 5770TIP3    H238802   4.568   4.334   1.442  2.3672 -0.2717  1.5031
 5771TIP3   OH238803   4.063   4.454  13.815 -0.3127 -0.4005 -0.5167
 5771TIP3    H138804   4.099   4.433  13.728  0.9607  1.8473 -0.6250
 5771TIP3    H238805   4.042   4.548  13.809 -1.7491 -0.5808  1.1184
 5772TIP3   OH238806   5.071   5.048   2.876 -0.1449 -0.0980 -0.6722
 5772TIP3    H138807   4.983   5.075   2.901  1.3704  4.6076  0.5696
 5772TIP3    H238808   5.102   4.994   2.949 -0.5228  2.0736  1.1987
 5773TIP3   OH238809   2.797   1.718  14.021  0.2780  0.5007  0.3531
 5773TIP3    H138810   2.828   1.802  13.988  1.4172 -0.1472 -0.3069
 5773TIP3    H238811   2.830   1.715  14.111 -1.4168  1.5607  1.0493
 5774TIP3   OH238812   3.198   3.029  17.034  0.1338 -0.4855 -0.4658
 5774TIP3    H138813   3.195   2.934  17.045 -1.0697 -0.4634 -0.5227
 5774TIP3    H238814   3.291   3.049  17.033  0.4833 -1.8738 -2.2886
 5775TIP3   OH238815   2.302   0.382  17.076  0.2965  0.2000  0.3275
 5775TIP3    H138816   2.272   0.410  17.163  0.7212  0.9009  0.2602
 5775TIP3    H238817   2.370   0.446  17.053  0.4746 -0.2241 -0.3430
 5776TIP3   OH238818   3.022   5.626   5.210 -0.0600  0.0283 -0.7601
 5776TIP3    H138819   2.961   5.568   5.164  0.4200 -0.1529 -1.1797
 5776TIP3    H238820   3.066   5.568   5.273 -0.7735  0.2908  0.0087
 5777TIP3   OH238821   0.238   4.275   1.215 -0.1003  0.0628  0.0609
 5777TIP3    H138822   0.291   4.313   1.145  1.3801  0.1197  1.1592
 5777TIP3    H238823   0.168   4.338   1.230  1.1434  1.3838  0.4710
 5778TIP3   OH238824   3.768   0.161  16.743 -0.0250  0.3844  0.4144
 5778TIP3    H138825   3.836   0.116  16.692 -0.0465  0.9989 -0.1785
 5778TIP3    H238826   3.705   0.191  16.677 -0.2288  0.9027  0.8386
 5779TIP3   OH238827   6.408   2.404   1.727  0.3117 -0.6587 -0.1624
 5779TIP3    H138828   6.344   2.405   1.797  0.1351  1.4890 -0.2972
 5779TIP3    H238829   6.357   2.385   1.648  0.0328 -0.1378 -0.1087
 5780TIP3   OH238830   5.565   0.423   2.778  0.3452  0.1978 -0.3924
 5780TIP3    H138831   5.582   0.474   2.857  0.9440  0.7083 -0.8354
 5780TIP3    H238832   5.621   0.346   2.786  0.0012 -0.0240 -0.0736
 5781TIP3   OH238833   5.739   0.858  14.184 -0.0680  0.2735 -0.4259
 5781TIP3    H138834   5.721   0.892  14.272 -0.8447  1.0211 -0.8519
 5781TIP3    H238835   5.707   0.768  14.186 -1.0161  0.6050 -0.2305
 5782TIP3   OH238836   3.721   3.645  13.538 -0.5110 -0.3771 -0.2394
 5782TIP3    H138837   3.658   3.591  13.587  0.1078  0.4978  1.6128
 5782TIP3    H238838   3.806   3.603  13.554 -0.1089  0.7528  0.7036
 5783TIP3   OH238839   6.438   4.214   3.099  0.0469 -0.3595  0.3080
 5783TIP3    H138840   6.457   4.208   3.193 -0.1953  0.6415  0.4401
 5783TIP3    H238841   6.524   4.230   3.059  0.2997 -1.7689  0.2300
 5784TIP3   OH238842   3.988   0.416  12.271  0.1273 -0.1568  0.6120
 5784TIP3    H138843   3.933   0.356  12.323 -0.0548 -1.0559 -0.5730
 5784TIP3    H238844   4.030   0.472  12.336 -0.5397 -0.8637  1.6913
 5785TIP3   OH238845   0.049   3.962   3.122  0.1431 -0.1557  0.5542
 5785TIP3    H138846  -0.014   3.970   3.194 -1.1992 -0.2906 -0.5751
 5785TIP3    H238847   0.087   3.875   3.134 -0.6131 -0.4808  0.6917
 5786TIP3   OH238848   4.040   2.606  15.957  0.0212 -0.0593  0.2984
 5786TIP3    H138849   4.060   2.517  15.928  0.6884  0.1844 -0.0107
 5786TIP3    H238850   3.963   2.632  15.906  1.5636  0.6156 -1.8333
 5787TIP3   OH238851   2.716   2.083   4.774  0.2659  0.1234  0.3674
 5787TIP3    H138852   2.680   2.076   4.862 -1.5481 -1.0823 -0.4056
 5787TIP3    H238853   2.665   2.020   4.722 -0.3201  2.4255 -2.0449
 5788TIP3   OH238854   0.651   2.732  12.488  0.7574 -0.9341  0.3303
 5788TIP3    H138855   0.638   2.726  12.393  2.2177 -1.1309  0.1152
 5788TIP3    H238856   0.658   2.825  12.505  0.0944 -0.8761  0.3159
 5789TIP3   OH238857   2.528   0.708  16.130  0.1440  0.1690  0.0286
 5789TIP3    H138858   2.476   0.698  16.209  2.0903 -1.7062  1.1824
 5789TIP3    H238859   2.479   0.660  16.063  0.8796 -2.7163  1.3999
 5790TIP3   OH238860   4.296   4.880  13.066 -0.5106 -0.3891 -0.2736
 5790TIP3    H138861   4.345   4.850  12.989 -0.9789 -0.6074 -0.4862
 5790TIP3    H238862   4.211   4.907  13.032 -0.0415  1.3842 -0.1205
 5791TIP3   OH238863   2.613   3.616  12.784 -0.0692  0.4261  0.2392
 5791TIP3    H138864   2.545   3.609  12.851 -1.6029 -0.4701 -1.3124
 5791TIP3    H238865   2.565   3.629  12.703  1.6692  0.3804 -0.8531
 5792TIP3   OH238866   1.367   3.752   3.978 -0.5221  0.6317 -0.1191
 5792TIP3    H138867   1.390   3.659   3.977  0.9893  0.9119 -3.1809
 5792TIP3    H238868   1.290   3.759   3.922 -0.8576  1.1927  0.3973
 5793TIP3   OH238869   5.436   3.348  15.707  0.0393  0.2694  0.5384
 5793TIP3    H138870   5.432   3.442  15.690  0.0807  0.0396 -0.8969
 5793TIP3    H238871   5.525   3.323  15.683  0.2826 -0.0092  1.6875
 5794TIP3   OH238872   5.342   5.664   1.741 -0.7766  0.5693  0.4508
 5794TIP3    H138873   5.263   5.644   1.691  0.1915  0.3408 -1.0316
 5794TIP3    H238874   5.338   5.759   1.755 -1.4467  0.5201  0.6476
 5795TIP3   OH238875   6.452   5.004  16.566  0.1517  0.1653  0.4597
 5795TIP3    H138876   6.529   4.986  16.511  1.0158  1.6343  1.1159
 5795TIP3    H238877   6.426   4.918  16.599  0.1721 -0.6361 -1.4769
 5796TIP3   OH238878   0.977   0.362  12.693  1.2620 -0.0430 -0.0841
 5796TIP3    H138879   1.049   0.420  12.714  1.2841 -0.2759  0.5242
 5796TIP3    H238880   0.900   0.404  12.733  1.0850  0.1376 -0.6127
 5797TIP3   OH238881   1.467   2.368  16.740 -0.3851  0.1125  0.2158
 5797TIP3    H138882   1.491   2.316  16.817  1.8549  0.1969 -0.3531
 5797TIP3    H238883   1.386   2.328  16.709  1.2224 -3.1872 -0.2444
 5798TIP3   OH238884   2.515   4.759  16.525 -0.4457 -1.0930  0.3892
 5798TIP3    H138885   2.487   4.809  16.602  1.3606  0.5515  0.0589
 5798TIP3    H238886   2.589   4.707  16.557  0.1568 -0.5859 -0.1631
 5799TIP3   OH238887   4.637   5.549  11.501 -0.0838 -0.0631 -0.2213
 5799TIP3    H138888   4.618   5.512  11.587  0.8488 -1.4504 -0.5754
 5799TIP3    H238889   4.569   5.514  11.444  0.2472 -0.4904 -0.3637
 5800TIP3   OH238890   6.252   3.837  12.229 -0.2304 -0.6359 -0.0224
 5800TIP3    H138891   6.168   3.800  12.201  0.2087 -2.3776  0.7896
 5800TIP3    H238892   6.312   3.816  12.158 -0.7630  2.1253 -1.4129
 5801TIP3   OH238893   4.454   3.052   3.808 -0.0352 -0.6282  0.0317
 5801TIP3    H138894   4.547   3.041   3.789  0.1075 -0.7205  0.7746
 5801TIP3    H238895   4.449   3.130   3.864 -0.3837 -0.7305  0.1468
 5802TIP3   OH238896   5.097   4.347  11.466 -0.2045 -0.7988 -0.2406
 5802TIP3    H138897   5.048   4.363  11.386  0.6411  1.5309 -0.3638
 5802TIP3    H238898   5.137   4.431  11.487  0.9502 -1.7650  1.7272
 5803TIP3   OH238899   3.925   6.323   4.575 -0.1912  0.1994  0.3924
 5803TIP3    H138900   3.942   6.332   4.481  2.1822 -0.2162  0.7290
 5803TIP3    H238901   3.984   6.386   4.616 -0.0357 -0.7467  1.6740
 5804TIP3   OH238902   0.458   5.887   4.235  0.2827 -0.2473  0.0402
 5804TIP3    H138903   0.538   5.935   4.256  0.9930 -0.6986 -1.4791
 5804TIP3    H238904   0.387   5.949   4.255  1.0145  0.2722  1.0883
 5805TIP3   OH238905   4.793   1.638   4.974 -0.4123  0.3209 -0.5591
 5805TIP3    H138906   4.802   1.725   5.011  1.1969  0.2511 -0.7332
 5805TIP3    H238907   4.747   1.588   5.041  0.5011  0.7736  0.4264
 5806TIP3   OH238908   2.632   2.792   4.906 -0.6368 -0.1779  0.0093
 5806TIP3    H138909   2.543   2.804   4.873 -0.0849  1.9107 -0.8126
 5806TIP3    H238910   2.664   2.715   4.859 -0.7112  1.3040 -2.6754
 5807TIP3   OH238911   6.067   3.052   1.140  0.0094 -0.0165  0.8507
 5807TIP3    H138912   5.996   3.068   1.203  0.1300 -0.2199  1.0383
 5807TIP3    H238913   6.024   3.054   1.055 -0.8996 -3.4949  1.0642
 5808TIP3   OH238914   6.522   4.674   6.333  0.2978  0.0778  0.1485
 5808TIP3    H138915   6.538   4.688   6.427  0.5309  0.2393  0.0867
 5808TIP3    H238916   6.532   4.761   6.295 -0.2435  0.0926  0.0353
 5809TIP3   OH238917   3.552   3.364   0.405  0.5337 -0.2644  0.5519
 5809TIP3    H138918   3.508   3.279   0.403 -2.4872  1.1664 -1.2555
 5809TIP3    H238919   3.518   3.408   0.482  1.2200 -0.2619  0.8596
 5810TIP3   OH238920   1.459   4.317  16.240  0.1370  0.5855 -0.3224
 5810TIP3    H138921   1.447   4.373  16.317  2.5472  0.6121  0.1081
 5810TIP3    H238922   1.532   4.358  16.192  0.5605 -1.0068 -1.1071
 5811TIP3   OH238923   6.786   3.624   5.738 -0.9281  0.2792  1.0243
 5811TIP3    H138924   6.787   3.562   5.812 -3.0076  1.6445  2.2838
 5811TIP3    H238925   6.752   3.573   5.665  0.0502 -0.7884  1.2709
 5812TIP3   OH238926   0.671   2.757   6.552  0.2141  0.3304 -0.6222
 5812TIP3    H138927   0.594   2.812   6.565  1.2967  1.5510  1.0932
 5812TIP3    H238928   0.637   2.668   6.556 -1.5415  0.7748 -3.1987
 5813TIP3   OH238929   5.377   3.431   3.408  0.0435  0.0997  0.8108
 5813TIP3    H138930   5.472   3.434   3.413  0.1044  1.2546 -0.4866
 5813TIP3    H238931   5.354   3.344   3.441  1.6368 -0.7017 -0.1012
 5814TIP3   OH238932   5.411   6.086  15.319  0.1623  0.3705  0.1570
 5814TIP3    H138933   5.339   6.104  15.379 -0.4894  0.4922 -0.6323
 5814TIP3    H238934   5.449   6.172  15.300 -0.3793  0.4719 -0.4984
 5815TIP3   OH238935   5.671   6.215   2.151  0.4490 -0.2216  0.4165
 5815TIP3    H138936   5.639   6.238   2.064  2.0498  0.2627 -0.0704
 5815TIP3    H238937   5.648   6.123   2.161  0.4022 -0.3347 -0.6042
 5816TIP3   OH238938   2.365   6.797  15.679  0.3161 -0.7922 -0.5996
 5816TIP3    H138939   2.401   6.886  15.690  0.3962 -0.7230 -1.3646
 5816TIP3    H238940   2.340   6.793  15.587 -0.8038 -1.1587 -0.2924
 5817TIP3   OH238941   5.203   2.785  14.261 -0.1325  0.0866 -0.4728
 5817TIP3    H138942   5.200   2.870  14.216 -1.5427  0.0531 -0.4628
 5817TIP3    H238943   5.264   2.733  14.209 -1.1498  0.3001 -1.9279
 5818TIP3   OH238944   4.001   4.979  11.938  0.0037  0.0528 -0.1424
 5818TIP3    H138945   3.937   4.911  11.914 -3.0947  2.5519  0.4673
 5818TIP3    H238946   4.033   5.012  11.854 -0.0005 -0.7740 -0.4765
 5819TIP3   OH238947   2.310   3.569   5.474  0.2146  0.1325  0.1423
 5819TIP3    H138948   2.257   3.490   5.468 -0.9189  0.8240  0.6677
 5819TIP3    H238949   2.328   3.579   5.567 -1.6775  1.7301  0.4114
 5820TIP3   OH238950   4.336   2.181   5.541 -0.0495  0.0419 -0.1086
 5820TIP3    H138951   4.346   2.251   5.476  1.5796 -0.6749 -0.6872
 5820TIP3    H238952   4.242   2.166   5.545 -0.3638  1.6453 -0.6331
 5821TIP3   OH238953   3.961   4.244  15.007 -0.2149 -0.0183  0.3594
 5821TIP3    H138954   4.004   4.233  15.091 -2.2359 -1.0337  1.3414
 5821TIP3    H238955   4.008   4.184  14.948  0.7488  0.1486  0.9463
 5822TIP3   OH238956   0.486   0.372  15.524  0.0968 -0.1624  0.2533
 5822TIP3    H138957   0.460   0.301  15.465  1.9384 -0.4325 -0.2854
 5822TIP3    H238958   0.486   0.332  15.611 -1.7084 -0.0044  0.3819
 5823TIP3   OH238959   1.662   5.417  13.021  0.1166 -0.2643 -0.0792
 5823TIP3    H138960   1.703   5.484  13.075 -0.7917 -0.1867  0.5318
 5823TIP3    H238961   1.715   5.415  12.941  0.8276  0.3773  0.3633
 5824TIP3   OH238962   5.611   0.611   4.874  0.1016 -0.1014 -0.1111
 5824TIP3    H138963   5.589   0.563   4.954 -0.3091 -0.7857 -0.6323
 5824TIP3    H238964   5.583   0.554   4.803  0.5608  0.4613 -0.7502
 5825TIP3   OH238965   3.638   4.518  15.917  0.6044  0.1131 -0.1655
 5825TIP3    H138966   3.611   4.519  15.826  1.6420 -0.4109 -0.4940
 5825TIP3    H238967   3.575   4.460  15.960  0.3136  0.0984 -0.6031
 5826TIP3   OH238968   4.752   3.780  13.201 -0.0470  0.1265 -0.4954
 5826TIP3    H138969   4.775   3.864  13.241 -2.6126  0.2530  0.9149
 5826TIP3    H238970   4.690   3.804  13.131  0.4557 -0.4876 -1.1588
 5827TIP3   OH238971   2.492   2.855  11.977 -0.0564 -0.3876  0.1799
 5827TIP3    H138972   2.418   2.795  11.972 -1.8336  1.7545 -0.7176
 5827TIP3    H238973   2.566   2.804  11.945 -1.0836 -2.6045  1.1070
 5828TIP3   OH238974   2.232   5.043  14.643  0.2484 -0.5561  0.2666
 5828TIP3    H138975   2.237   5.115  14.580  0.1401  0.0558  0.9413
 5828TIP3    H238976   2.148   5.001  14.624  0.3530 -0.5682 -0.1912
 5829TIP3   OH238977   0.443   6.181   5.101  0.9885 -0.6465 -0.3800
 5829TIP3    H138978   0.534   6.161   5.079  1.0363 -0.3838 -0.4241
 5829TIP3    H238979   0.403   6.206   5.018  0.9973 -0.3064 -0.2828
 5830TIP3   OH238980   2.978   2.811  14.184 -0.3192  0.2071 -0.1720
 5830TIP3    H138981   2.940   2.765  14.110 -0.4170 -0.0719  0.0507
 5830TIP3    H238982   2.995   2.900  14.152 -2.4643  0.7795  0.1160
 5831TIP3   OH238983   5.816   1.473   3.951 -0.0920 -0.3846 -0.2082
 5831TIP3    H138984   5.740   1.496   3.898 -0.0442  0.4381  0.0615
 5831TIP3    H238985   5.877   1.545   3.938 -0.1439 -0.0717  1.0816
 5832TIP3   OH238986   3.352   4.750   4.280  0.7733  0.1899  0.6782
 5832TIP3    H138987   3.306   4.688   4.337 -1.4808  0.8652 -0.2741
 5832TIP3    H238988   3.364   4.828   4.335 -1.5978  0.9220  0.2928
 5833TIP3   OH238989   3.000   5.747  14.091  0.0334 -0.2250  0.4539
 5833TIP3    H138990   3.011   5.694  14.169 -0.0320 -2.0772 -0.7409
 5833TIP3    H238991   3.089   5.769  14.063  0.1043 -0.6881  0.3146
 5834TIP3   OH238992   2.574   5.547  16.080  0.0022 -0.0036  0.4504
 5834TIP3    H138993   2.580   5.457  16.111  1.5605 -1.0714 -2.5096
 5834TIP3    H238994   2.659   5.585  16.100  0.0541  0.1500 -0.0460
 5835TIP3   OH238995   2.080   6.385  15.713  0.3827 -0.1137  0.3366
 5835TIP3    H138996   2.148   6.451  15.705  0.4956 -0.2218  0.4013
 5835TIP3    H238997   2.098   6.323  15.641 -0.6718  0.7801 -0.7328
 5836TIP3   OH238998   3.455   1.580   1.311  0.1862 -0.3185 -0.1800
 5836TIP3    H138999   3.460   1.493   1.353  0.7401  0.2054  0.8966
 5836TIP3    H239000   3.509   1.571   1.232  0.4096 -0.9076  0.0286
 5837TIP3   OH239001   0.810   3.358   0.559  0.0492 -0.3944 -0.7888
 5837TIP3    H139002   0.746   3.391   0.496  0.1012 -1.0304 -1.1878
 5837TIP3    H239003   0.874   3.428   0.567 -1.8348  1.2505  1.3382
 5838TIP3   OH239004   2.539   0.242   3.132  0.1278 -0.5472  0.2698
 5838TIP3    H139005   2.558   0.150   3.148 -0.7326 -0.8961 -0.6526
 5838TIP3    H239006   2.613   0.274   3.080 -0.9163 -1.4863 -1.9154
 5839TIP3   OH239007   5.090   4.341  17.059  0.3996 -0.9472 -0.4431
 5839TIP3    H139008   5.165   4.293  17.093  0.3973 -1.4483 -1.1138
 5839TIP3    H239009   5.014   4.298  17.097  0.4317 -0.8033 -0.2146
 5840TIP3   OH239010   2.486   2.526   1.437 -0.0165  0.2399 -0.2606
 5840TIP3    H139011   2.477   2.442   1.482  0.5115 -0.6147 -1.6617
 5840TIP3    H239012   2.481   2.592   1.506 -3.1912 -0.7423  0.6167
 5841TIP3   OH239013   1.490   6.228  14.807 -0.5300 -0.0770  0.5066
 5841TIP3    H139014   1.454   6.182  14.883 -0.2949 -0.8130  0.1832
 5841TIP3    H239015   1.571   6.181  14.787 -1.2243 -0.7388 -0.9831
 5842TIP3   OH239016   1.740   6.824  15.867  0.3203  0.5441 -0.2338
 5842TIP3    H139017   1.750   6.872  15.949 -1.6732  1.5095 -0.4896
 5842TIP3    H239018   1.761   6.888  15.799  0.7840  0.0967 -0.5208
 5843TIP3   OH239019   1.108   0.330  12.095 -0.1809 -0.2962 -0.2412
 5843TIP3    H139020   1.175   0.396  12.112 -1.1460  0.5575  0.3037
 5843TIP3    H239021   1.102   0.281  12.178  0.5072 -1.0747 -0.6313
 5844TIP3   OH239022   2.226   0.481   4.851  0.1845 -0.2501 -0.0342
 5844TIP3    H139023   2.192   0.559   4.807 -0.5729 -1.1516 -1.0946
 5844TIP3    H239024   2.236   0.417   4.782  1.2190 -0.9738  0.7556
 5845TIP3   OH239025   2.793   5.475   0.253  0.2209  0.8383  0.0314
 5845TIP3    H139026   2.854   5.490   0.326 -0.5448 -0.6592  1.0268
 5845TIP3    H239027   2.719   5.533   0.272  0.7909  1.7802 -0.5455
 5846TIP3   OH239028   6.003   3.437  12.579  0.1206 -0.2906 -0.3548
 5846TIP3    H139029   5.990   3.500  12.649  0.0935 -0.5959 -0.0812
 5846TIP3    H239030   6.040   3.488  12.507  1.0013 -0.1327  0.1909
 5847TIP3   OH239031   2.215   5.738   1.591  0.5301 -0.2762 -0.5187
 5847TIP3    H139032   2.156   5.802   1.552 -2.1781 -2.3888 -0.2190
 5847TIP3    H239033   2.212   5.756   1.685  1.7082  0.6083 -0.6281
 5848TIP3   OH239034   4.080   3.216   1.897 -0.1865 -0.2704 -0.3691
 5848TIP3    H139035   4.149   3.237   1.960  0.5202 -2.2453 -0.4073
 5848TIP3    H239036   4.114   3.248   1.813  0.8840 -1.5080 -0.4415
 5849TIP3   OH239037   0.495   5.309  15.532 -0.2124  0.1131 -0.4128
 5849TIP3    H139038   0.527   5.220  15.513  0.4427  0.0227  0.9341
 5849TIP3    H239039   0.570   5.365  15.514  0.1808  0.1009  1.0267
 5850TIP3   OH239040   1.271   4.907   5.822 -0.6360  0.1278  0.4242
 5850TIP3    H139041   1.228   4.956   5.892 -1.4530  0.4112 -0.2650
 5850TIP3    H239042   1.241   4.817   5.833 -4.8169  0.8572 -2.3937
 5851TIP3   OH239043   3.377   3.441  13.249 -0.1181  0.0856 -0.6213
 5851TIP3    H139044   3.458   3.414  13.291  0.3726  1.2248 -0.8192
 5851TIP3    H239045   3.309   3.423  13.315  0.2827 -0.8352 -0.4456
 5852TIP3   OH239046   5.726   1.634  16.085  0.1513 -0.0350  0.3420
 5852TIP3    H139047   5.749   1.541  16.083 -1.9797 -0.6261 -2.1719
 5852TIP3    H239048   5.659   1.640  16.153  0.5876 -0.2236  0.7990
 5853TIP3   OH239049   5.095   1.788  16.035  0.2392  0.0248 -0.1294
 5853TIP3    H139050   5.074   1.825  15.949  0.9288  1.0859  0.1284
 5853TIP3    H239051   5.182   1.750  16.024  0.8909  1.2836  0.3835
 5854TIP3   OH239052   5.047   3.959  13.556  0.2672  0.6414 -0.2634
 5854TIP3    H139053   5.065   4.052  13.562  0.1334  0.5915  1.7675
 5854TIP3    H239054   5.130   3.916  13.579  0.1539  0.2769 -0.5213
 5855TIP3   OH239055   2.350   6.377   2.116  0.0446  0.2163 -0.3600
 5855TIP3    H139056   2.388   6.336   2.039 -1.2114  2.6924 -2.4336
 5855TIP3    H239057   2.413   6.444   2.142 -0.3714  0.6093 -0.3598
 5856TIP3   OH239058   1.929   3.593   2.077 -0.6594  0.8448  0.2471
 5856TIP3    H139059   1.969   3.601   2.164 -0.3932  0.3124  0.1723
 5856TIP3    H239060   1.990   3.636   2.018 -0.3448  0.3077  0.1783
 5857TIP3   OH239061   6.510   3.831   0.300  0.5234 -0.4834  0.0224
 5857TIP3    H139062   6.424   3.807   0.333  0.0618 -0.6108 -1.2188
 5857TIP3    H239063   6.566   3.833   0.378 -0.8438  0.8175  1.0213
 5858TIP3   OH239064   0.551   2.094  11.458 -0.7650  0.0100  0.4711
 5858TIP3    H139065   0.490   2.040  11.408 -1.1695  0.9916 -0.1228
 5858TIP3    H239066   0.531   2.184  11.431  0.1339  0.4325  1.1697
 5859TIP3   OH239067   2.817   5.997  14.336 -0.1087  0.1916 -0.2484
 5859TIP3    H139068   2.819   6.044  14.252 -0.5784 -0.0284 -0.3873
 5859TIP3    H239069   2.797   6.064  14.401 -0.8998  0.1762 -0.4609
 5860TIP3   OH239070   3.187   5.790   4.499  0.3778 -0.4327  0.4334
 5860TIP3    H139071   3.234   5.791   4.416 -1.6552  1.0058 -0.7952
 5860TIP3    H239072   3.184   5.697   4.524  3.3698 -0.6222  0.3627
 5861TIP3   OH239073   5.435   5.688   4.527  0.2648  0.1175  0.2767
 5861TIP3    H139074   5.416   5.624   4.458  3.2007 -1.5977  0.9117
 5861TIP3    H239075   5.479   5.760   4.481 -0.4976  0.4126 -0.0192
 5862TIP3   OH239076   3.000   3.032   0.273 -0.1169  0.1486  0.1086
 5862TIP3    H139077   2.987   2.990   0.358 -1.4175  0.1035 -0.1032
 5862TIP3    H239078   2.969   2.967   0.210  0.3581  0.3917 -0.3831
 5863TIP3   OH239079   4.937   2.134   5.955 -0.3060  0.5333  0.2917
 5863TIP3    H139080   4.878   2.062   5.931  0.4145  0.3020 -0.8561
 5863TIP3    H239081   4.990   2.149   5.877  0.7133  1.1824  1.0821
 5864TIP3   OH239082   1.447   6.510  11.601 -0.1762  0.2606  0.4369
 5864TIP3    H139083   1.446   6.451  11.677 -1.3193  0.4962  0.6262
 5864TIP3    H239084   1.400   6.588  11.630 -1.3444  0.0341 -0.7491
 5865TIP3   OH239085   6.624   6.641  16.293  0.1510 -0.5924  0.0712
 5865TIP3    H139086   6.656   6.699  16.362  1.1540 -2.5492  1.3245
 5865TIP3    H239087   6.581   6.569  16.339 -3.5193  0.3418 -1.4777
 5866TIP3   OH239088   3.622   6.412   5.372 -0.0271  0.5949  0.5141
 5866TIP3    H139089   3.671   6.399   5.453  0.3932 -2.5874 -0.1079
 5866TIP3    H239090   3.666   6.485   5.328  2.4843 -0.3802  1.2452
 5867TIP3   OH239091   4.333   1.557   4.357  0.3938  0.7564 -0.4959
 5867TIP3    H139092   4.344   1.597   4.443  2.0507 -2.3395  0.9241
 5867TIP3    H239093   4.262   1.494   4.368  2.7771 -2.1479 -0.1626
 5868TIP3   OH239094   5.848   6.606   5.596 -0.7667 -0.4775 -0.1064
 5868TIP3    H139095   5.923   6.547   5.603 -0.2512  0.3766  3.2036
 5868TIP3    H239096   5.775   6.549   5.573  0.5321 -1.5852 -1.7651
 5869TIP3   OH239097   1.743   6.449  13.405 -0.4813  0.2714 -0.4027
 5869TIP3    H139098   1.740   6.409  13.318  2.7963  0.0463 -0.5426
 5869TIP3    H239099   1.713   6.380  13.464  0.2683 -0.6928 -1.1126
 5870TIP3   OH239100   0.119   1.499  11.059  0.1281 -0.4929  0.1062
 5870TIP3    H139101   0.076   1.575  11.021 -0.4784 -0.4458  0.8482
 5870TIP3    H239102   0.207   1.498  11.021  0.8762  1.7764  1.5724
 5871TIP3   OH239103   4.156   4.185  12.405  0.1942 -0.1881  0.2084
 5871TIP3    H139104   4.108   4.196  12.323  1.5583 -0.2840 -0.6239
 5871TIP3    H239105   4.229   4.128  12.383  2.0058  1.7459  0.9052
 5872TIP3   OH239106   0.240   0.074  16.281  0.4089  0.2222 -0.7284
 5872TIP3    H139107   0.325   0.038  16.255 -0.0616 -0.2380 -1.6606
 5872TIP3    H239108   0.247   0.168  16.261  0.9756  0.3386 -0.0324
 5873TIP3   OH239109   1.645   5.075  12.956  0.4554  0.4406  0.1912
 5873TIP3    H139110   1.674   4.984  12.959  0.8785  0.5916  1.2757
 5873TIP3    H239111   1.726   5.126  12.958  0.2069  0.8421  1.5358
 5874TIP3   OH239112   2.858   4.677   1.732  0.3000  0.3763 -0.6374
 5874TIP3    H139113   2.792   4.715   1.674 -0.1683 -1.6855 -1.5394
 5874TIP3    H239114   2.874   4.590   1.696  0.9244 -0.4991  1.6137
 5875TIP3   OH239115   2.744   2.632  14.256  0.6042  0.4020 -0.2659
 5875TIP3    H139116   2.653   2.605  14.254  0.9359 -0.7203 -1.4505
 5875TIP3    H239117   2.746   2.713  14.205  0.2515  0.4932 -0.1373
 5876TIP3   OH239118   0.082   5.685  11.477  0.2357  0.2100 -0.0205
 5876TIP3    H139119   0.080   5.590  11.493  0.1208  0.2500  0.2191
 5876TIP3    H239120   0.084   5.723  11.565 -3.3970  0.5199  0.0978
 5877TIP3   OH239121   2.578   6.190  12.012 -0.2862 -0.3989 -0.1243
 5877TIP3    H139122   2.544   6.117  11.960  2.9921 -2.8014  0.7988
 5877TIP3    H239123   2.540   6.177  12.099 -0.5845 -0.3063 -0.2380
 5878TIP3   OH239124   4.278   5.175   5.036  0.2029  0.0293 -0.1002
 5878TIP3    H139125   4.325   5.166   5.119  0.7265  0.6083 -0.3271
 5878TIP3    H239126   4.217   5.248   5.050 -0.2538 -0.3678  0.0167
 5879TIP3   OH239127   5.107   2.261   2.647 -0.4809  0.7699 -1.0370
 5879TIP3    H139128   5.126   2.178   2.603 -1.4840  1.0608 -2.0410
 5879TIP3    H239129   5.103   2.238   2.740 -0.5663 -0.2732 -1.2883
 5880TIP3   OH239130   3.848   2.621   3.015 -0.4182  0.2230  0.3941
 5880TIP3    H139131   3.799   2.568   3.078 -2.5554  0.9975 -0.5318
 5880TIP3    H239132   3.901   2.680   3.070 -0.8424 -0.3447  1.4479
 5881TIP3   OH239133   6.580   1.623   3.865  0.0891  0.1762 -0.5889
 5881TIP3    H139134   6.613   1.537   3.893  0.2597 -0.0578 -1.4850
 5881TIP3    H239135   6.503   1.603   3.811 -2.0584  0.7221  2.0011
 5882TIP3   OH239136   5.404   6.295  12.121  0.4058 -0.1661  0.0768
 5882TIP3    H139137   5.357   6.255  12.194  0.4103 -1.3190 -0.5225
 5882TIP3    H239138   5.433   6.380  12.155 -1.3415  0.2216  0.7412
 5883TIP3   OH239139   3.896   3.935   4.832 -0.4845 -0.5540  0.6698
 5883TIP3    H139140   3.959   3.999   4.866  0.5989 -1.8261  1.1895
 5883TIP3    H239141   3.843   3.911   4.908 -2.5818  1.4836 -0.0312
 5884TIP3   OH239142   2.847   3.645  12.944  0.1938 -0.0616  0.0243
 5884TIP3    H139143   2.895   3.708  12.890 -0.2390 -0.8769 -1.3643
 5884TIP3    H239144   2.773   3.617  12.889  1.4008 -3.1824 -0.2435
 5885TIP3   OH239145   4.453   5.728   5.203 -0.3590  0.5801 -0.2663
 5885TIP3    H139146   4.367   5.764   5.180 -0.4406 -0.1090 -1.0847
 5885TIP3    H239147   4.464   5.750   5.295 -1.5643  0.3875 -0.0619
 5886TIP3   OH239148   5.514   4.933  12.229  0.3331  0.1381  0.0075
 5886TIP3    H139149   5.549   4.867  12.170  1.3581  2.2308 -1.8564
 5886TIP3    H239150   5.569   4.927  12.307  1.1174 -0.4718 -0.5740
 5887TIP3   OH239151   5.575   3.074  12.553 -0.7439 -0.0598 -0.4852
 5887TIP3    H139152   5.513   3.034  12.615 -0.0472 -0.8396 -0.2746
 5887TIP3    H239153   5.660   3.040  12.579  0.2517  3.2324  1.0926
 5888TIP3   OH239154   5.068   4.679   3.053  0.4783  0.3504  0.0175
 5888TIP3    H139155   5.068   4.707   2.961  0.7528  0.4394  0.0437
 5888TIP3    H239156   5.079   4.760   3.103  0.7175  0.2580  0.1148
 5889TIP3   OH239157   5.491   6.130  13.658  0.2954 -0.1734  0.3771
 5889TIP3    H139158   5.557   6.139  13.590  1.0540 -2.0227  0.7934
 5889TIP3    H239159   5.520   6.190  13.727 -0.5632  1.8239 -0.9206
 5890TIP3   OH239160   3.873   5.349  14.788  0.4797 -0.2146 -0.0373
 5890TIP3    H139161   3.835   5.264  14.766  0.5505 -0.0431 -0.8596
 5890TIP3    H239162   3.928   5.371  14.712  0.0670  0.7968 -0.0561
 5891TIP3   OH239163   6.455   1.777   6.534  0.6631  0.3766  0.4667
 5891TIP3    H139164   6.430   1.861   6.497 -0.7267 -0.5626 -0.8248
 5891TIP3    H239165   6.501   1.732   6.464 -1.3152 -1.1187  0.0559
 5892TIP3   OH239166   0.165   6.516   2.123  0.0257 -0.1517  0.1791
 5892TIP3    H139167   0.224   6.507   2.197  1.5404 -0.2841 -0.9795
 5892TIP3    H239168   0.112   6.437   2.124 -0.1415 -0.0305  1.2525
 5893TIP3   OH239169   5.222   1.971  14.715  0.4243  0.0297  0.0781
 5893TIP3    H139170   5.163   2.047  14.721  2.2370  1.5185  0.1773
 5893TIP3    H239171   5.200   1.929  14.632 -0.2866  0.9822 -0.2333
 5894TIP3   OH239172   6.063   0.295   3.785 -0.1664 -0.1125 -0.0831
 5894TIP3    H139173   6.124   0.221   3.779  0.7571  0.5907  0.4421
 5894TIP3    H239174   6.022   0.298   3.698  0.9561 -0.2586 -0.6391
 5895TIP3   OH239175   1.323   3.795  11.771 -0.2764  0.1718 -0.1486
 5895TIP3    H139176   1.416   3.778  11.789 -0.1223  1.5128  0.4033
 5895TIP3    H239177   1.297   3.723  11.713  0.7546 -0.9575  0.7389
 5896TIP3   OH239178   2.532   3.637  14.161 -1.0725  0.0542 -0.2842
 5896TIP3    H139179   2.489   3.646  14.246 -0.8248 -2.9276  0.2515
 5896TIP3    H239180   2.494   3.559  14.123  1.5160 -0.8545 -1.2153
 5897TIP3   OH239181   3.600   0.993   1.811 -0.3116 -0.5729  0.2140
 5897TIP3    H139182   3.619   1.005   1.904  0.6343  1.4118 -0.1842
 5897TIP3    H239183   3.642   0.910   1.789  1.9943  0.3146  0.9579
 5898TIP3   OH239184   5.496   6.674  12.991 -0.1308  0.2148  0.5222
 5898TIP3    H139185   5.497   6.763  12.957  0.4502  0.2492  0.6171
 5898TIP3    H239186   5.477   6.684  13.084 -3.7378  0.0054 -0.0529
 5899TIP3   OH239187   0.268   4.974   0.948 -0.1038  0.3658  0.5172
 5899TIP3    H139188   0.219   5.047   0.986  0.7373  0.0982  2.2030
 5899TIP3    H239189   0.240   4.971   0.857 -1.4318  1.7071  0.8482
 5900TIP3   OH239190   4.890   5.571   4.937 -0.1183 -0.2770  0.5904
 5900TIP3    H139191   4.820   5.538   4.993 -0.5544 -0.9726 -0.3389
 5900TIP3    H239192   4.872   5.533   4.851 -0.1339  1.7057 -0.3282
 5901TIP3   OH239193   2.822   4.916  14.756  0.1664  0.2190  0.0316
 5901TIP3    H139194   2.757   4.974  14.796  0.6466  1.9005 -1.4854
 5901TIP3    H239195   2.771   4.862  14.696 -0.2840 -1.0136  1.4494
 5902TIP3   OH239196   5.938   1.725  10.502 -0.1399 -0.0409 -0.5474
 5902TIP3    H139197   5.978   1.696  10.420  0.5786 -1.2316  0.2029
 5902TIP3    H239198   6.012   1.754  10.556 -0.6492  1.1639 -0.4732
 5903TIP3   OH239199   3.087   5.991  13.188  0.2230  0.0148  0.3740
 5903TIP3    H139200   3.032   5.914  13.181 -0.1677  0.3769 -4.3506
 5903TIP3    H239201   3.026   6.065  13.189  0.6353  0.4105  2.8829
 5904TIP3   OH239202   2.506   1.378  12.883 -0.1879  0.0560  0.0729
 5904TIP3    H139203   2.570   1.328  12.832 -0.0252 -0.2708  0.5827
 5904TIP3    H239204   2.470   1.314  12.944  0.4061  0.6640  1.0940
 5905TIP3   OH239205   5.459   6.389  15.773 -0.2561 -0.3406 -0.3800
 5905TIP3    H139206   5.381   6.439  15.749  0.9858  0.6421 -2.6740
 5905TIP3    H239207   5.527   6.420  15.713  2.0295 -0.9143  1.7234
 5906TIP3   OH239208   1.495   2.108   3.236  0.1351  0.3687 -0.2574
 5906TIP3    H139209   1.519   2.122   3.145 -2.4189  0.4372 -1.0006
 5906TIP3    H239210   1.519   2.017   3.254  1.2774  0.5607 -0.7615
 5907TIP3   OH239211   2.358   5.557   1.437  0.6957 -0.0189  0.5239
 5907TIP3    H139212   2.430   5.608   1.402  1.1255 -1.2276 -0.4161
 5907TIP3    H239213   2.310   5.618   1.493 -0.1158  2.0723 -2.2651
 5908TIP3   OH239214   3.299   5.696   4.865  0.4305 -0.1747 -0.1729
 5908TIP3    H139215   3.331   5.646   4.940 -0.6756 -0.1433  0.3396
 5908TIP3    H239216   3.355   5.669   4.792  1.7357  0.0455  0.7328
 5909TIP3   OH239217   3.123   5.014   4.089 -0.5229  0.6915 -0.6717
 5909TIP3    H139218   3.202   5.054   4.125 -0.6176  0.8915 -0.6823
 5909TIP3    H239219   3.138   5.012   3.995 -0.0860 -0.2471 -0.5872
 5910TIP3   OH239220   0.706   1.281  16.621 -0.0744 -0.3405  0.4097
 5910TIP3    H139221   0.711   1.291  16.717  0.1074  0.9018  0.2922
 5910TIP3    H239222   0.619   1.246  16.605 -0.4928  0.3961  0.9798
 5911TIP3   OH239223   2.960   0.238   3.263 -0.6126 -0.2914 -0.1254
 5911TIP3    H139224   2.901   0.162   3.265  0.0189 -0.8926 -1.9577
 5911TIP3    H239225   3.004   0.231   3.179  1.9598  0.2232  1.0697
 5912TIP3   OH239226   3.702   1.864  13.302  0.2622 -0.0676 -0.4120
 5912TIP3    H139227   3.672   1.776  13.279  0.8064 -0.4155  0.1785
 5912TIP3    H239228   3.724   1.859  13.394 -0.4980  0.9236 -0.1492
 5913TIP3   OH239229   5.210   5.043  16.351  0.3589  0.4669  0.1348
 5913TIP3    H139230   5.288   5.020  16.301 -0.4172  0.0669 -0.9406
 5913TIP3    H239231   5.211   5.139  16.354  0.3570  0.5005 -0.7630
 5914TIP3   OH239232   1.158   1.205  11.317  0.7105 -0.0002 -1.1042
 5914TIP3    H139233   1.180   1.113  11.330 -2.4023 -0.6477  0.4060
 5914TIP3    H239234   1.068   1.213  11.346  1.2889  3.8699  0.2602
 5915TIP3   OH239235   6.173   4.701  12.611 -0.1727  0.1790  0.4922
 5915TIP3    H139236   6.267   4.687  12.619 -0.2477 -0.8934 -0.2158
 5915TIP3    H239237   6.164   4.784  12.563  0.4464 -0.2713 -0.4418
 5916TIP3   OH239238   6.795   3.546  10.190 -0.1565  0.1585 -0.4266
 5916TIP3    H139239   6.766   3.619  10.134 -1.1752  2.4187  2.7325
 5916TIP3    H239240   6.884   3.569  10.214  0.1784 -0.6621 -0.8340
 5917TIP3   OH239241   5.446   0.462  11.604  0.2801  0.1614  0.2592
 5917TIP3    H139242   5.532   0.426  11.628  0.3612 -0.8150 -1.3515
 5917TIP3    H239243   5.385   0.389  11.614 -0.2407  0.6319  0.6153
 5918TIP3   OH239244   4.023   5.610  15.989 -0.2191  0.3097 -0.1929
 5918TIP3    H139245   3.942   5.564  16.009  0.9848 -2.4149 -1.1534
 5918TIP3    H239246   4.049   5.650  16.072 -1.4394 -0.5659  0.6372
 5919TIP3   OH239247   6.104   1.562  14.478  0.0269 -0.2496  0.3689
 5919TIP3    H139248   6.029   1.549  14.420 -0.4630 -0.6319  1.0666
 5919TIP3    H239249   6.111   1.656  14.489  1.4391 -0.0028 -1.9719
 5920TIP3   OH239250   3.883   2.263   4.791 -0.3201 -0.1827 -0.1644
 5920TIP3    H139251   3.938   2.319   4.737  0.3263  1.7085  2.2941
 5920TIP3    H239252   3.811   2.237   4.733  2.3909 -1.7666 -3.1420
 5921TIP3   OH239253   1.969   2.488  14.561  0.4178  0.2023  0.6230
 5921TIP3    H139254   2.035   2.531  14.506 -0.6637  2.3107  0.8669
 5921TIP3    H239255   1.967   2.398  14.530  2.9696  0.2048  0.2091
 5922TIP3   OH239256   2.257   0.206  15.309 -0.5954 -0.2786 -0.4803
 5922TIP3    H139257   2.173   0.160  15.303 -1.9220  1.8073  0.9706
 5922TIP3    H239258   2.317   0.140  15.346 -1.8077 -1.5233 -0.6388
 5923TIP3   OH239259   4.381   4.202  14.809 -0.5436 -0.2936  0.8212
 5923TIP3    H139260   4.438   4.244  14.745 -0.1539 -0.2228  1.2117
 5923TIP3    H239261   4.431   4.127  14.840 -0.4938 -0.0026  1.4579
 5924TIP3   OH239262   1.621   0.566   0.285  0.4055 -0.8627  0.4517
 5924TIP3    H139263   1.582   0.618   0.215 -0.7504 -1.8236  0.3467
 5924TIP3    H239264   1.613   0.475   0.255  0.9848 -1.2157  1.3104
 5925TIP3   OH239265   3.408   5.782   1.283  0.0693  0.4381  0.4307
 5925TIP3    H139266   3.343   5.818   1.222 -0.4599  0.3066  0.9055
 5925TIP3    H239267   3.376   5.808   1.369 -1.4839 -2.8255  0.9907
 5926TIP3   OH239268   4.819   2.060  16.650 -0.8657 -0.0429  0.2867
 5926TIP3    H139269   4.789   2.117  16.579 -1.2587  1.1376  1.3628
 5926TIP3    H239270   4.784   1.973  16.627  0.2930 -0.0451 -1.7196
 5927TIP3   OH239271   3.833   5.185  16.300  0.0160  0.1155  0.2093
 5927TIP3    H139272   3.743   5.158  16.314  0.2384 -0.3095  0.8643
 5927TIP3    H239273   3.877   5.108  16.264 -0.2142  0.7676 -1.5731
 5928TIP3   OH239274   6.496   0.197  14.520 -0.0758  0.1164 -0.4811
 5928TIP3    H139275   6.542   0.247  14.587 -0.4102 -0.2715  0.0462
 5928TIP3    H239276   6.566   0.161  14.465  0.2417 -0.1783  0.1037
 5929TIP3   OH239277   4.622   0.093   2.052  0.1587 -0.2290  0.5579
 5929TIP3    H139278   4.576   0.017   2.087  1.5458 -1.4381 -0.1280
 5929TIP3    H239279   4.605   0.091   1.958  0.1011  0.3858  0.5480
 5930TIP3   OH239280   4.344   3.473   2.169  0.1800 -0.4675  0.1159
 5930TIP3    H139281   4.407   3.521   2.222  2.2298 -0.8684 -1.8440
 5930TIP3    H239282   4.383   3.467   2.082 -1.4207 -2.9192 -0.5621
 5931TIP3   OH239283   3.879   0.853   4.867  0.2037 -0.1788  0.5457
 5931TIP3    H139284   3.891   0.900   4.950 -0.9449  0.9149  0.1314
 5931TIP3    H239285   3.931   0.902   4.804 -0.4477  0.1497  0.2507
 5932TIP3   OH239286   1.428   4.189  14.257  0.3231  0.2963  0.2836
 5932TIP3    H139287   1.486   4.112  14.253 -0.4026 -0.3085  1.0144
 5932TIP3    H239288   1.471   4.254  14.202 -0.0568 -1.2976 -2.0404
 5933TIP3   OH239289   4.583   1.570   0.580 -0.0503  0.4841 -0.0571
 5933TIP3    H139290   4.610   1.662   0.576 -1.3891  0.8603 -2.1053
 5933TIP3    H239291   4.498   1.572   0.624 -0.2465  0.2882 -0.4235
 5934TIP3   OH239292   3.652   6.132   0.041 -0.3874  0.0445 -0.1217
 5934TIP3    H139293   3.705   6.169  -0.030 -0.0908  1.4908  0.8073
 5934TIP3    H239294   3.669   6.190   0.116  0.9943 -2.6247  1.7916
 5935TIP3   OH239295   0.697   2.662   5.871  0.0340  0.4163  0.0967
 5935TIP3    H139296   0.790   2.653   5.853 -0.2145  0.6929 -1.4069
 5935TIP3    H239297   0.665   2.573   5.880  0.5019  0.3301  1.0070
 5936TIP3   OH239298   4.557   2.383   4.531  0.7675 -0.3056 -0.6154
 5936TIP3    H139299   4.593   2.414   4.614 -1.4615 -1.4556  0.8740
 5936TIP3    H239300   4.549   2.462   4.477  1.7521  0.5433  0.4287
 5937TIP3   OH239301   2.488   4.708   0.219  0.0660  0.0405  0.6062
 5937TIP3    H139302   2.539   4.755   0.285  0.4260  0.6498 -0.0976
 5937TIP3    H239303   2.552   4.685   0.151 -0.6597  1.1807 -0.4931
 5938TIP3   OH239304   5.588   6.680   5.721 -0.5573 -0.1174 -0.2340
 5938TIP3    H139305   5.618   6.598   5.760  0.2076  0.8577  1.3504
 5938TIP3    H239306   5.644   6.693   5.645 -1.1903 -1.4171 -0.9448
 5939TIP3   OH239307   1.244   5.840  17.152 -0.6270 -0.2612  0.1233
 5939TIP3    H139308   1.255   5.763  17.097  0.0573 -0.1142  0.0508
 5939TIP3    H239309   1.250   5.914  17.092  2.1733  0.0156  0.5913
 5940TIP3   OH239310   1.501   0.573  12.849  0.2516 -0.1204 -0.0646
 5940TIP3    H139311   1.452   0.504  12.804  0.8777  1.1426 -2.8889
 5940TIP3    H239312   1.592   0.560  12.822  0.4529  1.4822 -0.2366
 5941TIP3   OH239313   6.511   6.620  15.757 -0.0480 -0.3376  0.0071
 5941TIP3    H139314   6.545   6.705  15.785 -0.4340  0.2343 -1.1599
 5941TIP3    H239315   6.446   6.597  15.823 -1.9709  1.6476 -1.0497
 5942TIP3   OH239316   4.795   4.196   5.697 -0.0116  0.7564 -0.6155
 5942TIP3    H139317   4.710   4.193   5.654 -0.2727  0.1435 -0.0808
 5942TIP3    H239318   4.800   4.113   5.745  0.9008  0.7667 -0.6727
 5943TIP3   OH239319   0.262   5.787  11.302 -0.6596 -0.0579  0.3363
 5943TIP3    H139320   0.351   5.761  11.326  0.5917  3.3376 -0.1107
 5943TIP3    H239321   0.208   5.762  11.377  0.6910 -1.7378  0.8222
 5944TIP3   OH239322   5.833   1.656  13.206 -0.6547 -0.6289 -0.0848
 5944TIP3    H139323   5.869   1.662  13.295 -0.5621 -0.9377 -0.0999
 5944TIP3    H239324   5.745   1.693  13.213 -0.2282  0.4283 -0.1137
 5945TIP3   OH239325   5.052   6.296  12.484  0.0711 -0.1766 -0.0143
 5945TIP3    H139326   5.124   6.313  12.545 -0.5570  0.8587  0.4646
 5945TIP3    H239327   5.003   6.224  12.524  0.9476 -1.0301 -0.4493
 5946TIP3   OH239328   0.017   6.026   1.001  0.4525 -0.0195 -0.1412
 5946TIP3    H139329   0.054   6.105   1.040  0.0503 -0.0338  0.2821
 5946TIP3    H239330   0.020   6.041   0.907  1.4194  0.0286 -0.1195
 5947TIP3   OH239331   4.780   3.051   2.546  0.0250 -0.0547 -0.1073
 5947TIP3    H139332   4.844   2.981   2.536 -1.0952 -1.0117 -0.8221
 5947TIP3    H239333   4.828   3.121   2.591  1.4816 -0.8335 -0.3841
 5948TIP3   OH239334   5.417   2.496   1.044  0.6216  0.0586  0.6275
 5948TIP3    H139335   5.374   2.557   0.984  0.8476  0.1923  0.6034
 5948TIP3    H239336   5.349   2.432   1.065  0.2044  0.6405  1.1043
 5949TIP3   OH239337   0.014   0.204   3.431 -0.2568  0.1147 -0.1562
 5949TIP3    H139338   0.062   0.138   3.379  2.2592  0.1157  1.9881
 5949TIP3    H239339  -0.059   0.155   3.470  1.9528 -1.7419  1.9523
 5950TIP3   OH239340   4.427   0.878  11.989 -0.6977  0.0368  0.3390
 5950TIP3    H139341   4.490   0.828  11.938 -1.1670 -0.2485  0.0289
 5950TIP3    H239342   4.474   0.903  12.068 -0.1972 -0.1687  0.1087
 5951TIP3   OH239343   1.950   5.147   3.024 -0.1056  0.2846 -0.6673
 5951TIP3    H139344   1.896   5.084   2.977 -0.9688  0.7245 -0.2791
 5951TIP3    H239345   1.963   5.219   2.962  1.7247 -0.6789 -1.4785
 5952TIP3   OH239346   5.159   3.928  16.322  0.5302 -0.5999 -0.6938
 5952TIP3    H139347   5.084   3.971  16.281  0.4775  0.9643  0.9099
 5952TIP3    H239348   5.235   3.980  16.293  0.7485 -0.8997 -0.6615
 5953TIP3   OH239349   6.008   0.819   5.180 -0.0726 -0.4349 -0.3622
 5953TIP3    H139350   6.043   0.906   5.200 -0.3502 -0.2140 -0.8223
 5953TIP3    H239351   5.973   0.787   5.263 -0.8346  0.2926 -0.3908
 5954TIP3   OH239352   2.138   2.311  15.736 -0.2190 -0.0275 -0.1834
 5954TIP3    H139353   2.165   2.382  15.794 -0.6815 -0.4236  0.5377
 5954TIP3    H239354   2.045   2.327  15.720 -0.8554 -1.5358  1.6166
 5955TIP3   OH239355   3.068   5.477  13.222  0.0280 -0.1983  0.3677
 5955TIP3    H139356   3.041   5.386  13.232  1.6452 -0.7249  0.2358
 5955TIP3    H239357   3.163   5.475  13.230  0.2683  1.2192 -1.5104
 5956TIP3   OH239358   4.245   3.021  16.625 -0.4465 -0.2310 -0.4894
 5956TIP3    H139359   4.324   3.026  16.680 -1.2433 -0.6288  0.7431
 5956TIP3    H239360   4.277   2.994  16.539  0.7074 -0.9354  0.1303
 5957TIP3   OH239361   4.866   6.649  16.739 -0.4338  0.1348 -0.1519
 5957TIP3    H139362   4.797   6.687  16.793 -1.9181 -2.0359 -0.4011
 5957TIP3    H239363   4.937   6.713  16.742 -1.8370  1.7103  1.4202
 5958TIP3   OH239364   6.587   2.139   0.797 -0.5124 -0.3815 -0.0717
 5958TIP3    H139365   6.576   2.221   0.846 -2.7819  0.2626 -1.5353
 5958TIP3    H239366   6.576   2.071   0.863  1.7432  0.4108  1.2369
 5959TIP3   OH239367   6.783   2.094  15.999  0.4024  0.6713 -0.1402
 5959TIP3    H139368   6.769   2.045  15.918  1.8074  2.6394 -1.6553
 5959TIP3    H239369   6.754   2.034  16.068 -1.3198 -0.8940 -2.0871
 5960TIP3   OH239370   5.118   4.215  13.664 -0.3496  0.1821  0.2674
 5960TIP3    H139371   5.078   4.300  13.682  0.4894  0.7273 -0.3838
 5960TIP3    H239372   5.161   4.191  13.746 -0.8763  0.2140  0.5574
 5961TIP3   OH239373   5.427   4.305  15.622 -0.1882 -0.5550 -0.2770
 5961TIP3    H139374   5.463   4.255  15.694 -0.6565  0.8084  0.9634
 5961TIP3    H239375   5.456   4.395  15.638 -2.0366  0.1500 -0.6004
 5962TIP3   OH239376   2.018   5.099   3.818 -0.8343 -0.6719  0.2974
 5962TIP3    H139377   2.079   5.171   3.829  1.4938 -2.1917 -1.6561
 5962TIP3    H239378   1.943   5.122   3.873  0.9131  1.9151  1.7838
 5963TIP3   OH239379   6.747   4.281   2.340  0.5485  0.2471  0.2119
 5963TIP3    H139380   6.697   4.200   2.350 -0.0966 -0.0405 -3.6396
 5963TIP3    H239381   6.838   4.256   2.357  0.3715 -1.3755 -1.0181
 5964TIP3   OH239382   0.992   3.508  13.345 -0.2136 -0.3182  0.7220
 5964TIP3    H139383   0.997   3.456  13.264  0.0428 -0.1848  0.6508
 5964TIP3    H239384   1.072   3.486  13.392  0.0534  0.2598  0.5411
 5965TIP3   OH239385   2.091   5.091   1.386 -0.2125 -0.1175  0.2338
 5965TIP3    H139386   2.116   5.178   1.355  0.4352  0.2473  1.6957
 5965TIP3    H239387   2.057   5.106   1.475  0.5786 -1.4217  0.7878
 5966TIP3   OH239388   0.380   6.557   5.130  0.0601 -0.6376  0.8543
 5966TIP3    H139389   0.357   6.482   5.185  1.2222 -1.9147 -0.3290
 5966TIP3    H239390   0.461   6.531   5.086  0.1732  1.0884 -0.0507
 5967TIP3   OH239391   2.866   1.235  15.920 -0.7500  0.6051  0.4807
 5967TIP3    H139392   2.830   1.215  16.006 -0.6414  0.8894  0.5956
 5967TIP3    H239393   2.960   1.218  15.929 -1.1729 -3.1988 -0.7072
 5968TIP3   OH239394   2.047   5.186   6.500 -0.1083  0.7654  0.2859
 5968TIP3    H139395   2.138   5.174   6.527 -0.8805 -0.4543  2.6724
 5968TIP3    H239396   2.024   5.103   6.459 -0.2868  0.8728  0.1698
 5969TIP3   OH239397   5.249   2.695  13.955 -0.1066  0.2096 -0.5203
 5969TIP3    H139398   5.179   2.759  13.968 -1.8298 -1.7938  0.5541
 5969TIP3    H239399   5.267   2.699  13.861 -1.2829  1.1399 -0.7393
 5970TIP3   OH239400   1.408   3.158   4.190 -0.3892 -0.0727 -0.6330
 5970TIP3    H139401   1.479   3.221   4.199 -0.8528  0.1479  2.2451
 5970TIP3    H239402   1.451   3.073   4.180  0.2710  0.1489  0.3255
 5971TIP3   OH239403   2.375   4.248   1.722  0.4005 -0.2171  0.4927
 5971TIP3    H139404   2.352   4.156   1.735  0.0226 -0.1394  0.3841
 5971TIP3    H239405   2.295   4.296   1.744  0.7926  0.1314  1.2073
 5972TIP3   OH239406   5.674   1.067  12.441 -0.2001 -0.0798 -0.5268
 5972TIP3    H139407   5.603   1.070  12.376  0.3454  0.6013 -1.1033
 5972TIP3    H239408   5.630   1.086  12.524 -0.7022  0.3586 -0.8810
 5973TIP3   OH239409   3.565   1.005  12.217  0.5946 -0.2592 -0.1249
 5973TIP3    H139410   3.618   1.037  12.144  0.7861 -0.4593 -0.0723
 5973TIP3    H239411   3.575   1.073  12.285  0.4556 -0.0978 -0.2636
 5974TIP3   OH239412   4.876   5.842   3.108  0.1753  0.3562  0.4214
 5974TIP3    H139413   4.795   5.851   3.158 -0.2105  0.1436 -0.1569
 5974TIP3    H239414   4.853   5.785   3.034  1.4568 -1.8808  1.6333
 5975TIP3   OH239415   2.921   3.703   2.248  0.3179 -0.1497 -0.0061
 5975TIP3    H139416   2.883   3.732   2.165  1.3422  0.7876 -0.1747
 5975TIP3    H239417   2.936   3.784   2.297  0.6914 -0.6154  0.6646
 5976TIP3   OH239418   2.645   3.964   1.014 -0.3235 -0.3943  0.4510
 5976TIP3    H139419   2.571   3.914   1.049 -0.6199  0.8841  1.7847
 5976TIP3    H239420   2.689   3.904   0.954 -3.5161 -0.5944 -1.9474
 5977TIP3   OH239421   5.538   3.915  14.477  0.3396  0.9786 -0.2230
 5977TIP3    H139422   5.483   3.840  14.502  0.8325  0.6980  0.0427
 5977TIP3    H239423   5.482   3.991  14.487  0.0055  0.6950  0.0717
 5978TIP3   OH239424   1.365   5.586  14.204 -0.1140 -0.2101  0.0330
 5978TIP3    H139425   1.321   5.540  14.133  0.2261 -1.1759  0.4262
 5978TIP3    H239426   1.452   5.608  14.169 -0.5173  0.7716 -0.3899
 5979TIP3   OH239427   5.114   6.741  12.735  0.5146 -0.3530  0.0097
 5979TIP3    H139428   5.162   6.682  12.793 -1.1832  0.0259  1.8942
 5979TIP3    H239429   5.031   6.697  12.719  0.1535  0.4704 -0.4586
 5980TIP3   OH239430   4.638   3.220   2.398  0.2733 -0.3448 -0.3546
 5980TIP3    H139431   4.552   3.182   2.384 -0.4926  0.9890  0.4087
 5980TIP3    H239432   4.686   3.155   2.449 -1.2428 -0.0531  1.5612
 5981TIP3   OH239433   4.194   1.861   2.312 -0.3296  0.4358  0.7371
 5981TIP3    H139434   4.156   1.788   2.263 -2.2738  1.9724 -0.1830
 5981TIP3    H239435   4.254   1.819   2.375 -0.9552 -1.8770 -0.1040
 5982TIP3   OH239436   4.713   0.011   5.566  0.1288  0.0537  0.4760
 5982TIP3    H139437   4.645   0.072   5.538  0.0095 -0.1808  0.2509
 5982TIP3    H239438   4.791   0.065   5.576 -0.0927  0.3275  0.7502
 5983TIP3   OH239439   4.994   6.470   0.455  0.0579 -0.3377  0.1815
 5983TIP3    H139440   4.953   6.556   0.442  0.6833 -0.1134 -0.3286
 5983TIP3    H239441   5.086   6.489   0.474  0.3372 -0.9196 -0.5558
 5984TIP3   OH239442   5.881   2.293   5.154  0.6567 -0.1766  0.0652
 5984TIP3    H139443   5.800   2.342   5.170  0.9335  0.4350 -0.3994
 5984TIP3    H239444   5.927   2.343   5.087  0.6663 -1.3946 -0.8786
 5985TIP3   OH239445   4.125   5.351   6.595  0.2062 -0.5550 -0.1769
 5985TIP3    H139446   4.098   5.288   6.528 -4.2379 -2.5250  3.0210
 5985TIP3    H239447   4.098   5.436   6.560  0.9640 -1.0584 -2.1362
 5986TIP3   OH239448   0.917   6.055  12.700  0.3194  0.2962 -0.3783
 5986TIP3    H139449   0.889   6.113  12.771  1.5106 -0.3156  0.6162
 5986TIP3    H239450   0.839   6.005  12.679 -0.4569  1.5355 -0.5557
 5987TIP3   OH239451   0.623   6.306   0.579  0.2582 -0.1356 -0.1334
 5987TIP3    H139452   0.581   6.337   0.499 -0.4552 -0.7028  0.0134
 5987TIP3    H239453   0.586   6.219   0.594  2.3533 -1.1805 -0.6425
 5988TIP3   OH239454   1.543   2.342   4.114 -0.5738 -0.0236 -0.2708
 5988TIP3    H139455   1.506   2.426   4.087  0.2380  0.1920 -0.7558
 5988TIP3    H239456   1.610   2.324   4.048  0.6979 -0.0266  0.9819
 5989TIP3   OH239457   3.721   2.076  16.766 -0.1031 -0.2650  0.4273
 5989TIP3    H139458   3.775   2.091  16.689 -0.3085  0.8699  0.4958
 5989TIP3    H239459   3.644   2.130  16.754  0.9671  1.9434  2.5280
 5990TIP3   OH239460   4.409   5.998   5.760  0.0362 -0.1219 -0.1131
 5990TIP3    H139461   4.370   5.923   5.806 -1.1217 -0.0664 -0.9730
 5990TIP3    H239462   4.503   5.981   5.763 -0.2100 -1.6451 -0.3395
 5991TIP3   OH239463   6.072   1.475  16.565 -0.1327  0.2576  0.3505
 5991TIP3    H139464   6.096   1.568  16.573  1.4849 -0.1668  0.7215
 5991TIP3    H239465   6.102   1.436  16.647 -2.6027 -0.2652  1.0773
 5992TIP3   OH239466   3.655   6.509  16.201 -0.6523 -0.4187  0.8948
 5992TIP3    H139467   3.689   6.436  16.251 -0.7740 -0.8603  0.3515
 5992TIP3    H239468   3.714   6.517  16.126 -0.3889  0.3190  1.1671
 5993TIP3   OH239469   0.534   6.068   0.586 -0.1905 -0.1540 -0.0254
 5993TIP3    H139470   0.542   5.983   0.630  0.5100  0.0415  0.2384
 5993TIP3    H239471   0.518   6.047   0.494 -1.6363 -0.5685  0.3067
 5994TIP3   OH239472   3.002   3.901  17.047  0.3537  0.3176 -0.2515
 5994TIP3    H139473   3.087   3.945  17.048  0.4842  0.0624  0.4187
 5994TIP3    H239474   2.997   3.858  17.132  0.0058 -0.5321 -0.6913
 5995TIP3   OH239475   1.506   3.774  14.729 -0.2050 -0.5098 -0.0881
 5995TIP3    H139476   1.448   3.779  14.805 -0.6419 -0.0828 -0.4349
 5995TIP3    H239477   1.574   3.839  14.746 -0.8166  0.2572 -0.4630
 5996TIP3   OH239478   0.499   0.586  13.345 -0.3670  0.6250  0.3513
 5996TIP3    H139479   0.436   0.602  13.416 -0.7443 -2.0040  0.6943
 5996TIP3    H239480   0.585   0.590  13.387 -0.4332  1.5832  0.4153
 5997TIP3   OH239481   5.136   3.566  13.798  0.2811  0.6171  0.3843
 5997TIP3    H139482   5.131   3.475  13.769 -2.3211  0.9233 -0.4465
 5997TIP3    H239483   5.160   3.616  13.720 -1.5578  0.9163 -0.0397
 5998TIP3   OH239484   2.198   6.346  14.267  0.4675  0.4318  0.6485
 5998TIP3    H139485   2.247   6.277  14.222  0.2237  1.2398 -0.9264
 5998TIP3    H239486   2.106   6.326  14.250  0.3326  0.3610  1.4050
 5999TIP3   OH239487   1.010   4.149   1.202 -0.7218 -0.2055 -0.3396
 5999TIP3    H139488   0.944   4.104   1.149  0.6932 -0.5763 -1.8660
 5999TIP3    H239489   1.062   4.197   1.139 -1.6848  3.0745  1.1497
 6000TIP3   OH239490   0.068   1.811  16.126 -0.0934 -0.2290  0.3104
 6000TIP3    H139491   0.004   1.755  16.170  0.3383  0.6484  2.2036
 6000TIP3    H239492   0.022   1.845  16.050 -1.6742 -0.1749  1.2363
 6001TIP3   OH239493   6.748   1.024   5.897  0.1933 -0.6204 -0.1787
 6001TIP3    H139494   6.666   1.025   5.848  0.8725 -0.6197 -1.3583
 6001TIP3    H239495   6.723   0.997   5.985 -1.1579  0.0258 -0.3409
 6002TIP3   OH239496   0.590   1.292  10.566  0.7257  1.0834 -0.0323
 6002TIP3    H139497   0.600   1.197  10.554 -0.8842  0.9428 -0.5367
 6002TIP3    H239498   0.509   1.313  10.519  1.0528  2.7111  0.0926
 6003TIP3   OH239499   3.577   6.535   1.344 -0.2927 -0.7042 -0.2215
 6003TIP3    H139500   3.633   6.475   1.295  0.3439 -0.7144  0.4999
 6003TIP3    H239501   3.612   6.622   1.326 -1.7103 -0.4289 -1.9215
 6004TIP3   OH239502   1.990   0.593   3.599 -0.7871 -1.0516  0.5637
 6004TIP3    H139503   1.997   0.611   3.506  0.8799  1.2604  1.0456
 6004TIP3    H239504   1.998   0.498   3.606 -0.2981 -1.2115 -1.5916
 6005TIP3   OH239505   6.626   6.822  13.840  0.2549 -0.0746  0.2560
 6005TIP3    H139506   6.684   6.747  13.827  3.1949  1.9187  0.8904
 6005TIP3    H239507   6.640   6.877  13.762 -0.9160  0.4193  0.3670
 6006TIP3   OH239508   2.850   5.110   3.483 -0.3428 -0.2784 -0.2055
 6006TIP3    H139509   2.878   5.186   3.533 -0.8886 -0.4892  0.4311
 6006TIP3    H239510   2.821   5.146   3.399  0.4308  0.0882 -0.3256
 6007TIP3   OH239511   3.893   1.397  15.321 -0.2638  0.1073 -0.2930
 6007TIP3    H139512   3.981   1.361  15.306  0.6232  1.6297  0.9335
 6007TIP3    H239513   3.834   1.323  15.308  1.2543 -1.1240 -0.4535
 6008TIP3   OH239514   2.393   4.459   5.615 -0.0959 -0.3341 -0.3736
 6008TIP3    H139515   2.409   4.459   5.710 -2.8217 -1.2065  0.1740
 6008TIP3    H239516   2.385   4.551   5.592  3.0928  0.0674 -0.3497
 6009TIP3   OH239517   4.397   5.972  14.023 -0.1193 -0.1660  0.3268
 6009TIP3    H139518   4.433   5.956  14.110 -2.0559  1.4303  1.5104
 6009TIP3    H239519   4.311   5.930  14.025 -0.9193  1.3684 -0.1461
 6010TIP3   OH239520   4.080   2.653  15.502 -0.5097 -0.5661 -0.6578
 6010TIP3    H139521   4.021   2.684  15.433 -0.9615  0.5600  0.2093
 6010TIP3    H239522   4.167   2.664  15.464 -0.5111  3.2102  0.0309
 6011TIP3   OH239523   6.384   1.822  11.734 -0.0160 -0.5402  0.3906
 6011TIP3    H139524   6.464   1.798  11.781 -0.4570 -1.1560  0.8383
 6011TIP3    H239525   6.405   1.809  11.642  0.9723  0.9934  0.3595
 6012TIP3   OH239526   4.619   5.271  10.868 -0.0234 -0.0981  0.0225
 6012TIP3    H139527   4.642   5.339  10.932 -0.1113  0.9061 -0.9741
 6012TIP3    H239528   4.526   5.255  10.882  0.6511 -2.5632  2.5731
 6013TIP3   OH239529   2.921   4.687   3.228 -0.3418 -0.0180 -0.5818
 6013TIP3    H139530   2.854   4.749   3.257 -0.5770 -1.1989  1.6012
 6013TIP3    H239531   2.899   4.671   3.136 -4.1913 -1.6396  0.3991
 6014TIP3   OH239532   5.684   4.046   5.640 -0.2683 -0.3287 -0.6311
 6014TIP3    H139533   5.627   3.972   5.661 -0.5130  0.1200  0.3408
 6014TIP3    H239534   5.631   4.101   5.583 -0.4626 -0.3858 -0.5090
 6015TIP3   OH239535   4.134   5.385   1.168  0.1021 -0.3374  0.8366
 6015TIP3    H139536   4.142   5.339   1.085  2.8066  0.8964  0.3301
 6015TIP3    H239537   4.168   5.324   1.234  1.8117  0.1404  0.4363
 6016TIP3   OH239538   4.395   1.835   5.189 -0.2476  0.9837  0.1174
 6016TIP3    H139539   4.421   1.919   5.151 -0.3259  0.7993 -0.3467
 6016TIP3    H239540   4.385   1.853   5.282  2.5715  0.8617  0.5371
 6017TIP3   OH239541   2.488   5.991   1.217  0.5603  0.3276 -0.4405
 6017TIP3    H139542   2.400   5.960   1.196  1.4973 -1.9647 -1.3158
 6017TIP3    H239543   2.512   6.046   1.142  0.6461 -0.7920 -1.2617
 6018TIP3   OH239544   5.521   6.292  10.527 -0.1357  0.7095 -0.2477
 6018TIP3    H139545   5.540   6.348  10.452  1.3273 -0.7848 -1.0620
 6018TIP3    H239546   5.577   6.325  10.598 -1.1965  1.8489  0.0832
 6019TIP3   OH239547   5.466   2.372   5.908 -0.4011  0.4901  0.7617
 6019TIP3    H139548   5.474   2.439   5.975  0.9060  0.7093  0.4191
 6019TIP3    H239549   5.520   2.299   5.941 -0.9422  0.0262  0.6332
 6020TIP3   OH239550   4.796   0.500  14.680  0.4346  0.1072 -0.4146
 6020TIP3    H139551   4.806   0.424  14.736  0.0586  0.1304 -0.3114
 6020TIP3    H239552   4.770   0.571  14.739  0.5581  0.2597 -0.5414
 6021TIP3   OH239553   2.567   2.810   3.941 -0.1765  0.5408  0.1918
 6021TIP3    H139554   2.574   2.847   3.853  0.2652 -0.4068 -0.1832
 6021TIP3    H239555   2.656   2.813   3.975  0.2394 -1.7511 -0.5200
 6022TIP3   OH239556   0.008   1.971  14.693 -0.1353  0.1315 -0.1485
 6022TIP3    H139557   0.057   2.025  14.754  0.3488 -1.1102  0.5912
 6022TIP3    H239558  -0.049   1.917  14.748 -1.2686  0.4889 -0.9189
 6023TIP3   OH239559   0.561   2.460   2.187 -0.4565  0.0326  0.0539
 6023TIP3    H139560   0.614   2.417   2.120 -0.1169  0.1274  0.2594
 6023TIP3    H239561   0.506   2.390   2.222  1.2229 -0.6145  1.5071
 6024TIP3   OH239562   4.549   1.887  11.054 -0.3325 -0.3147  0.1398
 6024TIP3    H139563   4.616   1.877  11.122  0.5879  1.3910 -0.4483
 6024TIP3    H239564   4.469   1.910  11.102  0.2534  0.6582  0.6905
 6025TIP3   OH239565   4.816   6.580  17.180  0.4222 -0.1542 -0.1173
 6025TIP3    H139566   4.862   6.514  17.128 -0.2510 -1.1121  0.4713
 6025TIP3    H239567   4.836   6.663  17.136  0.4496 -0.8518 -1.4761
 6026TIP3   OH239568   2.511   1.579   3.030  0.2740 -0.1981  0.0054
 6026TIP3    H139569   2.509   1.637   3.106  1.9915  1.7867 -1.3514
 6026TIP3    H239570   2.604   1.556   3.020 -0.3350 -3.2242  0.4474
 6027TIP3   OH239571   1.552   4.456  16.550  0.4073  0.0855 -0.6156
 6027TIP3    H139572   1.605   4.391  16.596  0.8230 -0.0407 -1.2502
 6027TIP3    H239573   1.614   4.499  16.491 -0.1355  0.1449 -1.1478
 6028TIP3   OH239574   0.933   6.504   4.697 -0.0158  0.4968 -0.1591
 6028TIP3    H139575   1.006   6.505   4.635  0.4902  1.8888  0.4014
 6028TIP3    H239576   0.941   6.421   4.744 -0.5252 -0.6794 -2.0381
 6029TIP3   OH239577   6.382   6.212  11.718  0.0219 -0.5763  0.0610
 6029TIP3    H139578   6.376   6.237  11.626  0.3694  1.1911  0.5000
 6029TIP3    H239579   6.333   6.129  11.722 -2.5336  0.7344 -1.1858
 6030TIP3   OH239580   0.817   3.627   0.011  0.1432 -0.4265  0.2065
 6030TIP3    H139581   0.749   3.691  -0.010 -1.2358 -2.6014 -2.6811
 6030TIP3    H239582   0.770   3.555   0.052  1.1104 -0.9520  0.4225
 6031TIP3   OH239583   1.317   1.505   4.676 -0.4694  0.9392 -0.5026
 6031TIP3    H139584   1.224   1.523   4.666 -1.1530 -1.3260  0.9687
 6031TIP3    H239585   1.354   1.519   4.589 -2.4738  0.4628 -1.4888
 6032TIP3   OH239586   2.385   6.244   1.886  0.3936 -0.2383  0.3943
 6032TIP3    H139587   2.306   6.216   1.841 -0.1817  0.4537  0.9365
 6032TIP3    H239588   2.430   6.163   1.909  0.4301 -0.6062 -0.9320
 6033TIP3   OH239589   2.777   5.640  10.686 -0.2600  0.9591  0.2978
 6033TIP3    H139590   2.801   5.733  10.686 -1.2867  1.2349  0.7789
 6033TIP3    H239591   2.700   5.635  10.630  1.5482 -0.1217 -2.2676
 6034TIP3   OH239592   1.096   5.066  13.479 -0.1272 -0.4100  0.0333
 6034TIP3    H139593   1.036   5.126  13.434 -0.9135 -0.4032  1.0623
 6034TIP3    H239594   1.154   5.124  13.529  0.7985 -0.4140 -1.0117
 6035TIP3   OH239595   6.689   4.267   5.696  0.5469  0.3279  0.0804
 6035TIP3    H139596   6.623   4.274   5.627  1.9009  1.8638 -1.1435
 6035TIP3    H239597   6.759   4.215   5.657  0.8054  0.1711  0.7452
 6036TIP3   OH239598   4.455   0.772   6.526 -0.9153  0.2235 -0.5826
 6036TIP3    H139599   4.430   0.842   6.586  0.6662  0.7479 -0.4693
 6036TIP3    H239600   4.550   0.762   6.540 -0.5890  0.0357 -2.6482
 6037TIP3   OH239601   2.177   2.156  12.599  0.5001 -0.3605 -0.3764
 6037TIP3    H139602   2.153   2.112  12.680 -1.6799  0.7756 -0.3553
 6037TIP3    H239603   2.196   2.085  12.537 -0.0307 -1.2543  0.4750
 6038TIP3   OH239604   4.909   2.815  12.143  0.5622  0.0784  0.0273
 6038TIP3    H139605   4.892   2.740  12.087  1.0043 -0.1709  0.2241
 6038TIP3    H239606   4.911   2.890  12.083 -0.6928  0.0569 -0.0696
 6039TIP3   OH239607   3.284   1.847  14.050  0.0170  0.1221  0.6978
 6039TIP3    H139608   3.373   1.827  14.080  0.3185 -0.8741 -0.7280
 6039TIP3    H239609   3.245   1.762  14.033 -0.5114  0.5829 -0.5541
 6040TIP3   OH239610   0.955   6.088   0.504 -0.8990 -0.0308 -0.6263
 6040TIP3    H139611   0.913   6.094   0.590 -1.9121 -0.9948 -1.0307
 6040TIP3    H239612   1.027   6.027   0.516 -1.2496 -0.4305 -0.5314
 6041TIP3   OH239613   3.650   6.112   1.085 -0.3401  0.5349 -0.5832
 6041TIP3    H139614   3.599   6.189   1.060 -0.1018  1.6160  1.8948
 6041TIP3    H239615   3.738   6.130   1.054 -0.3384  1.1560 -0.2209
 6042TIP3   OH239616   4.363   3.972  17.152 -0.1905 -0.0398  0.0173
 6042TIP3    H139617   4.311   3.910  17.203 -3.1863 -0.1767 -2.8502
 6042TIP3    H239618   4.409   3.918  17.088  1.0581  0.3910  0.5033
 6043TIP3   OH239619   3.701   5.713   1.557  0.1950  0.2220  0.0450
 6043TIP3    H139620   3.712   5.717   1.462 -0.7804 -0.4289 -0.1163
 6043TIP3    H239621   3.730   5.798   1.589  3.0033 -0.4247 -0.5523
 6044TIP3   OH239622   1.089   5.048   2.495 -0.1773  0.3410  0.2619
 6044TIP3    H139623   1.005   5.004   2.508  0.6418 -2.3573 -2.2264
 6044TIP3    H239624   1.105   5.096   2.576 -3.8697  0.6365  0.9702
 6045TIP3   OH239625   4.207   5.166  13.852 -0.3025  0.0945 -0.2314
 6045TIP3    H139626   4.119   5.177  13.887  0.0836  0.1563  0.7573
 6045TIP3    H239627   4.214   5.232  13.783 -1.5323 -0.9025 -1.3537
 6046TIP3   OH239628   3.915   0.552   0.171 -0.1010 -0.1761  0.3506
 6046TIP3    H139629   3.969   0.521   0.098  0.4201 -1.0465  1.0918
 6046TIP3    H239630   3.950   0.639   0.192  1.6346 -1.0816  1.4051
 6047TIP3   OH239631   4.010   4.607   3.088 -0.3801  0.0429  0.0304
 6047TIP3    H139632   3.956   4.636   3.162 -4.0439 -2.2096 -1.4598
 6047TIP3    H239633   4.025   4.687   3.038 -1.1978  1.0017  1.2255
 6048TIP3   OH239634   2.649   3.253  11.436  0.2935 -0.4746  0.0589
 6048TIP3    H139635   2.675   3.302  11.358  0.0567 -0.4133  0.0152
 6048TIP3    H239636   2.640   3.319  11.504 -2.7848  0.0151 -0.6708
 6049TIP3   OH239637   1.987   1.001  13.511 -0.7203  0.2918  0.2154
 6049TIP3    H139638   1.940   1.022  13.591  1.2295  1.6162  1.0965
 6049TIP3    H239639   1.919   0.972  13.450 -2.1032 -2.1177  2.7126
 6050TIP3   OH239640   6.609   6.097   3.651 -1.1275  0.0279  0.3040
 6050TIP3    H139641   6.547   6.166   3.630 -2.5495 -1.6002 -1.2221
 6050TIP3    H239642   6.614   6.044   3.571 -0.0496 -1.5530  1.3599
 6051TIP3   OH239643   6.219   0.201   2.341 -0.1214 -0.0640 -0.0796
 6051TIP3    H139644   6.292   0.238   2.292 -0.6706 -0.3854 -1.1619
 6051TIP3    H239645   6.237   0.107   2.344 -0.8136 -0.2380 -0.9386
 6052TIP3   OH239646   6.230   3.976   4.835 -0.4479 -0.1227 -0.2094
 6052TIP3    H139647   6.203   3.935   4.917 -3.4758 -0.3475 -1.1672
 6052TIP3    H239648   6.194   4.065   4.840  0.0052  0.1099 -0.9568
 6053TIP3   OH239649   3.402   2.466   4.336  0.3361 -0.3422  0.0502
 6053TIP3    H139650   3.313   2.491   4.362  0.5917 -0.0127  0.6275
 6053TIP3    H239651   3.459   2.530   4.380  0.8859 -0.8200  0.0416
 6054TIP3   OH239652   0.402   1.424  16.359 -0.3552 -0.0053  0.0748
 6054TIP3    H139653   0.458   1.347  16.357  0.9679  0.9308 -1.0230
 6054TIP3    H239654   0.313   1.389  16.353  0.1796 -1.4654  0.2370
 6055TIP3   OH239655   2.893   1.384  12.003 -0.3420  0.0370  0.1022
 6055TIP3    H139656   2.910   1.478  11.994  0.5296 -0.1336 -0.0778
 6055TIP3    H239657   2.847   1.360  11.923  0.3956  0.0988 -0.3446
 6056TIP3   OH239658   5.622   5.245   1.944 -0.3148 -0.1388 -0.6704
 6056TIP3    H139659   5.579   5.330   1.934 -0.5908 -0.1282  0.4200
 6056TIP3    H239660   5.704   5.253   1.896 -0.0882  0.9306 -0.1365
 6057TIP3   OH239661   4.278   2.563  12.853  0.2868  0.4041  0.0368
 6057TIP3    H139662   4.290   2.486  12.796 -1.1602  1.5104 -1.8976
 6057TIP3    H239663   4.203   2.540  12.908 -0.9761  0.8081 -1.4125
 6058TIP3   OH239664   2.041   3.724  16.764 -0.1249 -0.3169  0.4651
 6058TIP3    H139665   2.098   3.791  16.801 -0.2035  0.0137  0.0022
 6058TIP3    H239666   2.055   3.730  16.670 -0.2718 -0.8278  0.4078
 6059TIP3   OH239667   5.671   2.263   4.091 -0.1723 -0.2222 -0.6730
 6059TIP3    H139668   5.667   2.169   4.107 -0.5143 -0.2651 -0.9822
 6059TIP3    H239669   5.762   2.281   4.070 -0.0396 -0.4279 -0.2728
 6060TIP3   OH239670   5.168   5.537   5.453  0.2093  0.6071  0.6277
 6060TIP3    H139671   5.230   5.486   5.400 -1.3687 -0.2621 -0.4511
 6060TIP3    H239672   5.090   5.482   5.458 -1.4051  2.6772 -0.1619
 6061TIP3   OH239673   0.544   2.906   0.320 -0.1693 -0.5682 -0.2290
 6061TIP3    H139674   0.522   2.995   0.346  0.9536 -0.3930  0.1480
 6061TIP3    H239675   0.585   2.916   0.234 -1.7784 -0.9260 -1.0827
 6062TIP3   OH239676   3.607   2.196  12.597  0.5938  0.3186 -1.0309
 6062TIP3    H139677   3.516   2.178  12.574 -0.4014  1.3351  1.6090
 6062TIP3    H239678   3.648   2.110  12.603 -1.0684 -0.4241  0.6787
 6063TIP3   OH239679   3.464   4.632  10.969 -0.0765 -0.8259 -0.3228
 6063TIP3    H139680   3.547   4.592  10.996  0.4692  0.4219 -0.0553
 6063TIP3    H239681   3.458   4.614  10.875  0.5056 -0.9050 -0.3474
 6064TIP3   OH239682   2.326   1.636   2.388 -0.9283 -0.1226 -0.6268
 6064TIP3    H139683   2.271   1.558   2.401 -0.0901 -0.5595  0.3858
 6064TIP3    H239684   2.397   1.627   2.451  1.3495 -0.4781 -3.0409
 6065TIP3   OH239685   2.846   0.250   1.339 -0.2850 -0.6201  0.5818
 6065TIP3    H139686   2.898   0.270   1.417 -1.0450 -1.8711  1.4483
 6065TIP3    H239687   2.755   0.267   1.366 -0.3592  2.0119 -1.0627
 6066TIP3   OH239688   4.066   5.730   4.288  0.6418 -0.2829  0.2596
 6066TIP3    H139689   4.074   5.747   4.194  2.6672 -0.4996  0.3491
 6066TIP3    H239690   4.049   5.816   4.327  1.0598  0.0108 -0.1931
 6067TIP3   OH239691   6.529   0.032  12.946 -0.5186 -0.4756  0.5411
 6067TIP3    H139692   6.548   0.113  12.993 -0.0532 -0.6521  0.6684
 6067TIP3    H239693   6.615   0.001  12.917 -0.8761  0.0355 -1.1279
 6068TIP3   OH239694   6.172   5.090   5.723 -0.7179 -0.4655 -0.4974
 6068TIP3    H139695   6.101   5.153   5.738  1.2470  2.2758 -1.9055
 6068TIP3    H239696   6.214   5.080   5.808 -0.1553  1.3891 -0.5206
 6069TIP3   OH239697   0.334   3.095  10.724 -0.5367  0.1730  0.3286
 6069TIP3    H139698   0.243   3.096  10.754 -0.2190 -0.2988  1.3671
 6069TIP3    H239699   0.359   3.002  10.724  0.3352  0.3889  1.3326
 6070TIP3   OH239700   0.668   6.253   3.927  0.9450  0.0011 -0.3701
 6070TIP3    H139701   0.642   6.210   4.009  1.3452 -0.7431 -0.6261
 6070TIP3    H239702   0.715   6.186   3.879 -1.0892 -0.2538 -2.1585
 6071TIP3   OH239703   1.765   5.440  11.012 -0.0343 -1.1085  0.2744
 6071TIP3    H139704   1.787   5.465  11.101  0.2679  2.3050 -0.6165
 6071TIP3    H239705   1.849   5.424  10.970 -0.0737 -1.0579  0.1753
 6072TIP3   OH239706   3.865   0.299  12.981  0.3204  0.3868 -0.4724
 6072TIP3    H139707   3.932   0.359  12.948  2.0535 -1.1843  0.0059
 6072TIP3    H239708   3.876   0.301  13.076  0.3104 -0.5685 -0.4422
 6073TIP3   OH239709   1.777   3.945   2.097 -0.0246  0.3024 -0.0939
 6073TIP3    H139710   1.765   3.895   2.177  1.2391 -0.3507 -0.2881
 6073TIP3    H239711   1.805   4.032   2.126 -1.7326  0.7806  0.2255
 6074TIP3   OH239712   3.824   6.264  16.032  0.1801 -0.3949  0.3690
 6074TIP3    H139713   3.874   6.185  16.014  1.1568  0.5259 -1.0938
 6074TIP3    H239714   3.740   6.231  16.065  1.1238 -1.9872  1.3287
 6075TIP3   OH239715   1.708   0.081   1.801  0.5584  0.4968  0.4711
 6075TIP3    H139716   1.726   0.074   1.707 -2.3932  1.1605 -0.2648
 6075TIP3    H239717   1.644   0.012   1.818 -1.3647  2.3225  1.1796
 6076TIP3   OH239718   1.016   4.555  11.365  0.4558 -0.5853  0.2944
 6076TIP3    H139719   1.042   4.590  11.451  1.4118 -0.3330 -0.0792
 6076TIP3    H239720   0.922   4.538  11.373  0.2815  0.6115  0.9928
 6077TIP3   OH239721   1.594   0.913   5.859  0.6647  0.2194  0.0292
 6077TIP3    H139722   1.611   0.997   5.901  1.2820  0.8551 -1.4375
 6077TIP3    H239723   1.662   0.855   5.893  0.1214  0.2216  1.1953
 6078TIP3   OH239724   2.154   1.260   1.940  0.0774  0.2094 -0.1072
 6078TIP3    H139725   2.185   1.306   2.018 -1.0996  0.8992 -0.0143
 6078TIP3    H239726   2.098   1.191   1.974  1.0429 -0.6917 -0.2911
 6079TIP3   OH239727   1.075   0.067   0.694  0.0306 -0.0814 -0.2987
 6079TIP3    H139728   1.089   0.081   0.788 -2.6908 -0.1523  0.1979
 6079TIP3    H239729   1.129   0.134   0.652  2.0520 -0.6518  1.2263
 6080TIP3   OH239730   3.607   2.614   1.614  0.3264 -0.3796 -0.4607
 6080TIP3    H139731   3.695   2.598   1.649  0.5671  0.0183 -0.8602
 6080TIP3    H239732   3.555   2.539   1.643  0.7226 -0.4708  0.0339
 6081TIP3   OH239733   3.481   1.683   2.569  0.2601  0.3388 -0.4274
 6081TIP3    H139734   3.541   1.608   2.567 -0.0711  0.0072  0.9355
 6081TIP3    H239735   3.425   1.666   2.644 -0.6169  1.3680 -0.8257
 6082TIP3   OH239736   3.366   6.639   3.603  0.2242  0.4648  0.7390
 6082TIP3    H139737   3.420   6.712   3.574  0.6414 -0.5445 -1.2067
 6082TIP3    H239738   3.280   6.657   3.564 -0.0333  0.5543  1.3382
 6083TIP3   OH239739   0.900   3.742  10.982  0.0179 -0.2148  0.0082
 6083TIP3    H139740   0.971   3.760  11.044 -0.6338  0.3240  0.6262
 6083TIP3    H239741   0.900   3.817  10.923 -0.3892  0.0735  0.3627
 6084TIP3   OH239742   5.698   1.071   4.773  0.0508  0.4055 -0.2432
 6084TIP3    H139743   5.650   1.153   4.767  2.0538  1.8688  1.7253
 6084TIP3    H239744   5.645   1.015   4.830 -1.3380  0.2848 -1.6176
 6085TIP3   OH239745   4.694   5.018  15.518  0.1243 -0.0602 -0.2560
 6085TIP3    H139746   4.636   4.945  15.499 -2.7634  1.3219  2.4328
 6085TIP3    H239747   4.637   5.087  15.553  3.0684  2.3956  0.1889
 6086TIP3   OH239748   0.238   3.634   5.047 -0.3368 -0.2503 -0.2172
 6086TIP3    H139749   0.245   3.714   4.995 -0.3407  1.2622  1.9450
 6086TIP3    H239750   0.283   3.567   4.996  0.8015  1.4542 -1.5337
 6087TIP3   OH239751   4.461   3.411   6.367  0.0813 -0.0279  0.4380
 6087TIP3    H139752   4.517   3.366   6.430  0.5157 -0.2770 -0.1133
 6087TIP3    H239753   4.503   3.496   6.354  0.9178 -0.5895 -0.7281
 6088TIP3   OH239754   2.284   6.594   5.132  0.0255  0.3204 -0.0674
 6088TIP3    H139755   2.255   6.635   5.051  0.4576  0.2820 -0.2383
 6088TIP3    H239756   2.206   6.548   5.164  0.1978 -0.7105 -1.0969
 6089TIP3   OH239757   6.188   1.898  16.964 -0.7831  0.4384 -0.6495
 6089TIP3    H139758   6.266   1.903  16.909 -0.8029  0.2469 -0.6952
 6089TIP3    H239759   6.142   1.981  16.949 -1.3769 -0.0831 -1.8000
 6090TIP3   OH239760   6.355   2.037   2.383 -0.0578  0.5945  0.0084
 6090TIP3    H139761   6.422   2.063   2.319 -1.2492  2.1648 -0.6552
 6090TIP3    H239762   6.273   2.038   2.334 -0.7263 -0.2701  1.0686
 6091TIP3   OH239763   0.059   5.949   5.518 -0.5986 -0.6944  0.7980
 6091TIP3    H139764   0.141   5.922   5.476 -0.5870 -2.1158  1.6549
 6091TIP3    H239765   0.074   6.040   5.543  0.1208 -0.4496 -0.4677
 6092TIP3   OH239766   2.885   2.073  14.438  0.1968  0.1442  0.3974
 6092TIP3    H139767   2.822   2.113  14.378  0.0544  0.6100  0.8500
 6092TIP3    H239768   2.907   1.989  14.397 -1.1521 -0.2933  0.5100
 6093TIP3   OH239769   0.925   0.455  14.647 -0.0154 -0.0030 -0.7076
 6093TIP3    H139770   0.878   0.508  14.711  0.6176  0.5601 -0.6995
 6093TIP3    H239771   0.911   0.364  14.676  0.0372  0.2297  0.0657
 6094TIP3   OH239772   2.458   1.313  15.263 -0.2132  0.2414  0.0454
 6094TIP3    H139773   2.468   1.402  15.229  0.0262  0.7116  1.2661
 6094TIP3    H239774   2.363   1.300  15.266 -0.2456  0.3713 -0.3411
 6095TIP3   OH239775   0.986   3.411   2.403 -0.1189 -0.2016  0.3666
 6095TIP3    H139776   1.053   3.409   2.471 -0.5190  1.6424  0.8758
 6095TIP3    H239777   1.003   3.493   2.355 -1.0733 -0.4661 -0.4543
 6096TIP3   OH239778   4.908   6.114   6.416 -0.5337  0.4992  0.0971
 6096TIP3    H139779   4.897   6.033   6.367  0.5918  0.3048  0.1617
 6096TIP3    H239780   4.818   6.140   6.438 -0.9699 -0.1520 -0.8364
 6097TIP3   OH239781   4.658   2.293  13.655  0.0568 -0.4697  0.1769
 6097TIP3    H139782   4.598   2.348  13.705 -1.1224 -2.1481  0.7142
 6097TIP3    H239783   4.744   2.332  13.669 -0.6124  0.6875  1.2754
 6098TIP3   OH239784   6.566   1.485  14.070 -0.1534 -0.4260  0.4308
 6098TIP3    H139785   6.554   1.415  14.006  0.0594 -0.9387  0.9416
 6098TIP3    H239786   6.486   1.537  14.064 -0.6170 -1.1066  0.5185
 6099TIP3   OH239787   5.448   2.923   3.331 -0.8997 -0.2748 -0.1797
 6099TIP3    H139788   5.542   2.923   3.349 -1.3235 -0.5578  2.4766
 6099TIP3    H239789   5.417   2.839   3.365 -2.4057  0.6894  0.9316
 6100TIP3   OH239790   4.409   6.679  12.757 -0.6489 -0.0944  0.1779
 6100TIP3    H139791   4.426   6.586  12.774 -0.6831  0.1437  1.6504
 6100TIP3    H239792   4.453   6.697  12.674 -0.2563 -1.3139  0.1010
 6101TIP3   OH239793   1.470   3.896  17.185  0.1803  0.1465  0.2989
 6101TIP3    H139794   1.553   3.927  17.148 -0.3065  0.7620 -0.3103
 6101TIP3    H239795   1.409   3.898  17.112 -0.6289  0.6781  0.9705
 6102TIP3   OH239796   5.834   1.838  12.848 -0.5746 -0.1255  0.1251
 6102TIP3    H139797   5.917   1.844  12.800 -1.0983  3.9733 -0.6433
 6102TIP3    H239798   5.861   1.826  12.939  0.9702  1.4546 -0.0541
 6103TIP3   OH239799   2.462   3.430   3.335 -0.1495 -0.1397 -0.1390
 6103TIP3    H139800   2.510   3.464   3.410 -1.9020 -0.7248  1.3274
 6103TIP3    H239801   2.479   3.493   3.264  2.4470 -0.1849  0.3738
 6104TIP3   OH239802   0.356   0.318  13.634  0.6572  0.1276  0.1906
 6104TIP3    H139803   0.383   0.410  13.635  0.4577  0.1856  0.5065
 6104TIP3    H239804   0.363   0.291  13.542  0.8556  0.4165  0.1201
 6105TIP3   OH239805   5.117   4.972   5.325  0.7023  0.5611  0.6286
 6105TIP3    H139806   5.092   4.959   5.234  0.3803  0.3944  0.7414
 6105TIP3    H239807   5.148   5.063   5.329  0.0789  0.7822  0.4988
 6106TIP3   OH239808   1.427   3.407   2.534 -0.5984 -0.0856  0.1825
 6106TIP3    H139809   1.475   3.358   2.468  1.3955  2.4606 -0.4128
 6106TIP3    H239810   1.429   3.498   2.503 -3.9596  0.5190  1.2743
 6107TIP3   OH239811   0.802   2.432  15.852 -0.1354  0.1375 -0.1422
 6107TIP3    H139812   0.866   2.381  15.802 -0.2673  1.3158 -1.5742
 6107TIP3    H239813   0.738   2.367  15.881 -0.8873 -0.4438 -2.8291
 6108TIP3   OH239814   4.873   1.005   6.414  0.4100  0.8629 -0.2578
 6108TIP3    H139815   4.845   1.032   6.326 -2.0302  1.2264  0.5337
 6108TIP3    H239816   4.846   1.077   6.471 -2.7880 -1.3982  1.4110
 6109TIP3   OH239817   6.558   4.100   0.743 -0.0772 -0.4481  0.4954
 6109TIP3    H139818   6.471   4.093   0.704  0.3177  0.0332 -0.4824
 6109TIP3    H239819   6.589   4.187   0.718  2.0394 -1.8023 -2.0817
 6110TIP3   OH239820   0.306   1.097  16.302  0.0134  0.0581 -0.2503
 6110TIP3    H139821   0.267   1.025  16.351 -3.0812 -0.5245 -3.2124
 6110TIP3    H239822   0.261   1.175  16.334 -0.7365 -0.0846 -0.9612
 6111TIP3   OH239823   0.011   4.093  15.250 -0.2244 -0.7220 -0.3471
 6111TIP3    H139824   0.001   4.104  15.345 -0.9509  0.6152 -0.5470
 6111TIP3    H239825   0.041   4.179  15.220  0.1861 -1.1921 -1.3156
 6112TIP3   OH239826   6.719   2.213  16.449  0.1143  0.4702  0.3104
 6112TIP3    H139827   6.636   2.182  16.412  0.2898 -0.0598  0.3543
 6112TIP3    H239828   6.729   2.163  16.530 -0.0643  1.3308  0.8729
 6113TIP3   OH239829   1.379   1.520  11.084 -0.3525 -0.5335  0.2731
 6113TIP3    H139830   1.348   1.610  11.078 -0.4154 -0.6321 -1.0617
 6113TIP3    H239831   1.352   1.479  11.002  2.2625 -0.9625 -0.4625
 6114TIP3   OH239832   1.966   2.937   1.490 -0.1002 -0.0491 -0.3653
 6114TIP3    H139833   2.016   2.857   1.506 -0.3044  0.0219  0.6793
 6114TIP3    H239834   1.875   2.911   1.503 -0.0994  0.5949  1.1127
 6115TIP3   OH239835   4.188   0.774  15.888 -0.9025 -0.2418  0.2057
 6115TIP3    H139836   4.121   0.711  15.859 -0.9007  0.3119 -1.0918
 6115TIP3    H239837   4.235   0.797  15.807 -0.8940  1.4069  0.6506
 6116TIP3   OH239838   3.986   1.360  15.000  0.0572  0.1188 -0.1303
 6116TIP3    H139839   3.931   1.360  15.078 -0.8570  1.7407 -0.7218
 6116TIP3    H239840   3.959   1.282  14.951 -0.1591 -0.2838  0.6117
 6117TIP3   OH239841   1.476   1.210  14.293 -0.6916  0.5401 -0.3344
 6117TIP3    H139842   1.527   1.156  14.353  0.0219  1.4961 -0.0472
 6117TIP3    H239843   1.397   1.158  14.274 -0.0797 -0.5343  0.0019
 6118TIP3   OH239844   5.867   2.453   5.541 -0.1393 -0.1956  0.0103
 6118TIP3    H139845   5.820   2.369   5.543  0.8523 -1.0223 -3.5010
 6118TIP3    H239846   5.947   2.438   5.590 -0.3928 -1.0054  0.1853
 6119TIP3   OH239847   6.649   4.302   1.629  0.0959  0.6289  0.3204
 6119TIP3    H139848   6.615   4.238   1.566 -0.9981  1.1288  0.3717
 6119TIP3    H239849   6.703   4.361   1.576 -0.7662  1.0098 -0.1585
 6120TIP3   OH239850   2.946   3.018  13.815  0.2370 -0.0884  0.4016
 6120TIP3    H139851   2.853   3.027  13.833  0.0724 -1.7290  0.4902
 6120TIP3    H239852   2.988   3.071  13.883 -0.5920 -0.4034  1.1747
 6121TIP3   OH239853   6.676   5.455  12.425  0.4403 -0.0403  0.3408
 6121TIP3    H139854   6.612   5.517  12.460  0.5656 -0.1519  0.7787
 6121TIP3    H239855   6.701   5.492  12.340 -1.4187 -0.8494 -0.6218
 6122TIP3   OH239856   5.440   0.293   5.843  0.0695  0.0827 -0.0305
 6122TIP3    H139857   5.369   0.234   5.869 -0.0267  0.6104  0.9509
 6122TIP3    H239858   5.520   0.243   5.857 -0.0281  0.0710  0.5247
 6123TIP3   OH239859   1.891   6.824   4.771 -0.4239 -0.1023  0.1822
 6123TIP3    H139860   1.884   6.741   4.724 -1.1303  0.1303 -0.1416
 6123TIP3    H239861   1.803   6.840   4.804 -0.1837  0.2871  0.6510
 6124TIP3   OH239862   0.629   3.079  16.674 -0.2044 -0.0289 -0.7145
 6124TIP3    H139863   0.677   3.004  16.709 -0.5439 -0.4409 -1.1222
 6124TIP3    H239864   0.674   3.100  16.592 -1.0949 -0.8237 -1.4260
 6125TIP3   OH239865   6.755   5.896  14.941 -0.2606  0.1457 -0.4309
 6125TIP3    H139866   6.767   5.808  14.977 -0.4445  0.1719 -0.3039
 6125TIP3    H239867   6.674   5.891  14.891  1.1337 -0.5104 -2.7926
 6126TIP3   OH239868   1.467   6.105   6.025  0.2928 -0.1158 -0.2030
 6126TIP3    H139869   1.417   6.143   6.098  1.2122  1.1007 -0.1729
 6126TIP3    H239870   1.553   6.145   6.032  0.6645 -0.6641 -1.4426
 6127TIP3   OH239871   6.624   2.530   5.034  0.9227  0.3891  0.4959
 6127TIP3    H139872   6.620   2.457   5.096 -1.0350 -2.6258 -2.8143
 6127TIP3    H239873   6.553   2.588   5.062 -0.6371 -1.4501  0.5948
 6128TIP3   OH239874   0.448   2.399  16.620  0.9751  0.1702 -0.0712
 6128TIP3    H139875   0.447   2.305  16.602 -0.0994  0.6895 -3.3844
 6128TIP3    H239876   0.540   2.423  16.616  1.3340 -0.7938  1.5180
 6129TIP3   OH239877   5.829   0.022  12.459 -0.3247  0.0708 -0.4938
 6129TIP3    H139878   5.734   0.009  12.456 -0.1224 -2.1032  0.3948
 6129TIP3    H239879   5.844   0.064  12.544 -0.4885  0.0882 -0.4727
 6130TIP3   OH239880   4.511   4.820  12.538 -0.2358  0.0425 -0.2361
 6130TIP3    H139881   4.545   4.830  12.627 -0.2769 -3.1177  0.2645
 6130TIP3    H239882   4.585   4.843  12.481  0.2317  0.7408  0.6253
 6131TIP3   OH239883   6.175   5.450  14.062  0.2827 -0.5865  0.3362
 6131TIP3    H139884   6.178   5.518  14.130 -0.1550 -0.7267  0.4982
 6131TIP3    H239885   6.116   5.486  13.995  1.5668  0.0305 -0.5059
 6132TIP3   OH239886   3.754   4.266  15.714  0.6574  0.3274  0.1276
 6132TIP3    H139887   3.701   4.229  15.785  1.1883 -3.0387 -1.0348
 6132TIP3    H239888   3.726   4.358  15.708 -4.8028 -0.9878 -0.1246
 6133TIP3   OH239889   6.324   1.541   0.748  0.1259 -0.0200 -0.1946
 6133TIP3    H139890   6.305   1.617   0.803 -0.7804 -0.2088 -0.2330
 6133TIP3    H239891   6.239   1.513   0.715  0.6211 -0.0900 -1.4649
 6134TIP3   OH239892   5.398   6.443   1.257 -0.2898  0.3575  0.2280
 6134TIP3    H139893   5.419   6.364   1.207 -1.4276 -0.1621  0.5385
 6134TIP3    H239894   5.315   6.473   1.219  0.2102  1.5068  0.0013
 6135TIP3   OH239895   2.452   2.790   0.166 -0.9405  0.4100  0.2258
 6135TIP3    H139896   2.385   2.858   0.160  0.1251  1.7149  2.2728
 6135TIP3    H239897   2.452   2.763   0.258  1.8235  0.9979  0.4794
 6136TIP3   OH239898   2.700   3.156   1.712 -0.2187 -0.2362 -0.3400
 6136TIP3    H139899   2.626   3.194   1.666  0.5722  0.9283 -0.6677
 6136TIP3    H239900   2.662   3.122   1.793 -1.6498 -2.4303 -1.8111
 6137TIP3   OH239901   0.466   1.675   2.415 -0.2959 -0.2736 -0.1992
 6137TIP3    H139902   0.467   1.700   2.323 -0.8928 -1.1720 -0.4697
 6137TIP3    H239903   0.405   1.601   2.419 -1.1989  0.4959  1.1149
 6138TIP3   OH239904   4.149   2.632   3.587 -0.1257 -0.2092  0.0941
 6138TIP3    H139905   4.213   2.619   3.517 -0.8115 -1.4392 -0.3350
 6138TIP3    H239906   4.177   2.712   3.630 -0.1280  1.0419 -2.0825
 6139TIP3   OH239907   5.175   0.558   2.936  0.4020  0.4638 -0.3658
 6139TIP3    H139908   5.194   0.502   3.011  0.9546 -1.2926 -1.7530
 6139TIP3    H239909   5.218   0.515   2.862  0.7194  2.6566 -1.5554
 6140TIP3   OH239910   1.389   5.217  13.810  0.6365  0.6521  0.7099
 6140TIP3    H139911   1.471   5.179  13.842 -0.1106 -0.6630  1.1167
 6140TIP3    H239912   1.323   5.150  13.828 -0.2904  1.0697 -0.9717
 6141TIP3   OH239913   6.229   6.341   1.057  0.1758  0.1085  0.7325
 6141TIP3    H139914   6.171   6.275   1.094 -0.1178  0.0719  0.2116
 6141TIP3    H239915   6.314   6.298   1.050  0.4844  0.4290  2.2991
 6142TIP3   OH239916   3.210   3.245  16.135 -0.3441 -0.5847  0.3083
 6142TIP3    H139917   3.300   3.257  16.105 -1.2141  2.6581 -1.4206
 6142TIP3    H239918   3.185   3.159  16.100  1.9915 -1.5355  0.7854
 6143TIP3   OH239919   3.728   4.501  11.030  0.0320  0.0807 -0.4483
 6143TIP3    H139920   3.730   4.477  10.937  1.7402 -0.7364 -0.2555
 6143TIP3    H239921   3.742   4.418  11.076  0.5816  0.6641  0.4796
 6144TIP3   OH239922   4.160   4.915   4.780  0.0719  0.1670 -0.5531
 6144TIP3    H139923   4.150   4.903   4.685  3.1091 -2.3480 -0.7543
 6144TIP3    H239924   4.071   4.913   4.814 -1.0484 -0.4774 -3.2230
 6145TIP3   OH239925   3.879   3.226   3.823 -0.1657  0.1558  0.2410
 6145TIP3    H139926   3.917   3.178   3.749 -1.5755 -0.7601  0.0778
 6145TIP3    H239927   3.909   3.316   3.810 -0.5598  0.0723 -1.6059
 6146TIP3   OH239928   2.071   1.590   2.840  0.6873  0.6619  0.0449
 6146TIP3    H139929   2.010   1.560   2.773  0.3893  0.3043  0.4698
 6146TIP3    H239930   2.035   1.673   2.870  0.5658  0.5921  0.0919
 6147TIP3   OH239931   1.642   1.826  16.915  0.4142 -0.4528 -0.3715
 6147TIP3    H139932   1.605   1.807  16.829 -0.1105 -0.4842 -0.1444
 6147TIP3    H239933   1.697   1.903  16.901 -2.1465  1.5560 -0.1440
 6148TIP3   OH239934   1.685   1.295  13.875  0.0876  0.2418 -0.0314
 6148TIP3    H139935   1.632   1.372  13.854  1.1728  0.7961 -0.8051
 6148TIP3    H239936   1.622   1.231  13.907 -0.7682  1.6480  1.2273
 6149TIP3   OH239937   2.314   0.093  11.442 -0.0814  0.0936  0.1582
 6149TIP3    H139938   2.363   0.065  11.365 -2.6770 -0.9591 -1.2327
 6149TIP3    H239939   2.285   0.012  11.484 -0.2519  0.6693  1.1940
 6150TIP3   OH239940   2.668   3.568   5.575 -0.1852  0.6216 -0.8055
 6150TIP3    H139941   2.632   3.631   5.512 -0.1391  0.2260 -1.2348
 6150TIP3    H239942   2.723   3.621   5.633 -0.2739  1.0020 -1.0646
 6151TIP3   OH239943   2.400   6.595  11.979  0.0916  0.6934 -0.1799
 6151TIP3    H139944   2.343   6.538  11.927  0.9311  0.7051 -1.1424
 6151TIP3    H239945   2.488   6.558  11.968  0.1509 -0.1365  2.3717
 6152TIP3   OH239946   2.331   1.193  17.003  0.5005 -0.5404  0.4632
 6152TIP3    H139947   2.247   1.230  17.029  1.2235  1.0319  0.7024
 6152TIP3    H239948   2.312   1.102  16.980 -1.1579 -0.3543  1.0014
 6153TIP3   OH239949   4.645   6.031   4.003  0.1138  0.0274  0.4525
 6153TIP3    H139950   4.568   6.041   4.058 -0.2506 -1.5269  0.2746
 6153TIP3    H239951   4.697   5.964   4.047  0.7525  0.1656 -0.0796
 6154TIP3   OH239952   5.867   4.172  15.036 -0.5742  0.2643  0.4053
 6154TIP3    H139953   5.851   4.140  15.125 -1.2022 -3.1715 -0.8085
 6154TIP3    H239954   5.810   4.120  14.981  1.4319  0.6939 -2.2543
 6155TIP3   OH239955   1.440   4.235   2.296 -0.4282  0.0859 -0.3867
 6155TIP3    H139956   1.519   4.218   2.346 -0.9715  0.3552  0.5885
 6155TIP3    H239957   1.455   4.191   2.212  0.8677  0.3941 -0.3417
 6156TIP3   OH239958   6.140   4.617  15.847  0.8073 -0.3215  0.9882
 6156TIP3    H139959   6.194   4.541  15.869  1.8282  0.1102  0.1004
 6156TIP3    H239960   6.167   4.640  15.758 -1.1247 -0.3105  0.3434
 6157TIP3   OH239961   2.861   5.987  16.383 -0.4593 -0.4174  0.7741
 6157TIP3    H139962   2.823   6.000  16.470 -0.4085  1.6235  0.5378
 6157TIP3    H239963   2.900   6.071  16.361  0.2241 -1.1335 -0.9053
 6158TIP3   OH239964   6.029   5.531   2.966 -0.4425 -0.1966  0.3770
 6158TIP3    H139965   6.120   5.505   2.978 -0.4831 -1.1628 -1.0147
 6158TIP3    H239966   6.032   5.604   2.905 -0.6313 -1.4672 -1.2499
 6159TIP3   OH239967   5.239   1.405  15.188 -0.0471  0.3428 -0.2428
 6159TIP3    H139968   5.197   1.470  15.131 -0.1499  1.8581  1.4671
 6159TIP3    H239969   5.316   1.449  15.223 -1.2820  0.4461  2.6787
 6160TIP3   OH239970   2.466   3.674  12.576 -0.2729  0.5755 -0.4400
 6160TIP3    H139971   2.482   3.651  12.485 -1.2204  1.4996 -0.8557
 6160TIP3    H239972   2.386   3.627  12.599 -2.3852  3.4718 -1.3776
 6161TIP3   OH239973   3.001   1.473   5.576  0.2739 -0.3941  0.1749
 6161TIP3    H139974   3.070   1.409   5.557  0.6743  0.2320 -0.5203
 6161TIP3    H239975   2.974   1.453   5.665  1.8170 -0.2562  0.7118
 6162TIP3   OH239976   4.794   1.178  12.841 -0.5751 -0.0324 -0.0099
 6162TIP3    H139977   4.757   1.246  12.786 -0.5954  1.5441  1.8477
 6162TIP3    H239978   4.888   1.181  12.824 -0.7519 -0.7777 -1.2170
 6163TIP3   OH239979   0.474   3.285  14.054 -0.0943 -0.1098 -0.4557
 6163TIP3    H139980   0.482   3.238  14.137  2.4005 -0.8681 -1.0427
 6163TIP3    H239981   0.380   3.296  14.042 -0.5919 -1.4754  1.6299
 6164TIP3   OH239982   0.257   3.122   5.747 -0.0385 -0.0944 -0.4204
 6164TIP3    H139983   0.307   3.045   5.773 -2.6477 -1.4733  0.8780
 6164TIP3    H239984   0.237   3.166   5.829 -0.5521  0.6938 -0.9560
 6165TIP3   OH239985   6.341   4.243   5.090  0.3658 -0.3063 -0.1302
 6165TIP3    H139986   6.339   4.264   5.183 -2.3557  1.4870 -0.4421
 6165TIP3    H239987   6.374   4.323   5.048  0.8928 -0.8400 -0.7525
 6166TIP3   OH239988   5.135   4.790  16.797  0.5403  0.2527 -0.3004
 6166TIP3    H139989   5.084   4.717  16.832 -0.2036  0.0253 -1.7898
 6166TIP3    H239990   5.151   4.767  16.706 -0.7900  2.5019 -1.1868
 6167TIP3   OH239991   6.716   0.117   5.688  0.0742 -0.4928 -0.1976
 6167TIP3    H139992   6.710   0.212   5.677 -0.8507 -0.4270  0.7059
 6167TIP3    H239993   6.724   0.105   5.782  2.0736 -1.2517 -0.4214
 6168TIP3   OH239994   1.956   1.093  15.124 -0.4556 -0.5469  0.3792
 6168TIP3    H139995   1.960   0.998  15.109  0.0330 -0.2251 -1.9306
 6168TIP3    H239996   1.877   1.106  15.177 -1.1264 -2.1542 -0.1747
 6169TIP3   OH239997   1.410   3.928   4.446 -0.6186  0.1360 -0.1675
 6169TIP3    H139998   1.495   3.911   4.404 -0.8353  0.7351 -0.8663
 6169TIP3    H239999   1.385   3.844   4.485  0.2486 -0.0671 -0.0342
 6170TIP3   OH240000   2.728   4.462  14.650 -0.0935  0.3015 -0.2735
 6170TIP3    H140001   2.659   4.472  14.584  0.1853  2.7544 -0.2775
 6170TIP3    H240002   2.801   4.514  14.616  1.1722 -0.8997  0.5359
 6171TIP3   OH240003   2.729   6.215   5.957 -0.3053  0.2715 -0.2844
 6171TIP3    H140004   2.668   6.166   6.012 -0.5648  0.1959 -0.6354
 6171TIP3    H240005   2.782   6.148   5.914  0.0197  0.3357  0.0077
 6172TIP3   OH240006   4.818   4.637  11.460  0.6458 -0.3059 -0.0313
 6172TIP3    H140007   4.822   4.732  11.471 -1.0406 -0.2716  0.5507
 6172TIP3    H240008   4.811   4.624  11.365  1.3336  0.1201 -0.1429
 6173TIP3   OH240009   6.512   3.368  15.372 -0.4596 -0.2636 -0.4156
 6173TIP3    H140010   6.488   3.301  15.308  2.0782 -0.9739 -0.7198
 6173TIP3    H240011   6.525   3.447  15.319 -1.1473 -0.1128 -0.3695
 6174TIP3   OH240012   1.227   6.581  16.256  0.0305 -0.4001 -0.0292
 6174TIP3    H140013   1.217   6.568  16.162  1.7573 -2.1825 -0.0356
 6174TIP3    H240014   1.179   6.661  16.275 -0.6989 -0.2282 -2.3508
 6175TIP3   OH240015   4.992   5.943   1.953  0.4837 -0.3109  0.3762
 6175TIP3    H140016   4.942   5.904   2.025  1.9546 -1.7357  0.6888
 6175TIP3    H240017   5.019   6.029   1.986  0.2772 -0.5332  1.1384
 6176TIP3   OH240018   1.610   3.642  14.495  0.2528  0.0312 -0.9746
 6176TIP3    H140019   1.526   3.601  14.471  0.5186 -0.5062 -0.9981
 6176TIP3    H240020   1.596   3.676  14.583  0.2547 -0.7775 -0.6465
 6177TIP3   OH240021   6.715   0.966   2.067 -0.1509 -0.2787  0.4817
 6177TIP3    H140022   6.797   0.989   2.022 -0.1904 -0.8900  0.0803
 6177TIP3    H240023   6.680   0.893   2.015 -0.2086 -0.9957  1.4989
 6178TIP3   OH240024   0.090   1.715   0.560  0.1067 -0.0918  0.0007
 6178TIP3    H140025   0.084   1.729   0.655 -1.1905 -1.1491  0.1073
 6178TIP3    H240026   0.126   1.797   0.526 -1.0298  0.9787  1.2377
 6179TIP3   OH240027   3.671   4.560  14.026  0.3366  0.2021  0.3007
 6179TIP3    H140028   3.728   4.483  14.034 -0.5123 -0.4578  0.2200
 6179TIP3    H240029   3.665   4.594  14.116 -1.7998 -1.7356  1.0040
 6180TIP3   OH240030   3.510   1.936  17.004 -0.4470  0.0129 -0.0306
 6180TIP3    H140031   3.481   1.886  16.927  2.6786 -0.8281 -0.8279
 6180TIP3    H240032   3.526   1.870  17.071  0.5263  0.2693  0.0117
 6181TIP3   OH240033   3.873   0.602  14.505 -0.1983 -0.0497  0.3153
 6181TIP3    H140034   3.961   0.578  14.536 -0.3541 -0.5713  0.3645
 6181TIP3    H240035   3.823   0.619  14.585 -1.1601 -3.3209  0.5431
 6182TIP3   OH240036   0.779   2.955   1.463 -0.3187 -0.7405  0.2044
 6182TIP3    H140037   0.710   2.946   1.528 -0.2250 -1.3424  0.2272
 6182TIP3    H240038   0.734   2.959   1.379 -0.3837 -1.0509  0.2252
 6183TIP3   OH240039   3.818   2.589   0.133 -0.0110  0.6397 -0.5545
 6183TIP3    H140040   3.725   2.597   0.156 -0.2179  0.4980 -1.3060
 6183TIP3    H240041   3.865   2.622   0.210 -0.6045 -1.9167  0.9969
 6184TIP3   OH240042   3.048   1.336   2.619  0.4225  0.4360 -0.3622
 6184TIP3    H140043   3.080   1.247   2.605  2.7005  1.4618 -2.6023
 6184TIP3    H240044   2.953   1.326   2.629  0.6457 -2.2436 -0.0845
 6185TIP3   OH240045   6.364   4.347  13.083  0.2816 -0.1501  0.2072
 6185TIP3    H140046   6.292   4.285  13.065  0.3543  0.3209 -1.9163
 6185TIP3    H240047   6.331   4.402  13.154 -0.4838 -1.4646  0.9153
 6186TIP3   OH240048   0.274   3.052   3.704  0.4190  0.2188  0.0328
 6186TIP3    H140049   0.308   2.994   3.773  0.1819 -0.1234 -0.1364
 6186TIP3    H240050   0.352   3.081   3.657  0.4839 -0.5474 -0.3397
 6187TIP3   OH240051   5.935   1.016   5.936 -0.0711  0.4186 -0.2980
 6187TIP3    H140052   6.023   1.002   5.903 -0.5089 -0.6017 -1.0671
 6187TIP3    H240053   5.947   1.025   6.031  1.1562  3.0980 -0.6290
 6188TIP3   OH240054   5.008   4.570  16.935 -0.2489 -0.1774  0.4064
 6188TIP3    H140055   4.923   4.552  16.976  0.2723 -1.2708  1.0533
 6188TIP3    H240056   5.062   4.495  16.959 -0.1361 -1.3452 -2.9290
 6189TIP3   OH240057   0.774   6.115  11.401  0.3334  0.0753  0.1386
 6189TIP3    H140058   0.727   6.048  11.451  0.5582 -0.8343 -0.8226
 6189TIP3    H240059   0.780   6.190  11.460  0.4744 -0.9156  1.4270
 6190TIP3   OH240060   0.110   4.850  15.108 -0.0355  0.0302  0.2338
 6190TIP3    H140061   0.139   4.880  15.022 -2.2488  3.8612  0.5731
 6190TIP3    H240062   0.034   4.795  15.090 -0.1603  0.3732 -0.2986
 6191TIP3   OH240063   6.177   3.297   1.224  0.3802 -0.1758  0.1393
 6191TIP3    H140064   6.158   3.204   1.217  0.6047 -0.1831 -0.3769
 6191TIP3    H240065   6.093   3.340   1.206  0.1268 -0.2870  1.0008
 6192TIP3   OH240066   2.240   1.298  14.288 -0.4771 -0.0694 -0.0154
 6192TIP3    H140067   2.283   1.378  14.258  0.4063 -0.3420  0.5025
 6192TIP3    H240068   2.173   1.328  14.349  0.6086  0.2354  1.0778
 6193TIP3   OH240069   0.083   0.274  13.635 -0.2093  0.1763 -0.1027
 6193TIP3    H140070   0.063   0.329  13.559 -0.6486  2.8906  1.8388
 6193TIP3    H240071   0.178   0.278  13.643 -0.2036  0.3078 -0.2194
 6194TIP3   OH240072   6.554   2.564   4.102 -0.0731  0.1053 -0.0779
 6194TIP3    H140073   6.619   2.558   4.172  1.1682 -0.3166 -1.2157
 6194TIP3    H240074   6.474   2.593   4.145  0.8798  0.6675  1.3672
 6195TIP3   OH240075   0.466   3.191   5.045  0.4860 -0.1024  0.1599
 6195TIP3    H140076   0.491   3.111   5.090 -1.6321  0.1573  1.9338
 6195TIP3    H240077   0.412   3.239   5.108  1.3140  2.5493 -0.9787
 6196TIP3   OH240078   0.983   2.329   2.340  0.0847 -0.0567 -0.0512
 6196TIP3    H140079   0.911   2.306   2.281 -0.8120 -0.2558  1.0766
 6196TIP3    H240080   1.025   2.405   2.299  1.1920 -1.7287 -2.3099
 6197TIP3   OH240081   5.190   0.346  13.837  0.7953  0.1586 -0.3576
 6197TIP3    H140082   5.190   0.411  13.908  2.4271 -1.3336  1.1040
 6197TIP3    H240083   5.104   0.305  13.843  0.6945  0.4540  0.3955
 6198TIP3   OH240084   5.507   5.300   2.255 -0.0133  0.0753  0.4675
 6198TIP3    H140085   5.472   5.376   2.302 -1.7209  0.0193 -0.6604
 6198TIP3    H240086   5.549   5.337   2.177 -0.4739 -0.1090  0.1314
 6199TIP3   OH240087   0.402   4.765  16.604  0.1844  0.0939  0.3832
 6199TIP3    H140088   0.465   4.798  16.669  0.6025 -1.2158  0.6778
 6199TIP3    H240089   0.418   4.819  16.527  2.1829 -0.6354  0.2126
 6200TIP3   OH240090   0.524   2.753  14.765  0.9501 -0.0583 -0.5083
 6200TIP3    H140091   0.580   2.685  14.727  1.1623  0.0799 -0.4492
 6200TIP3    H240092   0.580   2.796  14.830  0.4188 -0.6264  0.3285
 6201TIP3   OH240093   6.614   4.697  12.669  0.2262  0.9188  0.4967
 6201TIP3    H140094   6.669   4.766  12.708  2.1036 -1.1934  1.8596
 6201TIP3    H240095   6.577   4.650  12.744 -0.4920  0.0633 -0.3662
 6202TIP3   OH240096   0.394   1.420  14.259 -0.4185  0.0854  0.0672
 6202TIP3    H140097   0.461   1.482  14.231  0.3380 -0.4905  0.5479
 6202TIP3    H240098   0.318   1.439  14.204  1.4901 -2.0851 -3.7458
 6203TIP3   OH240099   0.492   3.393  14.999 -0.7764  0.4861 -0.0590
 6203TIP3    H140100   0.448   3.450  15.062 -1.0203  1.1682 -0.8138
 6203TIP3    H240101   0.423   3.369  14.937 -0.4521  0.1935 -0.3097
 6204TIP3   OH240102   5.864   2.972   0.012 -0.0273  0.0610  0.1142
 6204TIP3    H140103   5.952   2.944  -0.012  0.5911  1.3914  0.7202
 6204TIP3    H240104   5.878   3.047   0.071 -1.5012 -1.3708  2.4244
 6205TIP3   OH240105   3.287   6.470   3.283 -0.3567 -0.0545 -0.8731
 6205TIP3    H140106   3.352   6.400   3.281  0.3550  0.6013 -1.7227
 6205TIP3    H240107   3.207   6.427   3.313  0.2920 -1.0229 -0.4687
 6206TIP3   OH240108   0.657   6.027  15.240 -0.0499  0.2367  0.1821
 6206TIP3    H140109   0.617   5.997  15.322  0.3203 -1.3782 -0.1806
 6206TIP3    H240110   0.583   6.049  15.184 -0.3108  1.1890  0.8804
 6207TIP3   OH240111   5.529   0.495  12.972 -0.3622  0.6868 -0.3628
 6207TIP3    H140112   5.512   0.574  13.023 -3.3926  1.1904 -1.9367
 6207TIP3    H240113   5.447   0.478  12.925  0.4746 -2.8535 -0.8618
 6208TIP3   OH240114   3.800   1.298  11.364  0.0497  0.8907 -0.1122
 6208TIP3    H140115   3.812   1.215  11.319 -1.1969  0.9747 -0.6637
 6208TIP3    H240116   3.888   1.329  11.384  0.5543 -0.0699 -0.8168
 6209TIP3   OH240117   6.088   2.582  16.648 -0.7227  0.1953  0.0135
 6209TIP3    H140118   6.022   2.576  16.579  1.7474  0.6250 -2.5910
 6209TIP3    H240119   6.066   2.662  16.695 -2.1878  0.1785 -0.5848
 6210TIP3   OH240120   2.738   2.315  16.531 -0.2623  0.2528 -0.0811
 6210TIP3    H140121   2.789   2.255  16.476  0.6742  0.8450  0.1167
 6210TIP3    H240122   2.767   2.402  16.504 -0.1553  0.5601  0.9927
 6211TIP3   OH240123   5.792   0.052  14.385  0.0741  0.1936  0.8491
 6211TIP3    H140124   5.704   0.083  14.408  0.9789  3.1314  0.8004
 6211TIP3    H240125   5.845   0.132  14.382  2.3550 -1.2777 -0.9565
 6212TIP3   OH240126   5.092   0.408  14.551  0.6694  0.4515 -0.1539
 6212TIP3    H140127   5.028   0.479  14.551  1.3158  1.0452 -0.3920
 6212TIP3    H240128   5.175   0.450  14.573  1.4330  0.1357 -2.1872
 6213TIP3   OH240129   1.188   3.429   5.257  0.0102  0.5549  0.3773
 6213TIP3    H140130   1.182   3.420   5.352  0.2113  0.2970  0.3692
 6213TIP3    H240131   1.282   3.428   5.238  0.0332  2.2050  0.3122
 6214TIP3   OH240132   6.580   0.302   4.904  0.3609 -0.4017 -0.0561
 6214TIP3    H140133   6.666   0.313   4.864  0.9833  0.9764  1.5471
 6214TIP3    H240134   6.523   0.360   4.855  0.6728 -0.1955 -0.1753
 6215TIP3   OH240135   0.237   3.105  13.179 -0.8549 -0.3623  0.5296
 6215TIP3    H140136   0.261   3.032  13.236  2.1911 -1.3298 -1.7419
 6215TIP3    H240137   0.296   3.175  13.203 -0.7294 -0.1881 -0.2629
 6216TIP3   OH240138   3.000   0.290  17.109  0.3262  0.4274 -0.3515
 6216TIP3    H140139   3.046   0.368  17.137  0.2522  0.5435 -0.5516
 6216TIP3    H240140   3.051   0.257  17.034  0.4257  0.2168 -0.1916
 6217TIP3   OH240141   3.145   6.387   3.009 -0.0613  0.5828  0.0250
 6217TIP3    H140142   3.108   6.310   3.051  2.1825 -0.6583 -0.1088
 6217TIP3    H240143   3.176   6.442   3.081  2.7941 -1.0310  0.1438
 6218TIP3   OH240144   5.805   1.408  16.594  0.5749 -0.1204  0.8789
 6218TIP3    H140145   5.900   1.414  16.598  0.5456  0.8383  0.3499
 6218TIP3    H240146   5.777   1.494  16.563 -0.3388 -1.0298 -0.9561
 6219TIP3   OH240147   4.582   4.263  12.024 -0.5891  0.0749  0.5104
 6219TIP3    H140148   4.660   4.249  12.077 -0.9428  0.4203  1.1266
 6219TIP3    H240149   4.613   4.253  11.934  0.1834  0.3041  0.7431
 6220TIP3   OH240150   5.301   1.598  16.037  0.1708 -0.4522  0.2036
 6220TIP3    H140151   5.247   1.530  16.078  2.3395 -1.2209  1.9636
 6220TIP3    H240152   5.334   1.556  15.957 -1.5125 -0.0808 -0.7232
 6221TIP3   OH240153   1.223   3.476  15.244 -0.2027  0.2563 -0.8919
 6221TIP3    H140154   1.136   3.437  15.254  0.6688 -1.4873  0.5012
 6221TIP3    H240155   1.239   3.519  15.329  0.3487  0.4797 -1.1073
 6222TIP3   OH240156   1.671   1.357  12.355  0.3461  0.1509 -0.1160
 6222TIP3    H140157   1.584   1.322  12.375 -0.4889  1.0707 -1.8414
 6222TIP3    H240158   1.676   1.439  12.405  1.2131 -1.0066  1.8045
 6223TIP3   OH240159   1.096   5.955   6.437  0.2981  0.5826  0.2505
 6223TIP3    H140160   1.067   6.008   6.511  2.1074  0.4554  1.1167
 6223TIP3    H240161   1.106   5.867   6.473 -1.6283 -0.1637 -0.9047
 6224TIP3   OH240162   2.519   3.913  13.205  0.2269  0.4642 -0.0899
 6224TIP3    H140163   2.578   3.840  13.188  0.5463  0.8406 -0.5843
 6224TIP3    H240164   2.442   3.895  13.150 -0.7362 -0.7357  1.5422
 6225TIP3   OH240165   0.833   1.750   3.081 -0.3779  0.0140  0.1491
 6225TIP3    H140166   0.852   1.724   2.991  0.0164 -3.0176  0.9862
 6225TIP3    H240167   0.904   1.810   3.105  0.1920 -0.1013 -1.1834
 6226TIP3   OH240168   1.299   6.639   1.844 -0.0855  0.0833 -0.8909
 6226TIP3    H140169   1.339   6.580   1.781 -1.3959 -0.2096 -1.4872
 6226TIP3    H240170   1.320   6.601   1.930  1.2849  0.2116 -1.1475
 6227TIP3   OH240171   4.252   2.185  15.735  0.4760  0.2658 -0.2776
 6227TIP3    H140172   4.236   2.279  15.726 -0.2088  0.0888 -1.1329
 6227TIP3    H240173   4.305   2.176  15.814 -1.7315  1.1568  1.4341
 6228TIP3   OH240174   5.357   2.126  12.743  0.6193  0.0340  0.1253
 6228TIP3    H140175   5.337   2.072  12.667  0.6541  1.7543 -1.1608
 6228TIP3    H240176   5.360   2.064  12.816  0.9834 -1.7382 -1.3105
 6229TIP3   OH240177   6.119   5.345   2.329 -0.3241 -0.8293 -0.4908
 6229TIP3    H140178   6.117   5.327   2.235  0.1433 -1.4478 -0.3926
 6229TIP3    H240179   6.143   5.437   2.335  0.3326 -0.9597 -0.9697
 6230TIP3   OH240180   3.340   3.241  16.633  0.2521 -0.2826  0.0786
 6230TIP3    H140181   3.335   3.233  16.538  0.0447  1.2182 -0.0616
 6230TIP3    H240182   3.257   3.205  16.665  0.2145 -0.5561 -0.3235
 6231TIP3   OH240183   3.021   2.311   1.319 -0.3024 -0.3277  0.4834
 6231TIP3    H140184   3.055   2.371   1.385  1.3376  1.0955 -1.5326
 6231TIP3    H240185   2.973   2.367   1.258  1.5021 -0.9466 -1.6082
 6232TIP3   OH240186   6.819   0.976  13.755  0.3644  0.3575 -0.2843
 6232TIP3    H140187   6.831   0.998  13.848  0.0695  1.8720 -0.5834
 6232TIP3    H240188   6.746   0.914  13.755  1.1234 -0.5881  0.5768
 6233TIP3   OH240189   1.699   1.344   4.535 -0.0099 -0.1112 -0.5062
 6233TIP3    H140190   1.767   1.399   4.495 -0.0576 -0.7838 -1.5400
 6233TIP3    H240191   1.627   1.345   4.473 -0.8114  0.2603  0.3981
 6234TIP3   OH240192   6.592   4.768  16.166  0.2736  0.4511  0.6289
 6234TIP3    H140193   6.597   4.845  16.110 -0.0762  0.1880  0.2300
 6234TIP3    H240194   6.575   4.695  16.105  2.1670 -0.1832  0.7944
 6235TIP3   OH240195   0.237   5.069   1.638 -0.2975 -0.2611 -0.1343
 6235TIP3    H140196   0.152   5.107   1.662 -0.0221 -0.0563  0.5388
 6235TIP3    H240197   0.301   5.122   1.686  0.1637 -0.8867 -0.0565
 6236TIP3   OH240198   1.471   3.086  11.818  0.2274  0.2862  0.4428
 6236TIP3    H140199   1.504   3.137  11.745 -2.5215 -0.8233 -1.7583
 6236TIP3    H240200   1.465   2.996  11.784 -0.1976 -0.4624  2.3610
 6237TIP3   OH240201   3.127   4.523  14.888  0.3603  0.4964 -0.2903
 6237TIP3    H140202   3.050   4.472  14.863  0.4691  0.5886 -0.8288
 6237TIP3    H240203   3.095   4.587  14.951  0.3172 -0.5974  0.8346
 6238TIP3   OH240204   5.954   6.387  14.759 -0.0770  0.0711  0.3462
 6238TIP3    H140205   6.005   6.382  14.839 -0.1003  0.7985  0.4149
 6238TIP3    H240206   6.020   6.400  14.690 -0.0453 -0.6925  0.2200
 6239TIP3   OH240207   2.880   3.653   0.631 -0.4295 -0.0819  0.1511
 6239TIP3    H140208   2.830   3.607   0.563  1.9143 -2.5440 -0.1027
 6239TIP3    H240209   2.971   3.634   0.609  0.5418  1.9745  2.0732
 6240TIP3   OH240210   2.487   5.595   3.903  0.3585  0.0624  0.2053
 6240TIP3    H140211   2.439   5.662   3.951 -0.5182 -0.7225  0.4720
 6240TIP3    H240212   2.543   5.555   3.969 -2.5231 -2.5998  1.3204
 6241TIP3   OH240213   2.574   4.347   5.449  0.2455  0.7209 -0.1822
 6241TIP3    H140214   2.498   4.367   5.504  0.0893 -1.7740  0.6154
 6241TIP3    H240215   2.572   4.414   5.380 -1.7773  1.6183  0.6678
 6242TIP3   OH240216   4.199   5.736   2.049 -0.2385 -0.3885 -0.2176
 6242TIP3    H140217   4.213   5.668   2.115  2.2575  0.5192  0.3037
 6242TIP3    H240218   4.222   5.694   1.967  0.7142 -0.3581  0.0277
 6243TIP3   OH240219   3.616   6.346   6.318  0.4987  0.3769  0.4444
 6243TIP3    H140220   3.533   6.380   6.284  0.3721 -0.9494 -0.6961
 6243TIP3    H240221   3.590   6.290   6.391  0.1927 -1.1975 -0.8098
 6244TIP3   OH240222   0.636   5.188  13.402  0.3290  0.9363 -0.0875
 6244TIP3    H140223   0.668   5.113  13.451  1.8065  1.3428 -0.4026
 6244TIP3    H240224   0.553   5.211  13.445  0.8013  0.3161  1.2036
 6245TIP3   OH240225   4.973   3.066  14.644 -0.3271 -0.1836 -0.4162
 6245TIP3    H140226   4.965   3.153  14.605  3.3429 -0.0339 -1.2104
 6245TIP3    H240227   4.941   3.006  14.577  0.2200  0.4101 -1.2242
 6246TIP3   OH240228   0.358   5.780  15.889  0.0710 -0.1401  0.0292
 6246TIP3    H140229   0.302   5.768  15.812 -0.9427  1.5343  0.4414
 6246TIP3    H240230   0.358   5.695  15.932 -0.1425 -0.8385 -1.3015
 6247TIP3   OH240231   1.279   3.979  15.725  0.2919  0.1869 -0.1375
 6247TIP3    H140232   1.324   4.015  15.801  0.9792  1.0337 -0.9227
 6247TIP3    H240233   1.314   3.890  15.716 -1.2501 -0.6657  1.6806
 6248TIP3   OH240234   3.831   1.951  11.963 -0.4900 -0.8084  0.0672
 6248TIP3    H140235   3.872   1.868  11.989  0.6744 -0.0951  0.5769
 6248TIP3    H240236   3.820   1.999  12.045 -0.3000 -0.0835 -0.3218
 6249TIP3   OH240237   3.062   2.520  11.884 -0.2177  0.1741 -0.1914
 6249TIP3    H140238   3.047   2.613  11.865 -2.2510 -0.1635 -0.4805
 6249TIP3    H240239   3.101   2.520  11.971 -1.4046  1.2715  0.3882
 6250TIP3   OH240240   1.320   2.290  10.421 -0.0932  0.2416 -0.4585
 6250TIP3    H140241   1.362   2.265  10.338 -1.6470 -0.0155 -1.1942
 6250TIP3    H240242   1.353   2.226  10.484  1.4361  0.6958 -0.7556
 6251TIP3   OH240243   6.726   4.162  16.413 -0.7243 -0.3640  0.0234
 6251TIP3    H140244   6.679   4.100  16.357 -1.7401 -0.1189  0.5768
 6251TIP3    H240245   6.783   4.210  16.353  0.0772 -1.7922 -0.4276
 6252TIP3   OH240246   2.436   4.466   5.885 -0.0001 -0.2839  0.1279
 6252TIP3    H140247   2.461   4.501   5.971  1.7863  1.4231 -0.9996
 6252TIP3    H240248   2.498   4.395   5.869 -0.8130 -1.1100  0.5243
 6253TIP3   OH240249   5.081   1.077  15.642  0.0909 -0.4868  0.0716
 6253TIP3    H140250   5.106   1.156  15.593 -0.0465 -0.3613  0.2028
 6253TIP3    H240251   5.161   1.050  15.686 -0.2821  0.6266  1.4912
 6254TIP3   OH240252   6.638   4.968   3.911 -0.6233  0.4909 -0.2099
 6254TIP3    H140253   6.631   5.000   3.821  0.1179 -0.6485 -0.6818
 6254TIP3    H240254   6.687   5.037   3.956  0.6484  0.2177 -1.1329
 6255TIP3   OH240255   2.520   5.867   2.685  0.2945  0.1926  0.2265
 6255TIP3    H140256   2.594   5.920   2.657  1.0026  0.5115  2.5285
 6255TIP3    H240257   2.457   5.930   2.720  0.1197 -0.2954  0.8007
 6256TIP3   OH240258   1.020   3.927  17.072 -0.2274 -0.3370  0.3871
 6256TIP3    H140259   0.960   3.939  16.999 -0.2204  0.2323  0.4683
 6256TIP3    H240260   0.986   3.984  17.141 -0.5954 -1.3431  1.0522
 6257TIP3   OH240261   0.746   3.595  12.141 -0.3528 -0.3144  0.4849
 6257TIP3    H140262   0.685   3.650  12.091  1.1407  0.4257 -0.6428
 6257TIP3    H240263   0.739   3.509  12.100  1.3774  0.4460 -1.6492
 6258TIP3   OH240264   4.560   6.781  15.940  0.0630  0.6822 -0.2153
 6258TIP3    H140265   4.516   6.858  15.903 -1.6477  1.1824  2.6008
 6258TIP3    H240266   4.627   6.816  15.998 -0.7066  0.1136  1.0715
 6259TIP3   OH240267   4.838   4.107   1.591 -0.5303  0.1372  0.1621
 6259TIP3    H140268   4.799   4.188   1.624 -0.5011  1.0218 -1.8231
 6259TIP3    H240269   4.806   4.100   1.501  3.0626  0.4333 -1.3170
 6260TIP3   OH240270   3.043   3.749  12.425  0.2773  0.6135  0.1586
 6260TIP3    H140271   2.985   3.812  12.382  1.6120  0.7241 -1.5931
 6260TIP3    H240272   3.022   3.756  12.518 -0.3183  2.9263 -0.0956
 6261TIP3   OH240273   4.910   3.307   3.213  0.1392  0.4285  0.0325
 6261TIP3    H140274   4.828   3.269   3.243 -0.0405  0.2414 -0.6848
 6261TIP3    H240275   4.973   3.288   3.283 -0.7441  1.8273  1.2687
 6262TIP3   OH240276   3.945   2.477  16.188  0.5213  0.1178  0.1220
 6262TIP3    H140277   3.995   2.553  16.216 -0.6630  1.5033 -1.3327
 6262TIP3    H240278   3.971   2.464  16.096 -0.4495 -0.2488 -0.1091
 6263TIP3   OH240279   5.071   1.158  14.678 -0.2677  0.4674  0.1456
 6263TIP3    H140280   5.097   1.215  14.751 -0.6976  0.5007  0.2781
 6263TIP3    H240281   4.976   1.154  14.684 -0.5025  2.1721 -1.6784
 6264TIP3   OH240282   6.742   1.621   0.811  0.1356 -0.1335 -0.4795
 6264TIP3    H140283   6.802   1.547   0.820 -1.0558 -1.0481  0.3435
 6264TIP3    H240284   6.716   1.620   0.719 -1.5101 -2.1377 -0.0678
 6265TIP3   OH240285   2.530   3.072  13.078  0.6171 -0.0991 -0.3340
 6265TIP3    H140286   2.580   3.021  13.013  2.4390 -0.5212  1.3109
 6265TIP3    H240287   2.540   3.163  13.050 -0.1601 -0.3819 -1.6305
 6266TIP3   OH240288   1.678   4.834   6.771 -0.9823 -0.0491  0.4718
 6266TIP3    H140289   1.690   4.810   6.679 -0.4111 -0.8202  0.7380
 6266TIP3    H240290   1.756   4.885   6.793 -0.7838 -0.4629  0.7222
 6267TIP3   OH240291   4.871   4.131   1.249 -0.2180  0.4344 -0.2751
 6267TIP3    H140292   4.946   4.154   1.303 -0.6325  0.2629  0.3933
 6267TIP3    H240293   4.906   4.122   1.161  0.6475 -0.1843  0.1215
 6268TIP3   OH240294   4.565   2.599   3.191  0.1119 -0.5596 -0.0840
 6268TIP3    H140295   4.646   2.651   3.189  0.2744 -0.8005  0.1192
 6268TIP3    H240296   4.506   2.644   3.131  0.3148 -0.2437 -0.0506
 6269TIP3   OH240297   6.778   4.106   2.886  0.0982 -0.0397  0.4319
 6269TIP3    H140298   6.823   4.086   2.968 -2.6344 -1.4761  1.6859
 6269TIP3    H240299   6.776   4.024   2.839  0.5701  0.5069 -0.5778
 6270TIP3   OH240300   0.208   2.902  14.263 -0.1194  0.0666  0.4647
 6270TIP3    H140301   0.281   2.841  14.278  0.1725  0.2729 -0.0874
 6270TIP3    H240302   0.160   2.903  14.346  0.8694  0.4233  1.0496
 6271TIP3   OH240303   1.158   3.037   6.782  0.3804 -0.1131 -0.2953
 6271TIP3    H140304   1.139   2.951   6.744 -1.9863 -0.5110  1.5415
 6271TIP3    H240305   1.160   3.096   6.706 -0.3507 -1.4321 -1.4023
 6272TIP3   OH240306   6.512   6.002   4.226 -0.7529 -0.1211 -0.0935
 6272TIP3    H140307   6.547   5.924   4.269 -0.1815 -0.3659 -0.9805
 6272TIP3    H240308   6.588   6.044   4.186 -0.8095  1.6363  1.4490
 6273TIP3   OH240309   6.595   0.577   1.911  0.1485 -0.2108 -0.5243
 6273TIP3    H140310   6.607   0.541   1.998 -1.4347  1.2279  0.3425
 6273TIP3    H240311   6.571   0.501   1.857  0.4004 -0.9937  0.4341
 6274TIP3   OH240312   4.219   4.446  17.169 -0.0387  0.1423 -0.0038
 6274TIP3    H140313   4.303   4.467  17.210  0.0307 -0.0630 -0.0396
 6274TIP3    H240314   4.199   4.357  17.201  0.4362 -0.3739 -1.0988
 6275TIP3   OH240315   1.180   5.340  15.395  0.2448  0.4145  0.0962
 6275TIP3    H140316   1.260   5.288  15.390 -1.0278 -1.5279 -1.8888
 6275TIP3    H240317   1.129   5.315  15.318 -2.4174  1.3795  1.3766
 6276TIP3   OH240318   4.004   3.083  11.221  0.4797  0.0603  0.3536
 6276TIP3    H140319   4.064   3.028  11.171 -0.5309 -0.8155  0.0737
 6276TIP3    H240320   4.020   3.057  11.312  0.1157 -0.6102  0.2363
 6277TIP3   OH240321   2.858   2.425  12.292  0.7909  0.5402 -0.2799
 6277TIP3    H140322   2.821   2.402  12.378  2.2623 -0.9059  0.0237
 6277TIP3    H240323   2.786   2.415  12.231  0.2370 -0.4929  0.5155
 6278TIP3   OH240324   4.164   0.692  14.637  0.6581 -0.8321 -0.0162
 6278TIP3    H140325   4.242   0.670  14.587  1.0960 -1.8944  1.0987
 6278TIP3    H240326   4.159   0.625  14.706 -0.1336  0.3642  1.1341
 6279TIP3   OH240327   6.344   5.162  12.046  0.4689  0.1326  0.8071
 6279TIP3    H140328   6.255   5.158  12.081 -0.1736 -1.5405 -0.8430
 6279TIP3    H240329   6.344   5.098  11.975  3.0899 -0.0819  0.9265
 6280TIP3   OH240330   6.444   3.404  13.045 -0.0181 -0.1408  0.0122
 6280TIP3    H140331   6.348   3.406  13.053  0.0119  0.0428  0.3241
 6280TIP3    H240332   6.475   3.470  13.107  0.3103 -0.1684 -0.1207
 6281TIP3   OH240333   1.087   0.317  14.068 -0.0111  0.2898  0.2083
 6281TIP3    H140334   1.023   0.295  14.136  0.7030 -0.2923  0.6953
 6281TIP3    H240335   1.153   0.249  14.073  0.4742  0.6878 -0.5365
 6282TIP3   OH240336   4.085   5.311  16.136 -0.2207  0.1132 -0.5381
 6282TIP3    H140337   4.107   5.233  16.084  2.2431 -0.9169  1.8056
 6282TIP3    H240338   3.991   5.304  16.150 -0.6008 -0.7497 -2.9074
 6283TIP3   OH240339   2.396   3.517   0.656  0.0472  0.4426 -0.2789
 6283TIP3    H140340   2.401   3.574   0.732 -1.5159 -1.1989  1.1452
 6283TIP3    H240341   2.362   3.434   0.690  0.2086 -0.6696 -2.6101
 6284TIP3   OH240342   0.677   0.184  14.518  0.7384  0.0531  0.4327
 6284TIP3    H140343   0.644   0.097  14.539 -0.4605  0.9844  2.8168
 6284TIP3    H240344   0.607   0.226  14.467  1.0234 -0.1338 -0.1189
 6285TIP3   OH240345   4.442   3.732  17.041  0.4023 -0.2423  0.4044
 6285TIP3    H140346   4.359   3.690  17.064 -0.2767  0.8071 -0.0481
 6285TIP3    H240347   4.453   3.715  16.947  0.3387  0.2305  0.3105
 6286TIP3   OH240348   3.612   0.847   2.215  0.4159 -0.3386 -0.0384
 6286TIP3    H140349   3.669   0.901   2.270  0.0332 -1.9117  2.0067
 6286TIP3    H240350   3.651   0.852   2.128  0.9640  2.3799  0.2508
 6287TIP3   OH240351   2.507   5.434  13.953 -0.1306 -0.0482  0.0520
 6287TIP3    H140352   2.579   5.447  13.891  0.0667  0.1162  0.3092
 6287TIP3    H240353   2.542   5.467  14.037 -1.1018  1.6411 -0.1662
 6288TIP3   OH240354   1.795   3.234   6.582  0.2141 -0.1354  0.9457
 6288TIP3    H140355   1.716   3.256   6.632 -1.0457 -0.0143 -0.9939
 6288TIP3    H240356   1.778   3.146   6.547  0.3869  0.3533 -0.4390
 6289TIP3   OH240357   3.987   3.204  15.573 -0.1041  0.5473 -0.0616
 6289TIP3    H140358   4.024   3.118  15.553 -0.1754  0.3809  0.4974
 6289TIP3    H240359   4.041   3.237  15.645 -1.1116  0.2535  0.8476
 6290TIP3   OH240360   4.547   5.732   1.294  0.2635 -0.2488  0.1199
 6290TIP3    H140361   4.463   5.703   1.258 -0.0355  1.1788 -0.4368
 6290TIP3    H240362   4.538   5.722   1.389 -2.2096  3.6248  0.5361
 6291TIP3   OH240363   4.645   2.113  11.482 -0.3654 -0.6094  0.9757
 6291TIP3    H140364   4.626   2.197  11.439  1.4410 -1.5166 -1.8362
 6291TIP3    H240365   4.574   2.055  11.454 -0.4339 -0.6162  1.1567
 6292TIP3   OH240366   4.365   1.631   3.491 -0.1807 -0.3611 -0.3875
 6292TIP3    H140367   4.433   1.586   3.441  0.1868 -0.2100 -0.0337
 6292TIP3    H240368   4.306   1.666   3.424 -0.1189 -0.8134 -0.6848
 6293TIP3   OH240369   2.371   5.928  15.464 -0.5128  0.6425 -0.3933
 6293TIP3    H140370   2.345   5.928  15.556 -0.0108  0.8584 -0.2470
 6293TIP3    H240371   2.463   5.901  15.465 -0.6243  0.2419 -0.8686
 6294TIP3   OH240372   2.505   6.689  16.137 -0.3241  0.3038 -0.6532
 6294TIP3    H140373   2.454   6.750  16.190  0.0043 -1.4321  1.8285
 6294TIP3    H240374   2.453   6.676  16.058 -1.8140  1.4882  0.0795
 6295TIP3   OH240375   4.002   6.522   1.192  0.2123  0.4212  0.2533
 6295TIP3    H140376   4.036   6.472   1.118  0.2504 -1.1083  1.2763
 6295TIP3    H240377   4.058   6.600   1.196  2.4063 -1.0923  0.6954
 6296TIP3   OH240378   6.060   2.008  15.802  0.4328  0.1165  0.3870
 6296TIP3    H140379   5.996   1.990  15.871 -0.9635  0.2137 -0.8274
 6296TIP3    H240380   6.143   2.018  15.848 -0.3351 -0.4847  1.9749
 6297TIP3   OH240381   2.804   6.349  12.882 -1.0722 -0.2576  0.7069
 6297TIP3    H140382   2.834   6.386  12.799 -0.8621 -3.4052 -0.7957
 6297TIP3    H240383   2.713   6.377  12.889 -1.4306 -0.7476 -1.2076
 6298TIP3   OH240384   3.141   1.478   3.386  0.4054  0.2933  0.3414
 6298TIP3    H140385   3.153   1.387   3.357  0.1582  0.4108 -0.1442
 6298TIP3    H240386   3.230   1.509   3.405  0.7168  0.5563 -1.3817
 6299TIP3   OH240387   5.252   4.546   6.030  1.2702 -0.0093 -0.8638
 6299TIP3    H140388   5.345   4.551   6.052  0.9978  1.4468  0.0142
 6299TIP3    H240389   5.221   4.636   6.032 -0.1936 -0.4772 -1.0806
 6300TIP3   OH240390   1.018   3.914  16.636 -0.0775  0.3410 -0.0859
 6300TIP3    H140391   1.104   3.880  16.661 -0.7512 -0.0406  1.8942
 6300TIP3    H240392   1.010   3.895  16.543  2.2461  1.0121 -0.4794
 6301TIP3   OH240393   5.027   5.418  13.769 -0.1583 -0.2019 -0.1242
 6301TIP3    H140394   4.958   5.364  13.731 -2.8388  3.2791 -0.6335
 6301TIP3    H240395   5.082   5.443  13.694 -2.4170  2.4142 -1.0855
 6302TIP3   OH240396   3.855   2.342   1.186  0.2167 -0.4512  0.0082
 6302TIP3    H140397   3.903   2.358   1.267 -1.8964  0.6993  1.1354
 6302TIP3    H240398   3.877   2.417   1.130  0.7125 -0.5924  0.0133
 6303TIP3   OH240399   0.288   2.711   1.845  0.5201 -0.1420 -0.3685
 6303TIP3    H140400   0.290   2.615   1.851 -0.4676 -0.1049  0.9807
 6303TIP3    H240401   0.380   2.737   1.852  0.8873 -1.0056 -1.5825
 6304TIP3   OH240402   4.457   0.650  15.508 -0.0356  0.2768  0.5599
 6304TIP3    H140403   4.467   0.557  15.486 -0.4250  0.4348 -0.3395
 6304TIP3    H240404   4.482   0.696  15.428 -1.5952  0.8774  0.3734
 6305TIP3   OH240405   6.136   4.267   4.478 -0.5465 -0.7333 -0.0500
 6305TIP3    H140406   6.151   4.287   4.385  0.4451  0.0383  0.2610
 6305TIP3    H240407   6.106   4.176   4.478 -1.4081 -0.4816 -1.1957
 6306TIP3   OH240408   2.307   4.282  15.216  0.4756 -0.2343  0.4146
 6306TIP3    H140409   2.292   4.353  15.153  0.3932  0.0244  0.7235
 6306TIP3    H240410   2.400   4.262  15.207  0.3236 -0.6593 -0.2694
 6307TIP3   OH240411   0.034   1.073   3.070  0.2803  0.2229  0.5059
 6307TIP3    H140412   0.017   1.163   3.100  0.7827  0.9475 -1.2469
 6307TIP3    H240413   0.087   1.034   3.140  0.5524  1.4798  1.0333
 6308TIP3   OH240414   2.781   2.496   3.469 -0.1738 -0.4346 -0.2263
 6308TIP3    H140415   2.705   2.445   3.497  0.2715 -0.6950  0.5459
 6308TIP3    H240416   2.831   2.437   3.412  0.0682 -0.6823  0.2401
 6309TIP3   OH240417   1.196   2.581   2.794 -0.6141 -0.5108  0.6602
 6309TIP3    H140418   1.202   2.534   2.711 -0.6864 -1.4088  1.1532
 6309TIP3    H240419   1.266   2.544   2.848 -1.5072 -1.0000  1.5132
 6310TIP3   OH240420   2.590   3.314   5.368  0.0499 -0.3217 -0.4187
 6310TIP3    H140421   2.590   3.307   5.273 -1.4606 -0.0526 -0.4532
 6310TIP3    H240422   2.680   3.295   5.393  0.9904  1.6012 -2.0345
 6311TIP3   OH240423   6.041   6.246  16.385  0.0906  0.4801  0.1862
 6311TIP3    H140424   6.099   6.305  16.433  0.2602  0.5981 -0.1602
 6311TIP3    H240425   6.045   6.277  16.294  1.3937 -0.9850 -0.3203
 6312TIP3   OH240426   1.110   2.818   6.649  0.4777 -0.4990  0.0632
 6312TIP3    H140427   1.199   2.813   6.613  1.0537 -0.8055  1.4490
 6312TIP3    H240428   1.085   2.727   6.662  0.3637 -0.3846  0.6371
 6313TIP3   OH240429   0.063   3.612  12.386  0.3121 -0.0621  0.2225
 6313TIP3    H140430   0.055   3.648  12.298 -3.0836 -1.3477 -0.1360
 6313TIP3    H240431   0.017   3.675  12.442  2.9913  1.0867  1.3322
 6314TIP3   OH240432   0.844   0.265  10.722 -0.6327 -0.0339  0.1160
 6314TIP3    H140433   0.804   0.215  10.793 -2.3334 -0.0021 -0.7660
 6314TIP3    H240434   0.826   0.213  10.643  0.6130  0.2699 -0.4021
 6315TIP3   OH240435   6.701   1.869  13.515 -0.1114  0.2666  0.2035
 6315TIP3    H140436   6.789   1.904  13.505  0.2064 -0.5441  0.1483
 6315TIP3    H240437   6.693   1.849  13.608 -0.5498  1.1362  0.3657
 6316TIP3   OH240438   6.086   0.808  17.035  0.5255 -0.0361 -0.0893
 6316TIP3    H140439   6.156   0.797  17.098  1.1799 -1.9403 -1.0539
 6316TIP3    H240440   6.130   0.822  16.951 -0.1496 -1.7510 -0.7979
 6317TIP3   OH240441   3.664   1.885  15.866  0.6781  0.1196 -0.4066
 6317TIP3    H140442   3.655   1.970  15.824  0.8721  0.1181 -0.4499
 6317TIP3    H240443   3.758   1.870  15.870  0.7269  0.6516  1.0857
 6318TIP3   OH240444   1.566   1.917  13.759 -0.2850  0.4599  0.2952
 6318TIP3    H140445   1.637   1.857  13.785 -0.6691 -0.1113  0.0522
 6318TIP3    H240446   1.487   1.879  13.798 -0.3139  1.7000  1.4971
 6319TIP3   OH240447   2.760   1.491   3.768 -0.3554  0.4986  0.3130
 6319TIP3    H140448   2.757   1.586   3.769 -2.0265  0.4825 -0.3206
 6319TIP3    H240449   2.724   1.465   3.853  0.7945  0.4162  0.7928
 6320TIP3   OH240450   6.457   2.936   3.025 -0.2718 -0.4943  0.1019
 6320TIP3    H140451   6.490   2.964   3.110  0.2564  0.9629 -0.5441
 6320TIP3    H240452   6.518   2.975   2.962 -1.5756 -0.1729 -1.0094
 6321TIP3   OH240453   6.120   1.747  16.622 -0.0019 -0.0842  0.3385
 6321TIP3    H140454   6.199   1.796  16.643 -0.3860  0.4993  0.4641
 6321TIP3    H240455   6.053   1.815  16.611 -0.5347 -0.5835  0.4740
 6322TIP3   OH240456   0.447   4.037   4.925 -0.0668 -0.1124 -0.6417
 6322TIP3    H140457   0.395   3.962   4.897  0.9118 -0.5176 -1.4616
 6322TIP3    H240458   0.513   4.001   4.983 -0.7333  0.4139  0.4798
 6323TIP3   OH240459   1.423   2.625   0.202 -0.3367 -0.3175 -0.1074
 6323TIP3    H140460   1.364   2.685   0.156 -0.3410  0.0066  0.3144
 6323TIP3    H240461   1.386   2.618   0.290  0.5508  0.3052  0.3234
 6324TIP3   OH240462   0.466   4.805  14.060 -0.2754 -0.2024 -0.2222
 6324TIP3    H140463   0.436   4.802  13.969 -0.1937 -0.6298 -0.2367
 6324TIP3    H240464   0.438   4.891  14.092 -2.5312 -1.0074  0.1211
 6325TIP3   OH240465   4.636   6.234  16.325  0.5049 -0.0573  0.3468
 6325TIP3    H140466   4.651   6.262  16.235 -0.6889 -0.1281  0.1009
 6325TIP3    H240467   4.696   6.162  16.339 -0.3155 -1.0194 -0.9048
 6326TIP3   OH240468   6.051   0.224  11.463 -0.1413 -0.0741 -0.0605
 6326TIP3    H140469   6.044   0.130  11.448 -0.1508  0.0675 -1.0330
 6326TIP3    H240470   6.002   0.240  11.544  0.1140 -0.9412  0.2699
 6327TIP3   OH240471   2.506   1.001   3.853 -0.0723 -0.2446 -0.1936
 6327TIP3    H140472   2.532   0.975   3.764  2.2303  1.9171 -0.2909
 6327TIP3    H240473   2.519   0.922   3.906  0.7494 -0.9649 -1.4116
 6328TIP3   OH240474   6.363   6.586   1.469  0.0723  0.0367  0.2859
 6328TIP3    H140475   6.452   6.566   1.499  0.1783 -0.0065 -0.0478
 6328TIP3    H240476   6.372   6.596   1.374 -0.3856 -0.5658  0.1724
 6329TIP3   OH240477   2.096   6.486   3.548 -0.3040 -0.2285  0.1878
 6329TIP3    H140478   2.142   6.462   3.628  0.2804 -2.0190 -0.6474
 6329TIP3    H240479   2.161   6.476   3.478 -0.9113  0.8958 -0.5854
 6330TIP3   OH240480   0.561   3.272  16.245 -0.8149 -0.7791  0.3187
 6330TIP3    H140481   0.567   3.338  16.176  0.8621 -0.0406  1.1274
 6330TIP3    H240482   0.467   3.252  16.250 -1.3974  1.5347  0.0268
 6331TIP3   OH240483   5.594   1.052  16.589 -0.2952 -0.5910 -0.5855
 6331TIP3    H140484   5.552   0.979  16.543 -1.1141 -0.6828  0.2738
 6331TIP3    H240485   5.627   1.109  16.519 -1.1137 -0.9536 -1.2810
 6332TIP3   OH240486   0.713   6.124  14.494  0.3906 -0.0441  0.0105
 6332TIP3    H140487   0.724   6.212  14.458 -0.3649  0.6619  1.4035
 6332TIP3    H240488   0.676   6.138  14.581  0.1681 -1.7565  0.2354
 6333TIP3   OH240489   5.906   4.523   1.085 -0.2356 -0.2168  0.3417
 6333TIP3    H140490   5.837   4.588   1.073  0.3147  0.0855 -1.5931
 6333TIP3    H240491   5.870   4.460   1.147 -1.3194  1.1708  1.1907
 6334TIP3   OH240492   6.459   4.104   2.196 -0.2817  0.2221  0.2019
 6334TIP3    H140493   6.367   4.129   2.205  0.1754  1.4519  2.1488
 6334TIP3    H240494   6.497   4.174   2.142  0.4094  2.5059  3.3481
 6335TIP3   OH240495   2.827   2.859   3.518 -0.8553  0.4850  0.6323
 6335TIP3    H140496   2.918   2.833   3.533 -1.0057  0.2511  1.1506
 6335TIP3    H240497   2.832   2.949   3.487 -0.3997  0.2366 -0.0420
 6336TIP3   OH240498   6.279   2.796   0.263 -0.0501 -0.0376 -0.5441
 6336TIP3    H140499   6.201   2.742   0.275  0.3776 -0.7745 -0.9476
 6336TIP3    H240500   6.352   2.736   0.280  0.4392  1.1525  1.8689
 6337TIP3   OH240501   4.598   1.321   3.058 -0.0391  0.2483  0.1027
 6337TIP3    H140502   4.627   1.236   3.024  0.9600  1.1859 -1.5616
 6337TIP3    H240503   4.675   1.358   3.100 -0.4344  0.3785  0.7188
 6338TIP3   OH240504   0.885   2.336  16.383 -0.2297  0.2188  0.7803
 6338TIP3    H140505   0.885   2.383  16.300  2.4805 -1.5228 -0.3527
 6338TIP3    H240506   0.977   2.316  16.399 -1.0708 -4.1774  1.3784
 6339TIP3   OH240507   5.400   0.304   5.584 -0.1112  0.1765 -0.4131
 6339TIP3    H140508   5.318   0.259   5.606 -1.1182  1.6692 -0.8990
 6339TIP3    H240509   5.434   0.335   5.668  0.6918 -1.5687 -0.0524
 6340TIP3   OH240510   0.037   2.102  11.746 -0.7077 -0.4024 -0.2948
 6340TIP3    H140511   0.065   2.191  11.727  0.3764 -0.2062  1.8512
 6340TIP3    H240512  -0.034   2.112  11.809 -1.0417 -1.0456 -0.5582
 6341TIP3   OH240513   3.626   4.448   4.227  0.2285  0.0888  0.4546
 6341TIP3    H140514   3.661   4.452   4.316 -0.7257  0.0329  0.8490
 6341TIP3    H240515   3.645   4.359   4.197 -0.9289 -0.4464  1.2481
 6342TIP3   OH240516   5.901   4.860   0.080  0.4824  0.2962  0.6797
 6342TIP3    H140517   5.922   4.875   0.173  0.9112 -1.6207  0.9358
 6342TIP3    H240518   5.807   4.844   0.079 -0.1359  3.2863  0.3027
 6343TIP3   OH240519   1.588   3.695  14.220  0.5025 -0.6080 -0.0773
 6343TIP3    H140520   1.564   3.758  14.287 -1.2042 -1.8277  0.5197
 6343TIP3    H240521   1.592   3.611  14.266 -0.0244 -1.3643 -1.3574
 6344TIP3   OH240522   1.176   0.508   5.370  0.2840 -0.3106  0.1741
 6344TIP3    H140523   1.182   0.604   5.371  0.2110 -0.3087  0.7015
 6344TIP3    H240524   1.259   0.479   5.331 -0.0820 -0.0130 -0.8740
 6345TIP3   OH240525   6.027   2.942   5.702 -0.4399  0.0978  0.0409
 6345TIP3    H140526   6.093   2.999   5.742  1.6279 -1.7726 -0.4732
 6345TIP3    H240527   6.057   2.854   5.723 -2.1564 -0.8448 -1.2679
 6346TIP3   OH240528   6.077   0.091   4.912  0.2418  0.2814  0.0186
 6346TIP3    H140529   6.026   0.171   4.924 -1.0475 -0.3555 -0.9793
 6346TIP3    H240530   6.030   0.025   4.964  1.0162  0.0526  0.4410
 6347TIP3   OH240531   6.117   3.957  12.646 -0.8092 -0.6246  0.3328
 6347TIP3    H140532   6.059   4.026  12.678  1.7399  1.2750  1.2559
 6347TIP3    H240533   6.166   3.998  12.574  2.0409 -0.7295  2.0579
 6348TIP3   OH240534   5.133   0.113   4.654  0.5858 -0.1453  0.2160
 6348TIP3    H140535   5.221   0.107   4.616 -0.3669 -0.6424 -2.0471
 6348TIP3    H240536   5.094   0.027   4.638 -0.8461  0.5558 -0.2225
 6349TIP3   OH240537   0.935   2.973  13.833  0.3874  0.2254  1.2853
 6349TIP3    H140538   0.970   3.060  13.852 -1.6268  1.3946 -0.0177
 6349TIP3    H240539   0.960   2.958  13.742  0.4407 -0.4300  1.4058
 6350TIP3   OH240540   6.151   4.172  15.768 -0.5353 -0.3156  0.6959
 6350TIP3    H140541   6.082   4.211  15.715 -0.8481  0.0682  1.3749
 6350TIP3    H240542   6.231   4.184  15.717 -1.1059 -1.7019 -0.5937
 6351TIP3   OH240543   1.479   3.706  11.414 -0.3061  0.3135 -0.6246
 6351TIP3    H140544   1.391   3.745  11.411  0.0401  1.0537 -1.8746
 6351TIP3    H240545   1.464   3.616  11.441 -1.2186  1.0016  1.4019
 6352TIP3   OH240546   6.337   3.496   3.760 -0.1619  0.0610 -0.7545
 6352TIP3    H140547   6.341   3.583   3.799  1.8951 -0.3320  0.0259
 6352TIP3    H240548   6.244   3.480   3.748 -0.8119  1.1373  1.9592
 6353TIP3   OH240549   4.348   3.944  11.784 -0.3639 -0.5694 -0.1631
 6353TIP3    H140550   4.395   3.980  11.859  0.2488  1.9729 -1.6091
 6353TIP3    H240551   4.305   4.021  11.744 -1.2857 -1.9305 -1.9575
 6354TIP3   OH240552   4.047   3.647  13.391 -0.6628  0.2640 -0.5640
 6354TIP3    H140553   3.984   3.612  13.455 -1.7341 -1.1338 -2.2908
 6354TIP3    H240554   4.067   3.573  13.334  1.5418  1.0434 -0.9012
 6355TIP3   OH240555   6.088   4.445  11.405 -0.6776 -0.5982 -0.2778
 6355TIP3    H140556   6.070   4.507  11.475  1.5611 -0.4948  0.2835
 6355TIP3    H240557   6.020   4.461  11.339 -2.1147  0.1165  1.3183
 6356TIP3   OH240558   5.029   6.299   4.701 -0.2502  0.1487 -0.2187
 6356TIP3    H140559   4.988   6.250   4.773 -0.8192 -1.3533 -1.5071
 6356TIP3    H240560   5.037   6.235   4.631 -0.5921  1.8233 -1.8456
 6357TIP3   OH240561   5.272   1.727  11.757 -0.0998 -0.3280 -0.3399
 6357TIP3    H140562   5.272   1.647  11.810 -0.0248 -0.3636 -0.3921
 6357TIP3    H240563   5.197   1.717  11.699  0.7148 -1.0238 -1.3210
 6358TIP3   OH240564   6.420   4.908   1.832  0.1199  0.3506 -0.0755
 6358TIP3    H140565   6.387   4.879   1.747  3.1173  0.2740 -1.3531
 6358TIP3    H240566   6.363   4.980   1.858 -1.2134 -0.0130 -1.8620
 6359TIP3   OH240567   4.968   0.631   1.438  0.2175  0.4802  0.6816
 6359TIP3    H140568   4.972   0.548   1.390  0.8686 -0.7179  2.6992
 6359TIP3    H240569   4.940   0.695   1.373 -4.1403 -1.9289 -0.2178
 6360TIP3   OH240570   3.662   6.744  16.581  0.5711 -0.0573  0.5068
 6360TIP3    H140571   3.663   6.674  16.515 -0.0637 -0.7779  1.2414
 6360TIP3    H240572   3.741   6.795  16.563  0.0710  0.1535 -1.2223
 6361TIP3   OH240573   1.613   4.384  11.737  0.1120 -0.3968  0.0192
 6361TIP3    H140574   1.700   4.344  11.737 -0.1776 -1.0325  0.3460
 6361TIP3    H240575   1.586   4.384  11.645  0.1156 -0.9498  0.0173
 6362TIP3   OH240576   0.988   2.325   1.385 -0.1430  0.0285 -0.1692
 6362TIP3    H140577   0.947   2.250   1.429 -0.9634  0.5823  0.0417
 6362TIP3    H240578   0.929   2.398   1.404 -0.1777  0.4161 -1.6523
 6363TIP3   OH240579   5.056   3.581   1.832 -0.3208  0.0132  0.7027
 6363TIP3    H140580   4.978   3.535   1.866 -0.0291  0.1510  1.5930
 6363TIP3    H240581   5.034   3.674   1.839  0.4941  0.1274  2.5007
 6364TIP3   OH240582   6.787   3.977   4.366  0.1028  0.3863 -0.5363
 6364TIP3    H140583   6.828   4.063   4.368 -0.2934  0.5960 -1.1782
 6364TIP3    H240584   6.707   3.987   4.417 -0.3495  0.6198 -1.2794
 6365TIP3   OH240585   3.900   1.569   3.404 -0.1781 -0.2216 -0.7531
 6365TIP3    H140586   3.854   1.638   3.452  1.3911 -0.3746  1.0831
 6365TIP3    H240587   3.837   1.497   3.400 -1.4466  0.8918 -1.7400
 6366TIP3   OH240588   1.362   1.134  14.701  0.4077  0.5902 -0.6338
 6366TIP3    H140589   1.411   1.072  14.647  1.2220 -0.4038  1.1697
 6366TIP3    H240590   1.342   1.086  14.781 -0.0745  2.2542  0.2920
 6367TIP3   OH240591   1.306   0.190  16.806  0.3536 -0.8486  0.7595
 6367TIP3    H140592   1.333   0.099  16.817 -1.2025 -1.9463 -2.8487
 6367TIP3    H240593   1.213   0.191  16.830  0.7992  0.3252  2.6388
 6368TIP3   OH240594   2.170   0.902  14.792 -0.5875  0.3883 -0.3928
 6368TIP3    H140595   2.264   0.891  14.779 -0.6348  0.2768 -0.6463
 6368TIP3    H240596   2.130   0.827  14.747 -0.6527 -1.3282  2.3385
 6369TIP3   OH240597   3.258   3.756   2.585  0.7120  0.0220  0.6965
 6369TIP3    H140598   3.273   3.687   2.650  0.3293 -0.3716  0.3698
 6369TIP3    H240599   3.345   3.793   2.570  0.4856  1.7748  3.2203
 6370TIP3   OH240600   2.507   2.977  15.014  0.5794 -0.0135  0.0495
 6370TIP3    H140601   2.598   2.995  14.991  0.9264 -0.7409  0.8182
 6370TIP3    H240602   2.512   2.912  15.084 -0.5011  0.6701  0.7961
 6371TIP3   OH240603   6.096   6.145  15.701  0.0622  0.6578  0.2377
 6371TIP3    H140604   6.142   6.161  15.619  0.8048 -0.1848  0.4770
 6371TIP3    H240605   6.088   6.232  15.741  0.9348  0.8912 -0.0822
 6372TIP3   OH240606   2.569   0.910   3.596 -0.5236 -0.8051  0.0898
 6372TIP3    H140607   2.573   0.926   3.502  0.8015 -4.9727 -0.7527
 6372TIP3    H240608   2.501   0.844   3.607  0.3681 -1.5103  1.8416
 6373TIP3   OH240609   1.510   5.971  13.008 -0.0595  0.1080 -0.0038
 6373TIP3    H140610   1.504   5.893  13.064  1.4285  0.5477  0.8437
 6373TIP3    H240611   1.588   5.956  12.955 -0.2466  0.6505 -0.4361
 6374TIP3   OH240612   0.416   4.842  16.343 -0.3821 -0.0243  0.0234
 6374TIP3    H140613   0.430   4.748  16.353 -2.7062 -0.3299  1.1983
 6374TIP3    H240614   0.498   4.875  16.307  0.7331 -2.3872  0.2031
 6375TIP3   OH240615   3.449   3.243   2.345  0.7636 -0.1427  0.2062
 6375TIP3    H140616   3.398   3.270   2.268  0.7657  0.4284  0.3984
 6375TIP3    H240617   3.408   3.161   2.373  0.9177 -0.4955 -0.5486
 6376TIP3   OH240618   0.220   0.727  16.511 -0.2011  0.0587  1.0187
 6376TIP3    H140619   0.285   0.767  16.569 -2.5320  2.0582  2.4455
 6376TIP3    H240620   0.180   0.658  16.564 -1.8750  1.4478  1.6484
 6377TIP3   OH240621   2.371   1.195  14.758 -0.6693 -0.2298 -0.0360
 6377TIP3    H140622   2.373   1.125  14.823  3.4068  0.6593  1.0339
 6377TIP3    H240623   2.387   1.151  14.675 -1.1953 -0.8452  0.1742
 6378TIP3   OH240624   5.787   2.647   0.881  0.5827  0.1227  0.1932
 6378TIP3    H140625   5.711   2.683   0.926  0.1914 -2.0876  1.4464
 6378TIP3    H240626   5.785   2.688   0.794 -2.8101 -0.7340 -0.2923
 6379TIP3   OH240627   3.812   4.696   2.812 -0.4068 -0.2206 -0.0476
 6379TIP3    H140628   3.726   4.653   2.819  0.1727 -1.1375  2.2084
 6379TIP3    H240629   3.871   4.625   2.785  0.2351 -0.4896  1.9258
 6380TIP3   OH240630   5.323   5.043  14.717 -0.2058  0.2045  0.0440
 6380TIP3    H140631   5.266   5.056  14.641 -0.8266 -1.1846  0.2470
 6380TIP3    H240632   5.302   5.116  14.775 -0.2837  0.8521 -0.7771
 6381TIP3   OH240633   0.833   6.821  12.128 -0.5654  0.5513  0.3239
 6381TIP3    H140634   0.791   6.874  12.196 -1.5545 -0.1573  0.2837
 6381TIP3    H240635   0.910   6.872  12.103 -0.1741  0.8490  1.9591
 6382TIP3   OH240636   6.182   5.472  12.397 -0.1848  0.1068  0.5524
 6382TIP3    H140637   6.219   5.520  12.472 -0.0139 -0.6594  0.9638
 6382TIP3    H240638   6.219   5.384  12.404  0.7346  0.3161 -1.0774
 6383TIP3   OH240639   5.165   3.028  12.317 -0.8748  0.6385  0.5039
 6383TIP3    H140640   5.238   3.090  12.323  0.4548 -0.8229 -0.0462
 6383TIP3    H240641   5.087   3.083  12.330  0.3391  2.0361  2.5448
 6384TIP3   OH240642   0.612   1.140  12.069  0.3873  0.4634  0.1980
 6384TIP3    H140643   0.584   1.053  12.095 -1.7681  1.1116  0.2079
 6384TIP3    H240644   0.542   1.198  12.098  1.3343  2.0973 -0.6134
 6385TIP3   OH240645   1.958   5.625   5.122  0.3225 -0.0265  0.3013
 6385TIP3    H140646   1.908   5.666   5.051  0.8346  1.3378  0.7060
 6385TIP3    H240647   1.980   5.697   5.180  2.3838 -0.6664  0.3661
 6386TIP3   OH240648   6.467   5.398  13.241  0.5219 -0.3080  0.1834
 6386TIP3    H140649   6.420   5.326  13.200  0.8634  0.0232 -0.8265
 6386TIP3    H240650   6.549   5.359  13.271  0.3139 -0.5345  0.4512
 6387TIP3   OH240651   1.802   2.818  12.252  0.0838 -0.0427 -0.0342
 6387TIP3    H140652   1.873   2.846  12.309 -0.3821 -0.6978  0.9085
 6387TIP3    H240653   1.768   2.898  12.214  1.8633  0.2119 -1.1703
 6388TIP3   OH240654   4.609   5.414   5.073 -0.0399 -0.0538 -0.8625
 6388TIP3    H140655   4.668   5.345   5.100 -1.5476 -0.7202  0.9395
 6388TIP3    H240656   4.570   5.382   4.991  0.1483 -0.7921 -0.6669
 6389TIP3   OH240657   6.426   3.220  16.603  0.2948 -0.1143 -0.3121
 6389TIP3    H140658   6.370   3.224  16.525 -1.4646  2.0920  0.9504
 6389TIP3    H240659   6.412   3.133  16.639  0.1256 -0.6943 -1.7084
 6390TIP3   OH240660   2.445   2.263  13.588 -0.0308 -0.0912  0.1765
 6390TIP3    H140661   2.531   2.289  13.619  0.1209  1.3104 -1.2900
 6390TIP3    H240662   2.460   2.181  13.541  0.4458 -0.0507  0.2543
 6391TIP3   OH240663   1.588   1.610   0.643  0.6026  0.2492  0.2654
 6391TIP3    H140664   1.670   1.598   0.594  0.9632 -0.3360  0.9869
 6391TIP3    H240665   1.520   1.608   0.577  0.7197 -4.1799  0.0056
 6392TIP3   OH240666   0.567   6.745   3.126 -0.5359 -0.3713 -0.2685
 6392TIP3    H140667   0.585   6.838   3.112 -1.7112 -0.1964 -0.6949
 6392TIP3    H240668   0.541   6.740   3.218 -0.6590 -0.2453 -0.2954
 6393TIP3   OH240669   2.865   0.306   5.714 -0.4300  0.3176  0.3157
 6393TIP3    H140670   2.823   0.283   5.797  0.5436 -0.2957  0.6620
 6393TIP3    H240671   2.919   0.229   5.693 -1.6997 -0.1201 -1.5965
 6394TIP3   OH240672   1.649   2.448  13.725  0.6559  0.5346 -0.4864
 6394TIP3    H140673   1.721   2.385  13.738  0.2041  0.4317  1.8466
 6394TIP3    H240674   1.579   2.396  13.685  0.8963 -0.0391 -0.1765
 6395TIP3   OH240675   3.546   0.876   2.581  0.7029  0.1720  0.1006
 6395TIP3    H140676   3.641   0.868   2.584  0.7228  0.5831  0.9580
 6395TIP3    H240677   3.530   0.961   2.540  0.6967 -0.0728 -0.4042
 6396TIP3   OH240678   4.618   1.045   2.146  0.1595  0.2146  0.0103
 6396TIP3    H140679   4.706   1.054   2.111 -0.0786  2.3052 -0.1405
 6396TIP3    H240680   4.580   0.971   2.098  0.5847  1.6040 -2.6157
 6397TIP3   OH240681   0.976   1.939  13.749  0.1566 -0.6425 -0.1756
 6397TIP3    H140682   1.072   1.938  13.755  0.2971 -0.9206 -1.7952
 6397TIP3    H240683   0.946   1.975  13.832  1.6970  0.0986  0.0844
 6398TIP3   OH240684   6.094   2.890   2.382  0.0501 -0.2614 -0.2967
 6398TIP3    H140685   6.052   2.904   2.297  0.2202  0.2809 -0.2994
 6398TIP3    H240686   6.157   2.962   2.389  0.8152 -0.9219 -0.1895
 6399TIP3   OH240687   5.212   2.307  13.089  0.3781 -0.1415  0.1712
 6399TIP3    H140688   5.129   2.261  13.094  0.8606 -1.0151  0.4416
 6399TIP3    H240689   5.218   2.355  13.172  0.3180 -0.4023  0.3299
 6400TIP3   OH240690   2.657   1.187   1.878 -0.5837 -0.4838 -0.3950
 6400TIP3    H140691   2.726   1.224   1.823  0.1277  0.8807  1.3123
 6400TIP3    H240692   2.622   1.262   1.926 -0.8704 -1.6454  1.3043
 6401TIP3   OH240693   4.989   3.962   4.271  0.2300 -0.2966  0.0662
 6401TIP3    H140694   4.987   3.876   4.228  0.9259  0.2297 -1.0571
 6401TIP3    H240695   4.899   3.994   4.264 -0.3247 -1.3977  1.5374
 6402TIP3   OH240696   3.993   5.950   2.209  0.4340  0.0431  0.1773
 6402TIP3    H140697   3.918   5.893   2.226 -0.3147  0.4833 -1.4543
 6402TIP3    H240698   4.045   5.904   2.144  1.6542 -0.2839  1.3384
 6403TIP3   OH240699   4.892   0.049  16.504 -0.3812 -0.2103  0.7204
 6403TIP3    H140700   4.903  -0.043  16.478 -0.9140  0.2976 -1.4301
 6403TIP3    H240701   4.805   0.052  16.543 -0.5327 -0.5335  0.4146
 6404TIP3   OH240702   0.068   1.086   0.737  0.6425 -0.0652  0.0193
 6404TIP3    H140703  -0.023   1.102   0.711 -0.0440 -1.9457  1.0591
 6404TIP3    H240704   0.101   1.024   0.673  0.1954 -1.6812  1.2854
 6405TIP3   OH240705   4.134   3.821   4.554  0.5399  0.3558  0.6306
 6405TIP3    H140706   4.222   3.785   4.538 -0.2164 -0.5747 -2.0165
 6405TIP3    H240707   4.099   3.837   4.466 -2.1299  0.2153  1.5859
 6406TIP3   OH240708   0.453   3.667   0.611 -0.3623 -0.2118  0.2702
 6406TIP3    H140709   0.514   3.737   0.631 -0.5412  0.6934 -2.1181
 6406TIP3    H240710   0.370   3.712   0.592 -0.6062 -1.0831 -0.8163
 6407TIP3   OH240711   2.654   5.694  15.760 -0.3877 -0.9078 -0.1078
 6407TIP3    H140712   2.715   5.664  15.692 -0.7343 -1.1658 -0.3099
 6407TIP3    H240713   2.591   5.622  15.768  0.1627 -1.2686  1.1289
 6408TIP3   OH240714   6.248   6.178  10.965  1.0307 -0.3574  0.3488
 6408TIP3    H140715   6.274   6.088  10.984  0.3193 -0.4301  1.0510
 6408TIP3    H240716   6.266   6.190  10.872 -0.8605 -1.9464 -0.2836
 6409TIP3   OH240717   0.889   3.608  11.710 -0.5768  0.5359 -0.1824
 6409TIP3    H140718   0.845   3.524  11.719  0.6658 -0.0334  0.8960
 6409TIP3    H240719   0.855   3.661  11.782 -1.3253  0.9547 -0.8347
 6410TIP3   OH240720   4.570   0.362   2.105  0.5630  0.4264  0.3801
 6410TIP3    H140721   4.610   0.277   2.125 -2.3345 -1.1685 -0.0519
 6410TIP3    H240722   4.627   0.399   2.037  1.5353 -1.4963  0.0711
 6411TIP3   OH240723   1.884   6.593  14.931 -0.7195 -0.2177 -0.4984
 6411TIP3    H140724   1.912   6.629  14.847  4.3753  0.4177  1.1035
 6411TIP3    H240725   1.871   6.670  14.986 -0.4804 -0.6340  0.1546
 6412TIP3   OH240726   1.166   4.036  12.465 -0.1936 -0.2462  0.0537
 6412TIP3    H140727   1.114   3.957  12.451 -0.1314 -0.5159  1.2591
 6412TIP3    H240728   1.103   4.103  12.489 -0.2702  0.1457 -1.1750
 6413TIP3   OH240729   4.426   2.640   2.024  0.3998 -0.0784 -0.3641
 6413TIP3    H140730   4.423   2.720   2.077  1.0330 -0.1842 -0.1534
 6413TIP3    H240731   4.517   2.634   1.995  0.5960 -1.2240  0.4133
 6414TIP3   OH240732   1.108   5.188   0.378  0.1679 -0.2528 -0.1381
 6414TIP3    H140733   1.091   5.103   0.338  0.9869 -0.4052 -0.1741
 6414TIP3    H240734   1.022   5.230   0.381 -0.1400 -0.8161 -0.7184
 6415TIP3   OH240735   2.982   2.987  12.058 -0.1917 -0.6531  0.2114
 6415TIP3    H140736   2.994   3.065  12.111 -0.6066 -1.0466  0.8883
 6415TIP3    H240737   2.889   2.966  12.065 -0.0014 -1.4669  0.4109
 6416TIP3   OH240738   1.072   4.534   1.699 -0.0008  0.3948 -0.2306
 6416TIP3    H140739   1.002   4.469   1.705 -1.2745  1.6921 -0.3955
 6416TIP3    H240740   1.052   4.597   1.768  1.4342  0.4302  0.1892
 6417TIP3   OH240741   0.394   2.315  13.656  0.4679 -0.9102  1.2870
 6417TIP3    H140742   0.435   2.346  13.737  1.9252  0.3667  0.1315
 6417TIP3    H240743   0.436   2.367  13.587 -1.1275 -1.5685 -0.2433
 6418TIP3   OH240744   0.657   5.119  12.453 -0.2563 -0.2231  0.3764
 6418TIP3    H140745   0.708   5.056  12.403  0.6388  0.1164  0.8312
 6418TIP3    H240746   0.578   5.072  12.479 -0.0437 -0.8518 -0.1018
 6419TIP3   OH240747   6.282   5.625   0.459  0.4446 -0.5457  0.0586
 6419TIP3    H140748   6.339   5.698   0.436  1.5868 -1.2663  0.4874
 6419TIP3    H240749   6.203   5.638   0.407  0.4545  1.2052  0.4453
 6420TIP3   OH240750   6.226   4.356   1.101  0.6729 -0.3863 -0.3390
 6420TIP3    H140751   6.157   4.350   1.035  0.2012 -1.7194  0.2332
 6420TIP3    H240752   6.242   4.450   1.111  0.1688 -0.1256 -1.7292
 6421TIP3   OH240753   4.147   0.678  15.311 -0.3700 -0.5774 -0.2707
 6421TIP3    H140754   4.184   0.609  15.367 -2.7393  1.2489  4.0020
 6421TIP3    H240755   4.216   0.744  15.307 -0.3266 -0.5030  1.0969
 6422TIP3   OH240756   5.545   1.855  16.852  0.0722  0.1122 -0.6199
 6422TIP3    H140757   5.484   1.904  16.797 -1.1580 -0.1880  0.4348
 6422TIP3    H240758   5.490   1.793  16.900  1.0703  0.4795  1.0877
 6423TIP3   OH240759   2.720   3.127   4.043 -0.2848  0.0286 -0.2951
 6423TIP3    H140760   2.766   3.123   3.959 -1.0837  0.9452 -0.7939
 6423TIP3    H240761   2.776   3.077   4.103  0.3632 -0.5341 -1.3325
 6424TIP3   OH240762   0.470   5.269   5.521 -0.2665 -0.2025  0.1787
 6424TIP3    H140763   0.544   5.211   5.540 -0.4657 -0.3812  0.4243
 6424TIP3    H240764   0.488   5.348   5.572  0.4658  0.3190 -0.8789
 6425TIP3   OH240765   3.238   2.734  13.370  0.3435 -0.3187  0.5865
 6425TIP3    H140766   3.308   2.669  13.373 -1.6471 -2.7565 -1.3427
 6425TIP3    H240767   3.263   2.793  13.298  0.8179 -0.6919  0.4408
 6426TIP3   OH240768   0.083   6.492  14.931 -0.0923  0.5109  0.3879
 6426TIP3    H140769   0.056   6.580  14.905 -2.6498  0.6803  3.0568
 6426TIP3    H240770   0.041   6.434  14.868 -0.3999  1.0992  0.0396
 6427TIP3   OH240771   3.651   5.646  16.501  0.2214  0.0663 -0.2485
 6427TIP3    H140772   3.617   5.582  16.564 -1.1187  1.7371  0.8161
 6427TIP3    H240773   3.726   5.685  16.545  0.7814 -0.4611 -0.7233
 6428TIP3   OH240774   1.855   3.007   3.059  0.4592  0.3868  0.0477
 6428TIP3    H140775   1.921   3.064   3.097  1.5677 -1.1202  0.5085
 6428TIP3    H240776   1.808   3.062   2.996  0.1692  2.2969  1.8407
 6429TIP3   OH240777   4.248   1.960   3.089  0.5836  0.3446  0.3395
 6429TIP3    H140778   4.198   1.911   3.023 -1.2500  0.3081  1.6817
 6429TIP3    H240779   4.221   2.051   3.078  0.9360  0.4703  0.4879
 6430TIP3   OH240780   2.211   0.265   3.769 -0.2028  0.5507  0.4800
 6430TIP3    H140781   2.291   0.302   3.807  0.6966 -0.4158 -0.4201
 6430TIP3    H240782   2.232   0.174   3.752 -1.2092  0.4945 -0.5919
 6431TIP3   OH240783   6.810   0.025   4.359 -0.5152 -0.3674  0.1534
 6431TIP3    H140784   6.758   0.054   4.435 -0.8258 -0.3572 -0.0593
 6431TIP3    H240785   6.901   0.033   4.387 -0.5955  0.6691  0.1552
 6432TIP3   OH240786   5.085   4.025   3.719  0.3370 -0.6104  0.2000
 6432TIP3    H140787   5.013   4.077   3.684 -0.4626 -0.5763  1.8090
 6432TIP3    H240788   5.079   4.035   3.813  3.9342  1.3309  0.3818
 6433TIP3   OH240789   4.642   0.338  12.219 -0.2596  0.2831 -0.0567
 6433TIP3    H140790   4.651   0.250  12.257  0.6572  0.4377  0.1160
 6433TIP3    H240791   4.599   0.323  12.135 -1.1419 -0.2011  0.4647
 6434TIP3   OH240792   0.261   4.462   4.890  0.2739 -0.0540 -0.0327
 6434TIP3    H140793   0.279   4.382   4.939  2.4088  1.5233  1.9939
 6434TIP3    H240794   0.346   4.490   4.857 -0.5828  0.8682 -1.6100
 6435TIP3   OH240795   3.228   3.136   6.152 -0.0903 -0.2723  0.1558
 6435TIP3    H140796   3.253   3.099   6.236  1.4848  1.9854  0.7526
 6435TIP3    H240797   3.132   3.131   6.151 -0.0919 -0.9851  1.7456
 6436TIP3   OH240798   1.662   1.899  13.100  0.2756 -0.0680  0.0848
 6436TIP3    H140799   1.710   1.883  13.019  0.7814 -0.4061  0.4412
 6436TIP3    H240800   1.577   1.856  13.087  0.3746 -0.1670 -0.2427
 6437TIP3   OH240801   5.794   2.411   1.216  0.5608  0.0723  0.1393
 6437TIP3    H140802   5.742   2.491   1.204 -0.6009 -0.5742  0.6413
 6437TIP3    H240803   5.755   2.348   1.154 -0.4859 -0.9673  1.7586
 6438TIP3   OH240804   4.981   5.035   0.918  0.0741 -0.2724  0.2992
 6438TIP3    H140805   4.938   4.963   0.964 -2.0531 -0.4449 -1.7690
 6438TIP3    H240806   5.055   4.993   0.873 -1.9997 -1.6181 -2.1008
 6439TIP3   OH240807   3.067   0.800  16.593  0.0912  0.1982 -0.2344
 6439TIP3    H140808   3.152   0.810  16.550  0.0601 -0.4746 -0.4686
 6439TIP3    H240809   3.086   0.805  16.686  0.4610 -0.4299 -0.2713
 6440TIP3   OH240810   1.824   5.288  15.150 -0.7955 -0.1708  0.1554
 6440TIP3    H140811   1.747   5.232  15.146  0.4158 -1.9338  0.1127
 6440TIP3    H240812   1.894   5.230  15.180  0.5944  1.2754 -0.1556
 6441TIP3   OH240813   0.894   5.567  13.680  0.5477 -0.2286  0.4679
 6441TIP3    H140814   0.916   5.524  13.763 -0.4616 -0.2617  0.7278
 6441TIP3    H240815   0.799   5.560  13.674  0.6328 -0.4328 -0.8212
 6442TIP3   OH240816   2.344   3.391   1.643 -0.6524  0.3228 -0.1042
 6442TIP3    H140817   2.344   3.306   1.600 -0.7809 -0.9834  2.3069
 6442TIP3    H240818   2.429   3.429   1.621 -0.7151 -0.2595 -1.4644
 6443TIP3   OH240819   6.272   2.207   0.600  0.6418  0.0639 -0.2271
 6443TIP3    H140820   6.359   2.168   0.587  0.0879 -1.3352  0.0663
 6443TIP3    H240821   6.214   2.132   0.616 -0.4900  1.0221  0.3431
 6444TIP3   OH240822   1.414   0.330   1.310  0.4283  0.2430 -0.1485
 6444TIP3    H140823   1.411   0.302   1.219 -0.7001  1.3937 -0.4866
 6444TIP3    H240824   1.444   0.252   1.358 -1.5492 -1.2284 -1.1794
 6445TIP3   OH240825   6.817   1.422   2.344  0.0077  0.3789 -0.1855
 6445TIP3    H140826   6.817   1.364   2.420  0.4146 -0.6394 -0.9490
 6445TIP3    H240827   6.749   1.387   2.287 -0.4534  1.2737 -0.2023
 6446TIP3   OH240828   2.202   4.916   5.773 -0.2586  0.4781  0.0644
 6446TIP3    H140829   2.156   4.978   5.717 -1.3988 -0.1003  0.3288
 6446TIP3    H240830   2.174   4.830   5.742  3.1741 -0.1013 -1.9348
 6447TIP3   OH240831   5.792   3.077  11.907 -0.7671 -0.8135 -0.1263
 6447TIP3    H140832   5.707   3.077  11.862 -0.9799  1.2800  0.1718
 6447TIP3    H240833   5.774   3.037  11.992 -2.0993  1.8255  0.9276
 6448TIP3   OH240834   4.764   2.208  12.622  0.4244 -0.8047 -0.3394
 6448TIP3    H140835   4.765   2.243  12.712 -0.6863  1.3542 -1.0832
 6448TIP3    H240836   4.774   2.114  12.633 -1.1607 -0.7803  2.1584
 6449TIP3   OH240837   3.361   4.049   2.792  0.0147  0.6201  0.1470
 6449TIP3    H140838   3.399   4.023   2.708 -0.3509  1.5126 -0.3134
 6449TIP3    H240839   3.433   4.044   2.854  0.7237  1.5803 -0.5624
 6450TIP3   OH240840   1.124   4.090  15.523  0.2121 -0.0952 -0.3502
 6450TIP3    H140841   1.188   4.041  15.574  0.0372 -0.4014 -0.4227
 6450TIP3    H240842   1.131   4.054  15.435 -1.4972 -1.5804  0.0721
 6451TIP3   OH240843   5.422   3.143   4.747  0.4112 -0.6480 -0.0606
 6451TIP3    H140844   5.441   3.184   4.662 -1.5997 -3.8021 -2.2836
 6451TIP3    H240845   5.507   3.118   4.781  1.2326 -0.4223 -1.8192
 6452TIP3   OH240846   3.621   6.344  14.965  0.1486  0.0612 -0.1319
 6452TIP3    H140847   3.705   6.391  14.971 -0.0360  0.3526  0.2148
 6452TIP3    H240848   3.581   6.356  15.051 -0.1520 -0.2672 -0.2245
 6453TIP3   OH240849   1.378   3.295   2.040 -0.3677 -0.0439 -0.4707
 6453TIP3    H140850   1.387   3.324   2.131  2.9087  1.9182 -1.2545
 6453TIP3    H240851   1.286   3.312   2.019 -0.8291  0.9815  1.9715
 6454TIP3   OH240852   0.472   4.804   1.063 -0.0137  0.1559 -0.1986
 6454TIP3    H140853   0.393   4.852   1.036 -0.7963 -0.2826  1.2309
 6454TIP3    H240854   0.526   4.802   0.984 -0.7269  1.8401 -0.7843
 6455TIP3   OH240855   3.650   4.761   5.608 -0.1666  0.3189  0.9447
 6455TIP3    H140856   3.588   4.833   5.621  1.7608  2.4497 -0.8029
 6455TIP3    H240857   3.704   4.761   5.687 -0.7068  0.2310  1.3152
 6456TIP3   OH240858   4.174   2.580   4.716  0.3105 -0.2791  0.3529
 6456TIP3    H140859   4.243   2.537   4.767  0.6730 -0.5116 -0.3288
 6456TIP3    H240860   4.218   2.656   4.676  0.1004 -0.2636  0.1482
 6457TIP3   OH240861   1.563   5.148  14.813 -0.4533 -0.0470  0.2161
 6457TIP3    H140862   1.571   5.211  14.741 -2.4153 -1.3663 -1.2765
 6457TIP3    H240863   1.619   5.075  14.786  0.1507  0.1675  0.8863
 6458TIP3   OH240864   1.848   4.465   5.123  0.1382 -0.4491  0.0344
 6458TIP3    H140865   1.783   4.535   5.135  1.8577  1.3965 -0.6791
 6458TIP3    H240866   1.821   4.421   5.042 -0.0496  0.5617 -0.4833
 6459TIP3   OH240867   5.559   1.306   4.817 -0.0588  0.4142  0.0484
 6459TIP3    H140868   5.464   1.294   4.820 -0.2711  1.8265 -0.4894
 6459TIP3    H240869   5.584   1.325   4.908 -0.0944 -1.1276  0.4112
 6460TIP3   OH240870   0.792   0.638   4.432  0.4745  0.3429  0.2781
 6460TIP3    H140871   0.802   0.714   4.375  2.0392 -1.0387 -1.4422
 6460TIP3    H240872   0.855   0.653   4.503 -0.1643  1.2240  0.6761
 6461TIP3   OH240873   4.044   1.792  16.865  0.6276  0.2738 -0.7816
 6461TIP3    H140874   3.990   1.868  16.889 -0.1180 -0.3851 -0.3377
 6461TIP3    H240875   4.133   1.828  16.856  0.3608  1.1186 -0.1594
 6462TIP3   OH240876   6.203   3.829  11.257  0.1138 -0.0369 -0.1094
 6462TIP3    H140877   6.130   3.767  11.253  1.4351 -1.9601  2.3481
 6462TIP3    H240878   6.200   3.876  11.174 -3.1604 -0.8665 -0.5784
 6463TIP3   OH240879   4.340   0.351  13.555 -0.0106 -0.1984 -0.3216
 6463TIP3    H140880   4.271   0.380  13.614 -0.8202 -1.9720 -0.3322
 6463TIP3    H240881   4.397   0.297  13.610 -0.1922 -1.0149 -0.9241
 6464TIP3   OH240882   1.331   6.777  13.908 -0.4237 -0.6782  0.0766
 6464TIP3    H140883   1.402   6.834  13.936 -0.2852 -0.9138  0.2148
 6464TIP3    H240884   1.271   6.774  13.982 -2.0791  1.8186 -1.0412
 6465TIP3   OH240885   4.986   5.588  12.381 -0.3804 -0.0206 -0.5381
 6465TIP3    H140886   5.029   5.588  12.295  2.3509  0.1395  0.7335
 6465TIP3    H240887   5.045   5.637  12.438 -1.6590 -0.8897  1.6772
 6466TIP3   OH240888   2.379   3.866   1.308 -0.5932 -0.4048 -0.3688
 6466TIP3    H140889   2.401   3.959   1.314  0.2160 -0.6308  0.4000
 6466TIP3    H240890   2.310   3.854   1.374  0.3133 -0.6170  0.5736
 6467TIP3   OH240891   3.517   3.771  12.447  0.4624  0.5864  0.1317
 6467TIP3    H140892   3.466   3.825  12.508  1.1621  0.1733  1.1114
 6467TIP3    H240893   3.453   3.737  12.385 -0.0586  2.1776 -0.2426
 6468TIP3   OH240894   1.718   4.189   4.656 -0.3142  0.5443 -0.7492
 6468TIP3    H140895   1.733   4.181   4.562  0.3852 -1.7494 -0.5054
 6468TIP3    H240896   1.656   4.119   4.677 -0.9415  1.4074  0.4164
 6469TIP3   OH240897   0.363   6.244   0.781 -0.2484  0.2319  0.0616
 6469TIP3    H140898   0.401   6.172   0.730 -2.1170 -1.2441  0.6087
 6469TIP3    H240899   0.367   6.320   0.723  1.0278 -0.4975 -0.8581
 6470TIP3   OH240900   2.451   0.348  16.756  0.1931  0.1079  0.8186
 6470TIP3    H140901   2.368   0.394  16.744  0.7005  1.0126  0.6668
 6470TIP3    H240902   2.505   0.408  16.808  0.9963 -0.1554  0.3133
 6471TIP3   OH240903   3.112   2.676   3.295 -0.7667  0.6934 -0.4508
 6471TIP3    H140904   3.114   2.592   3.250 -0.6465  0.8871 -0.8094
 6471TIP3    H240905   3.179   2.729   3.252  0.4470  0.3814  0.9714
 6472TIP3   OH240906   1.958   3.822  16.360  0.0081  0.4466 -0.1970
 6472TIP3    H140907   2.009   3.753  16.402  0.2366  0.7452  0.0229
 6472TIP3    H240908   1.876   3.824  16.410 -0.7248 -0.8329 -1.2843
 6473TIP3   OH240909   3.992   4.190  13.218  0.4673  0.2835  0.1156
 6473TIP3    H140910   4.054   4.263  13.212 -2.7871  3.6213  2.4267
 6473TIP3    H240911   3.955   4.183  13.129  1.4414  0.8484 -0.3503
 6474TIP3   OH240912   4.555   6.159   4.370  0.1722 -0.0292 -0.4545
 6474TIP3    H140913   4.603   6.221   4.316 -0.0246  0.8811  0.3980
 6474TIP3    H240914   4.488   6.123   4.312  0.1484  0.7154 -0.8983
 6475TIP3   OH240915   2.467   2.755  15.754 -0.4929  0.2648  0.8247
 6475TIP3    H140916   2.528   2.682  15.748  2.1326  2.4563 -2.0582
 6475TIP3    H240917   2.521   2.830  15.781 -2.4093  1.8191  0.5865
 6476TIP3   OH240918   4.630   0.023  16.620 -0.7559 -0.2397  1.0591
 6476TIP3    H140919   4.643  -0.028  16.700 -3.8578 -0.3917  1.5763
 6476TIP3    H240920   4.574  -0.032  16.566 -0.6830  0.8734 -0.1918
 6477TIP3   OH240921   5.145   0.652  16.725  0.2476  0.6159 -0.1961
 6477TIP3    H140922   5.235   0.684  16.716  0.5339  0.1835  0.9976
 6477TIP3    H240923   5.147   0.595  16.802 -1.2366  1.2979  0.3888
 6478TIP3   OH240924   4.736   1.317  13.800 -0.2168 -0.2646 -0.2219
 6478TIP3    H140925   4.727   1.249  13.733  2.2139  1.1253 -2.1510
 6478TIP3    H240926   4.828   1.314  13.825 -0.6414  0.6372  1.5642
 6479TIP3   OH240927   5.556   0.265   1.442  0.3762  0.2649  0.2749
 6479TIP3    H140928   5.646   0.297   1.446  0.5466 -0.2211  0.3415
 6479TIP3    H240929   5.537   0.233   1.530 -0.2703  1.4448  0.5825
 6480TIP3   OH240930   2.842   5.354  12.475  0.5039 -0.0472  0.6064
 6480TIP3    H140931   2.874   5.403  12.398  0.4086 -0.3003  0.4034
 6480TIP3    H240932   2.841   5.418  12.545 -1.2052  0.7067 -0.0398
 6481TIP3   OH240933   2.474   3.799   5.726 -0.3780  0.2441 -0.0901
 6481TIP3    H140934   2.424   3.771   5.802 -0.1549 -0.3161 -0.1435
 6481TIP3    H240935   2.416   3.860   5.680 -1.1082 -0.5665 -0.2711
 6482TIP3   OH240936   6.210   5.703   2.011 -0.1245 -0.0038 -0.6071
 6482TIP3    H140937   6.226   5.644   2.085 -1.3282  0.9626  0.4568
 6482TIP3    H240938   6.260   5.781   2.032 -1.2500  0.6500 -0.3224
 6483TIP3   OH240939   5.254   1.125   4.663  0.2301  0.2558  0.1279
 6483TIP3    H140940   5.287   1.153   4.748 -1.8858  1.4529  0.6388
 6483TIP3    H240941   5.260   1.203   4.607 -1.0616  0.3341  0.0667
 6484TIP3   OH240942   4.827   1.440   3.180 -0.4616 -0.0021 -0.0212
 6484TIP3    H140943   4.883   1.460   3.105  0.1071  0.7780  0.6042
 6484TIP3    H240944   4.887   1.439   3.255 -0.9370 -1.2542  0.3739
 6485TIP3   OH240945   4.751   4.406   4.457 -0.4357  0.1419 -0.1315
 6485TIP3    H140946   4.790   4.351   4.524  0.4399  0.1244 -0.6360
 6485TIP3    H240947   4.657   4.388   4.463 -0.1581 -1.7912 -0.5813
 6486TIP3   OH240948   6.330   4.704  13.561  0.8650 -0.2268  0.0448
 6486TIP3    H140949   6.391   4.679  13.630  1.9759  0.0035 -0.8329
 6486TIP3    H240950   6.245   4.673  13.592  1.5900 -1.6087  0.7648
 6487TIP3   OH240951   0.827   6.151   0.261 -0.5488  0.5462 -0.5531
 6487TIP3    H140952   0.854   6.112   0.178 -2.2088 -0.7537 -0.5551
 6487TIP3    H240953   0.868   6.097   0.328 -1.4839 -0.2069 -0.5602
 6488TIP3   OH240954   1.913   3.579   5.212 -0.5243  0.1582  0.3066
 6488TIP3    H140955   1.818   3.588   5.222 -0.3505  1.0579  1.3306
 6488TIP3    H240956   1.929   3.485   5.211 -1.2600 -0.0096  2.0522
 6489TIP3   OH240957   0.756   1.786   0.207  0.4438 -0.5911 -0.0286
 6489TIP3    H140958   0.698   1.778   0.132 -0.2606  0.0310  0.4396
 6489TIP3    H240959   0.737   1.709   0.260  1.1163 -1.1602 -0.5895
 6490TIP3   OH240960   0.185   4.393  10.979 -0.6786  0.2939  0.7880
 6490TIP3    H140961   0.106   4.386  11.032 -0.5594  0.4262  0.9852
 6490TIP3    H240962   0.154   4.396  10.889 -0.8823  0.0391  0.8499
 6491TIP3   OH240963   1.737   6.324   5.294  0.4740  0.0512  0.2729
 6491TIP3    H140964   1.771   6.285   5.214  1.2774  0.2523  0.5097
 6491TIP3    H240965   1.680   6.257   5.331  0.8933 -0.4308  0.0497
 6492TIP3   OH240966   0.393   3.530  15.451 -0.0514  0.3026 -0.3641
 6492TIP3    H140967   0.325   3.585  15.491 -0.4523 -0.1105 -0.4572
 6492TIP3    H240968   0.449   3.505  15.524 -0.3033  0.2278 -0.1932
 6493TIP3   OH240969   5.126   5.811   3.964  0.4302  0.7756  0.3089
 6493TIP3    H140970   5.184   5.825   4.039 -0.6495 -0.4317  1.4098
 6493TIP3    H240971   5.144   5.721   3.937 -1.3797  0.1068  1.1376
 6494TIP3   OH240972   2.390   6.003   4.562 -0.9655 -0.0044  0.2394
 6494TIP3    H140973   2.382   6.088   4.606 -0.9500  0.0122  0.2096
 6494TIP3    H240974   2.476   5.971   4.589 -0.7522  0.2201 -0.1619
 6495TIP3   OH240975   6.121   4.291  15.001 -0.4504 -0.3215  0.1326
 6495TIP3    H140976   6.039   4.244  15.014 -1.3822  1.3989  0.7364
 6495TIP3    H240977   6.168   4.239  14.936 -1.6740 -1.7450  0.3253
 6496TIP3   OH240978   4.955   0.380   2.123  0.7184 -0.1509 -0.4639
 6496TIP3    H140979   4.977   0.392   2.030 -0.4076 -1.8797 -0.9955
 6496TIP3    H240980   4.929   0.468   2.152  0.5826  0.3363 -1.9316
 6497TIP3   OH240981   4.992   1.835   2.344  0.2185 -0.3191  0.8296
 6497TIP3    H140982   5.071   1.782   2.327  1.1149  1.4572 -0.8747
 6497TIP3    H240983   4.952   1.846   2.258  0.1582  1.8691  1.0913
 6498TIP3   OH240984   3.511   0.476  12.553 -0.5748  0.2177 -0.3015
 6498TIP3    H140985   3.446   0.436  12.610 -1.5873  0.5657 -1.1761
 6498TIP3    H240986   3.585   0.496  12.611 -1.2044 -0.2674  0.6954
 6499TIP3   OH240987   0.001   6.045   0.386 -0.0316 -0.8476  0.5014
 6499TIP3    H140988  -0.077   6.057   0.332  0.9654 -0.9517 -1.0365
 6499TIP3    H240989   0.005   5.951   0.403 -0.1837 -0.8550  0.4961
 6500TIP3   OH240990   0.249   2.884  15.738 -0.0192  0.4767  0.8379
 6500TIP3    H140991   0.158   2.911  15.754  0.4085  1.5962  1.4448
 6500TIP3    H240992   0.266   2.817  15.804 -0.2171  0.6741  1.0895
 6501TIP3   OH240993   4.973   4.439  14.439 -0.2115 -0.3305 -0.3675
 6501TIP3    H140994   4.932   4.519  14.405 -1.7689 -0.8843  0.1254
 6501TIP3    H240995   4.993   4.387  14.362  0.6012  0.4246 -0.6814
 6502TIP3   OH240996   4.192   6.397   6.153  0.0513 -0.0807 -0.7477
 6502TIP3    H140997   4.138   6.468   6.117 -0.8258 -0.1307  0.4100
 6502TIP3    H240998   4.170   6.320   6.100 -0.6008  0.0290 -0.6363
 6503TIP3   OH240999   4.283   1.151  11.380 -0.2563  0.1473 -0.1534
 6503TIP3    H141000   4.308   1.172  11.290  0.1132 -0.7370 -0.2686
 6503TIP3    H241001   4.299   1.057  11.388  1.1791  0.4856  1.3112
 6504TIP3   OH241002   3.210   3.623   4.667  0.6483 -0.0832 -0.2115
 6504TIP3    H141003   3.153   3.625   4.744 -0.3655  0.6867 -0.9623
 6504TIP3    H241004   3.235   3.715   4.655  0.2641 -0.1025 -1.1890
 6505TIP3   OH241005   4.562   3.448  12.035  0.1923  0.3191  0.0883
 6505TIP3    H141006   4.650   3.416  12.056 -0.2556 -1.4392 -0.5433
 6505TIP3    H241007   4.576   3.538  12.004  1.6785  0.2960  0.6228
 6506TIP3   OH241008   2.842   1.143  13.612  0.3369  0.5636 -0.4515
 6506TIP3    H141009   2.914   1.203  13.633 -1.4250  3.4377 -1.8571
 6506TIP3    H241010   2.878   1.085  13.545  2.2942 -0.4116  1.3518
 6507TIP3   OH241011   0.209   6.227  13.548  0.0947 -0.0735 -0.1305
 6507TIP3    H141012   0.291   6.237  13.501  0.0776  0.4335 -0.0621
 6507TIP3    H241013   0.169   6.147  13.512  0.3777 -0.0405 -0.5193
 6508TIP3   OH241014   0.147   2.593   2.197 -0.5668  0.2743  0.1548
 6508TIP3    H141015   0.183   2.524   2.251 -0.0759 -0.4381 -1.0513
 6508TIP3    H241016   0.183   2.577   2.110  0.5390  2.7468  0.0775
 6509TIP3   OH241017   1.646   1.601   2.407  0.4284  0.3952 -0.0419
 6509TIP3    H141018   1.577   1.622   2.470  0.1602  0.3656 -0.3245
 6509TIP3    H241019   1.612   1.633   2.324 -0.2858 -1.7007 -0.6136
 6510TIP3   OH241020   1.583   5.858   6.041 -0.0163 -0.1671  0.4113
 6510TIP3    H141021   1.511   5.920   6.034 -1.1726 -1.3464  1.3733
 6510TIP3    H241022   1.658   5.910   6.068 -0.5792  1.0309 -0.2788
 6511TIP3   OH241023   3.001   2.507   0.075 -0.0688  0.3487  0.7058
 6511TIP3    H141024   2.977   2.419   0.045 -0.9730  0.6467  0.5162
 6511TIP3    H241025   3.009   2.499   0.170  0.7150 -0.1311  0.6054
 6512TIP3   OH241026   1.614   1.027   4.941 -0.3084  0.6895 -0.1878
 6512TIP3    H141027   1.680   1.065   5.000 -0.4972 -1.0293  1.2285
 6512TIP3    H241028   1.538   1.084   4.951  0.1863  1.3395 -0.0120
 6513TIP3   OH241029   3.135   4.870  14.034 -0.4265  0.1324  0.0400
 6513TIP3    H141030   3.041   4.887  14.029 -0.6171 -1.1317 -1.1448
 6513TIP3    H241031   3.171   4.907  13.953  0.1252  0.6274  0.4949
 6514TIP3   OH241032   4.252   0.760   4.344 -0.0843 -0.4440 -0.6163
 6514TIP3    H141033   4.225   0.747   4.435 -0.4500 -1.4547 -0.8547
 6514TIP3    H241034   4.308   0.837   4.347 -0.5127 -0.1499  0.3836
 6515TIP3   OH241035   6.809   6.419   1.247  0.1606  0.0199 -0.1731
 6515TIP3    H141036   6.886   6.365   1.265 -0.1123  0.2389  1.8499
 6515TIP3    H241037   6.744   6.392   1.312 -0.6704  1.4044 -0.3872
 6516TIP3   OH241038   2.755   1.647   5.646  0.6885 -0.2650  0.2950
 6516TIP3    H141039   2.787   1.734   5.671 -0.5321 -0.0851  1.3115
 6516TIP3    H241040   2.717   1.611   5.726 -0.6998 -0.8892 -0.6117
 6517TIP3   OH241041   0.650   2.369   1.301  0.0047  0.1298  0.5350
 6517TIP3    H141042   0.693   2.453   1.286 -1.4920  0.7214 -0.6546
 6517TIP3    H241043   0.652   2.357   1.396  1.7126  0.6787  0.5968
 6518TIP3   OH241044   1.955   6.551  10.746 -0.0615  0.0618  0.2661
 6518TIP3    H141045   1.861   6.545  10.732 -0.4961 -1.2217  2.9676
 6518TIP3    H241046   1.982   6.462  10.768  1.2815  0.8298  2.0032
 6519TIP3   OH241047   1.371   4.482  14.991  0.1293 -0.2681 -0.3069
 6519TIP3    H141048   1.420   4.486  14.909 -1.1836 -0.7863 -1.1490
 6519TIP3    H241049   1.340   4.571  15.004  1.5295  0.1494  0.4199
 6520TIP3   OH241050   1.236   3.843   1.558 -0.5334  0.0959  0.2745
 6520TIP3    H141051   1.251   3.908   1.628  1.9380 -0.9348  0.8271
 6520TIP3    H241052   1.261   3.889   1.478  1.3386 -0.1422  0.6774
 6521TIP3   OH241053   0.155   2.012   3.994 -0.2794 -0.1914 -0.2661
 6521TIP3    H141054   0.170   2.085   4.055  0.6840 -0.1600 -0.5158
 6521TIP3    H241055   0.074   1.972   4.025  1.0974 -1.2986  2.2185
 6522TIP3   OH241056   0.659   0.081  13.396 -0.0108  0.2839  0.1881
 6522TIP3    H141057   0.598   0.145  13.359 -1.0847 -0.9084 -0.1368
 6522TIP3    H241058   0.649   0.090  13.491 -1.0299 -0.2129  0.1348
 6523TIP3   OH241059   2.805   5.790   2.291 -0.1414 -0.0288 -0.5605
 6523TIP3    H141060   2.790   5.858   2.225 -1.6897  1.0551  0.8134
 6523TIP3    H241061   2.721   5.781   2.335  1.4698  1.4926  3.2513
 6524TIP3   OH241062   2.859   0.737   3.136 -0.4615 -0.2016  0.0098
 6524TIP3    H141063   2.764   0.730   3.143 -0.3630 -0.5168  1.4390
 6524TIP3    H241064   2.892   0.689   3.212  0.8160  0.4696 -0.0945
 6525TIP3   OH241065   2.922   4.854   5.336  0.5127 -0.2475  0.2982
 6525TIP3    H141066   2.983   4.867   5.264 -1.0547 -0.7637 -1.1812
 6525TIP3    H241067   2.912   4.759   5.343  0.6220 -0.2034  1.1879
 6526TIP3   OH241068   5.576   5.066  12.510  0.0582  0.4942  0.1428
 6526TIP3    H141069   5.651   5.035  12.561  0.2434 -2.5648 -1.7448
 6526TIP3    H241070   5.615   5.120  12.442  0.5993 -0.8532 -0.6619
 6527TIP3   OH241071   6.667   2.460   0.513  0.4547 -0.4867 -0.3633
 6527TIP3    H141072   6.751   2.447   0.470  0.4085  1.4047 -1.1397
 6527TIP3    H241073   6.688   2.503   0.595  0.3350 -1.3687  0.1355
 6528TIP3   OH241074   5.747   1.922   5.078 -0.2247 -0.4489  0.5045
 6528TIP3    H141075   5.792   1.913   4.994  1.6343 -0.3223  1.4592
 6528TIP3    H241076   5.799   1.871   5.140 -0.7320  0.6457  1.8959
 6529TIP3   OH241077   2.080   5.876   4.983  0.1698  0.3984  0.2341
 6529TIP3    H141078   2.147   5.882   4.915  0.4698  1.5503  0.5986
 6529TIP3    H241079   2.127   5.843   5.060  0.0652  0.1074  0.1732
 6530TIP3   OH241080   5.175   3.091   1.381 -0.0645  0.1876  0.0090
 6530TIP3    H141081   5.228   3.153   1.432 -0.7589  1.0823 -0.3218
 6530TIP3    H241082   5.185   3.120   1.291  0.3182 -0.7451 -0.2497
 6531TIP3   OH241083   1.346   6.718   3.409 -0.1798  0.6866  0.0937
 6531TIP3    H141084   1.380   6.750   3.325  3.2800 -2.3615  0.0851
 6531TIP3    H241085   1.347   6.795   3.466  0.6808  2.1277 -1.7615
 6532TIP3   OH241086   5.309   6.198   0.300  0.4660  0.2520  0.0157
 6532TIP3    H141087   5.304   6.256   0.376 -0.0565 -0.3509  0.4497
 6532TIP3    H241088   5.295   6.110   0.335 -2.9221  0.1950 -1.1038
 6533TIP3   OH241089   6.126   3.969   2.089  1.0206 -0.0359  0.4991
 6533TIP3    H141090   6.031   3.965   2.104  0.9007  1.4276  0.2777
 6533TIP3    H241091   6.134   3.975   1.994  1.4223 -1.6071  0.4137
 6534TIP3   OH241092   5.118   5.121   3.804 -0.2208 -0.6218 -0.4428
 6534TIP3    H141093   5.071   5.200   3.776  1.1294  1.2886  2.1850
 6534TIP3    H241094   5.160   5.089   3.725  0.1886  2.0562 -1.4243
 6535TIP3   OH241095   6.135   5.611  15.099  0.4385  0.7712  0.0780
 6535TIP3    H141096   6.071   5.682  15.112 -0.3316  0.1354 -0.1729
 6535TIP3    H241097   6.179   5.602  15.184  0.2235  1.2413  0.2420
 6536TIP3   OH241098   0.398   6.628  10.491  0.0168  0.4521  0.4193
 6536TIP3    H141099   0.415   6.716  10.457 -0.0639  0.5969  0.7504
 6536TIP3    H241100   0.473   6.609  10.548  0.2516  0.1310  0.0077
 6537TIP3   OH241101   6.619   2.856   1.383 -0.3390 -0.1263 -0.2348
 6537TIP3    H141102   6.660   2.778   1.419 -2.1272 -1.2573 -0.5458
 6537TIP3    H241103   6.592   2.906   1.460 -0.2362 -0.3831 -0.0281
 6538TIP3   OH241104   6.266   2.035  14.645  0.5508  0.5529 -0.4171
 6538TIP3    H141105   6.189   2.009  14.697  0.5408 -0.6563 -1.0013
 6538TIP3    H241106   6.265   2.131  14.648 -0.4598  0.5431  0.3416
 6539TIP3   OH241107   3.611   0.986  11.093  0.0621 -0.2107 -0.2683
 6539TIP3    H141108   3.527   1.031  11.100 -0.8752 -1.6044 -1.7468
 6539TIP3    H241109   3.633   0.990  11.000  1.6965  0.1961  0.1019
 6540TIP3   OH241110   0.243   2.499   0.008  0.1191  0.2896 -0.2029
 6540TIP3    H141111   0.294   2.530  -0.067 -0.1069  0.7926 -0.1469
 6540TIP3    H241112   0.152   2.511  -0.017 -0.1367 -3.0328 -1.3909
 6541TIP3   OH241113   2.050   0.751   0.253 -0.1045  0.0215 -0.7547
 6541TIP3    H141114   2.055   0.660   0.223  1.7720 -0.4105  0.6082
 6541TIP3    H241115   2.021   0.744   0.344  0.2123  0.7567 -0.5920
 6542TIP3   OH241116   6.132   2.376  15.220 -0.0364  0.7155 -0.7949
 6542TIP3    H141117   6.086   2.298  15.192 -3.3345  1.6558  1.3957
 6542TIP3    H241118   6.225   2.353  15.216 -0.7822 -2.5092 -2.2009
 6543TIP3   OH241119   4.165   4.089  16.414 -0.3435 -0.1967  0.1977
 6543TIP3    H141120   4.221   4.108  16.339 -0.0959 -0.7735  0.2266
 6543TIP3    H241121   4.114   4.013  16.388 -2.4461  1.3581 -0.5026
 6544TIP3   OH241122   6.570   5.365   0.649  0.5150  0.2551 -0.1763
 6544TIP3    H141123   6.493   5.316   0.621  0.9868  0.1295 -1.3038
 6544TIP3    H241124   6.574   5.352   0.744 -1.3731  1.0288  0.0562
 6545TIP3   OH241125   4.367   6.480   0.449 -0.6813 -0.0837 -0.5287
 6545TIP3    H141126   4.300   6.428   0.406 -1.7099  1.2206 -0.5780
 6545TIP3    H241127   4.449   6.433   0.433 -1.4928 -1.3835 -0.9939
 6546TIP3   OH241128   0.067   6.453  15.825 -0.5916  0.3980 -0.3519
 6546TIP3    H141129   0.133   6.421  15.886  1.6760  1.9573 -1.8244
 6546TIP3    H241130   0.068   6.548  15.837 -0.9727  0.6220 -1.9059
 6547TIP3   OH241131   6.299   4.520  13.288  0.1235  0.7062  0.0205
 6547TIP3    H141132   6.304   4.615  13.298 -2.0915  0.9432 -0.7403
 6547TIP3    H241133   6.228   4.493  13.345 -1.2355 -0.0842 -1.9322
 6548TIP3   OH241134   0.110   4.457   2.841 -0.0395  0.3505  0.3317
 6548TIP3    H141135   0.144   4.370   2.817  0.7307  1.0225 -1.1886
 6548TIP3    H241136   0.118   4.461   2.936 -0.6381 -1.4618  0.4947
 6549TIP3   OH241137   4.376   3.449   1.759  0.4080  0.1005 -0.1450
 6549TIP3    H141138   4.353   3.491   1.677 -0.5388  2.5754  1.2737
 6549TIP3    H241139   4.460   3.488   1.784  0.3758 -0.1400  0.3672
 6550TIP3   OH241140   2.500   5.659  15.208  0.1277 -0.1561  0.6927
 6550TIP3    H141141   2.503   5.708  15.290 -2.5823 -0.4114  1.0470
 6550TIP3    H241142   2.490   5.726  15.140 -0.6063 -0.0435  0.8973
 6551TIP3   OH241143   1.401   5.645  11.265 -0.4959 -0.3500  0.0366
 6551TIP3    H141144   1.423   5.672  11.176 -0.1147  0.9489  0.5100
 6551TIP3    H241145   1.485   5.635  11.309 -0.7002 -0.4708  0.4014
 6552TIP3   OH241146   0.494   4.458   2.727  0.7039  0.7971  0.0750
 6552TIP3    H141147   0.580   4.459   2.684  0.6922 -1.9446 -0.1651
 6552TIP3    H241148   0.504   4.398   2.800 -1.2635 -0.4786 -0.6135
 6553TIP3   OH241149   4.800   4.853  10.710  0.0602  0.5374  0.0851
 6553TIP3    H141150   4.712   4.885  10.689 -0.0134  0.1094 -0.2834
 6553TIP3    H241151   4.837   4.827  10.626  0.3685  0.2857  0.2947
 6554TIP3   OH241152   2.006   6.754  15.649  0.6064 -0.7569 -0.7731
 6554TIP3    H141153   2.037   6.708  15.571 -0.9094 -0.3592 -1.6514
 6554TIP3    H241154   1.975   6.839  15.617  0.6464 -0.2831  0.3764
 6555TIP3   OH241155   6.504   6.479  11.551 -0.2488  0.4770 -0.6513
 6555TIP3    H141156   6.422   6.428  11.547 -0.3714  0.5039  0.8142
 6555TIP3    H241157   6.476   6.566  11.579  0.3049  0.3618  0.3040
 6556TIP3   OH241158   4.858   1.155   4.006 -0.1077 -0.4539  0.1092
 6556TIP3    H141159   4.917   1.204   4.063 -1.0766  1.2397 -0.2647
 6556TIP3    H241160   4.771   1.168   4.045 -0.7769  0.6468 -1.6403
 6557TIP3   OH241161   2.301   5.526   2.271  0.4475 -0.5139 -0.2036
 6557TIP3    H141162   2.248   5.605   2.284  0.9714 -0.4177  1.4909
 6557TIP3    H241163   2.351   5.517   2.351 -0.2692 -3.0859  0.0362
 6558TIP3   OH241164   0.104   0.160   2.974 -0.5950  0.0777 -0.4459
 6558TIP3    H141165   0.027   0.105   2.963 -0.0879 -0.5746 -0.8136
 6558TIP3    H241166   0.178   0.100   2.968 -0.0742  0.5246  0.9941
 6559TIP3   OH241167   0.425   4.717  12.411  0.1677  0.2833 -0.2135
 6559TIP3    H141168   0.348   4.696  12.357 -0.5469 -0.7731  1.1501
 6559TIP3    H241169   0.389   4.744  12.495  1.2790  1.1990 -0.0125
 6560TIP3   OH241170   1.312   3.450  15.579 -0.4487 -0.1159  0.2957
 6560TIP3    H141171   1.344   3.372  15.625  0.4620 -1.7359 -2.7995
 6560TIP3    H241172   1.221   3.430  15.559 -0.4473 -0.0326  0.2028
 6561TIP3   OH241173   5.236   0.754   4.343 -0.1228  0.0174  0.8753
 6561TIP3    H141174   5.198   0.711   4.419  1.0920  1.7528  2.5538
 6561TIP3    H241175   5.308   0.807   4.378 -1.1528  2.9879 -1.0637
 6562TIP3   OH241176   0.748   4.865  11.110  0.6533  0.2657  0.4477
 6562TIP3    H141177   0.756   4.853  11.016 -0.3730  1.9066  0.1153
 6562TIP3    H241178   0.834   4.842  11.145  0.4277 -2.4787 -0.6088
 6563TIP3   OH241179   6.403   2.702   3.303  0.1617 -0.0632  0.0820
 6563TIP3    H141180   6.402   2.797   3.308 -1.6799 -0.0661  0.4609
 6563TIP3    H241181   6.357   2.673   3.382  0.3111 -1.2448 -0.2414
 6564TIP3   OH241182   2.174   0.147  16.427 -0.3217  0.4700  0.0668
 6564TIP3    H141183   2.181   0.052  16.431  0.7691  0.4929 -0.9254
 6564TIP3    H241184   2.179   0.176  16.518 -0.2412 -0.3926  0.3414
 6565TIP3   OH241185   6.670   1.609   1.789  0.4214  0.0905  0.9015
 6565TIP3    H141186   6.744   1.548   1.780 -0.5354 -1.1848  1.4447
 6565TIP3    H241187   6.671   1.633   1.882  0.6168  0.6987  0.7475
 6566TIP3   OH241188   4.249   6.462   2.763 -0.1494  0.0413  0.0655
 6566TIP3    H141189   4.309   6.480   2.835 -0.3710  0.4162  0.1612
 6566TIP3    H241190   4.297   6.490   2.685 -0.0223 -0.0912  0.0956
 6567TIP3   OH241191   3.577   4.959   6.744 -0.1175 -0.3743 -0.4863
 6567TIP3    H141192   3.618   5.006   6.817  0.4627  0.1667 -1.1442
 6567TIP3    H241193   3.527   5.025   6.697  1.8968 -0.0101 -2.2820
 6568TIP3   OH241194   0.923   5.435   3.066  0.0746  0.3511  0.1653
 6568TIP3    H141195   0.894   5.518   3.029 -0.1145 -0.3944 -1.4308
 6568TIP3    H241196   0.864   5.370   3.029 -0.2070 -0.4431  1.9272
 6569TIP3   OH241197   0.612   6.091  16.813  0.2782  0.2616 -0.2571
 6569TIP3    H141198   0.646   6.026  16.752 -0.6645  0.7583 -1.3312
 6569TIP3    H241199   0.525   6.111  16.781 -0.3116  0.4407  1.3351
 6570TIP3   OH241200   1.471   1.173  16.347 -0.5432 -0.1531  0.1274
 6570TIP3    H141201   1.409   1.201  16.415  1.1856  2.6653  0.7185
 6570TIP3    H241202   1.492   1.083  16.370 -0.6948  0.4166  2.8805
 6571TIP3   OH241203   2.723   1.479  14.667 -0.1043  0.0424 -0.7141
 6571TIP3    H141204   2.763   1.397  14.696 -0.4641  0.7167  1.8643
 6571TIP3    H241205   2.788   1.516  14.606  0.4743 -1.6886 -1.2046
 6572TIP3   OH241206   5.150   6.541   1.928 -0.2325  0.3862  0.8294
 6572TIP3    H141207   5.097   6.479   1.879  0.3511  1.3462 -1.0966
 6572TIP3    H241208   5.226   6.559   1.872 -0.2851  2.6906  1.3870
 6573TIP3   OH241209   3.300   6.387   0.450 -0.0111 -0.3172  0.2763
 6573TIP3    H141210   3.261   6.300   0.450 -0.4482 -0.1310 -0.7689
 6573TIP3    H241211   3.336   6.397   0.538 -1.0603 -1.0582  0.8051
 6574TIP3   OH241212   3.718   0.038  15.389  0.5435  0.7135 -0.3354
 6574TIP3    H141213   3.719   0.060  15.482  1.1675 -0.4725 -0.0466
 6574TIP3    H241214   3.638  -0.014  15.378  0.5635  0.7041 -0.4311
 6575TIP3   OH241215   0.732   6.498   0.961  0.4331 -0.3711 -0.0691
 6575TIP3    H141216   0.711   6.444   1.037  0.1434  1.7099  1.4357
 6575TIP3    H241217   0.648   6.511   0.916  0.3186 -0.3447  0.1518
 6576TIP3   OH241218   0.947   4.719   1.855  0.1532  0.0363  0.0858
 6576TIP3    H141219   0.949   4.728   1.950  0.7348 -2.2750  0.3569
 6576TIP3    H241220   0.928   4.807   1.823 -0.1246  0.8620  2.3268
 6577TIP3   OH241221   4.525   1.006   6.653 -0.0256  0.4594 -0.0144
 6577TIP3    H141222   4.459   1.051   6.707 -1.0564 -0.0695 -0.7829
 6577TIP3    H241223   4.592   1.072   6.638 -0.5966  1.1641  0.4413
 6578TIP3   OH241224   4.565   4.450  14.869 -0.3448  0.1119 -0.8019
 6578TIP3    H141225   4.624   4.428  14.941  0.7982  1.5293 -1.2752
 6578TIP3    H241226   4.614   4.427  14.790 -0.6444  0.7871 -1.1896
 6579TIP3   OH241227   5.405   3.440  10.184  0.4197 -0.3985 -0.3380
 6579TIP3    H141228   5.482   3.493  10.205  0.4742 -0.3797 -0.5856
 6579TIP3    H241229   5.334   3.503  10.174  0.2481 -0.4598  0.4491
 6580TIP3   OH241230   5.869   4.855   2.865 -0.2891 -0.7351 -0.1841
 6580TIP3    H141231   5.875   4.946   2.834 -2.3896 -0.1752  0.8356
 6580TIP3    H241232   5.887   4.861   2.959  2.3919 -1.8633 -0.5380
 6581TIP3   OH241233   4.648   1.149   4.364 -0.7621  0.0633 -0.1197
 6581TIP3    H141234   4.583   1.196   4.416 -0.6137 -0.0048  0.1284
 6581TIP3    H241235   4.732   1.174   4.401 -0.5978  0.7407 -0.9164
 6582TIP3   OH241236   2.939   5.151   0.626  0.3971  0.2609 -0.5784
 6582TIP3    H141237   2.884   5.078   0.655 -0.7064  1.8544  1.7652
 6582TIP3    H241238   2.893   5.186   0.550 -0.9745  0.5043  0.3120
 6583TIP3   OH241239   5.427   1.907   3.423 -0.5207  0.0610 -0.2194
 6583TIP3    H141240   5.374   1.966   3.477  0.9475  1.1034  0.1189
 6583TIP3    H241241   5.401   1.928   3.333 -0.9171  0.3329 -0.0469
 6584TIP3   OH241242   2.595   2.527  15.693 -0.5741  0.2014  0.2455
 6584TIP3    H141243   2.659   2.455  15.692  1.8104  2.0446 -3.7849
 6584TIP3    H241244   2.527   2.500  15.632 -0.4010  0.7630 -0.2032
 6585TIP3   OH241245   3.015   5.487   1.161 -0.5000 -0.0897  0.5565
 6585TIP3    H141246   3.021   5.502   1.255 -3.1406 -0.3118  0.8349
 6585TIP3    H241247   3.023   5.574   1.122 -1.3543  0.2649  1.1455
 6586TIP3   OH241248   0.045   2.945  16.221 -0.2013  0.2030 -0.2783
 6586TIP3    H141249   0.051   2.863  16.269  0.0053 -0.3067 -1.1557
 6586TIP3    H241250   0.091   3.009  16.275 -1.1797 -0.0262  0.8662
 6587TIP3   OH241251   0.366   0.740   3.364  0.4719 -0.6834 -0.3719
 6587TIP3    H141252   0.363   0.754   3.269  2.0873  0.6501 -0.2657
 6587TIP3    H241253   0.342   0.825   3.401 -0.5626 -1.3068  0.4578
 6588TIP3   OH241254   6.072   4.924  12.033 -0.1018 -0.4449 -0.4544
 6588TIP3    H141255   6.135   4.852  12.036 -1.1425 -1.3971 -0.6154
 6588TIP3    H241256   6.060   4.941  11.939 -0.5891 -0.7421 -0.4509
 6589TIP3   OH241257   3.668   3.043  12.300  0.3422 -0.3993 -0.1106
 6589TIP3    H141258   3.649   3.137  12.298  0.1661 -0.4284  0.1541
 6589TIP3    H241259   3.606   3.005  12.239 -0.2837 -0.4607  0.5460
 6590TIP3   OH241260   5.884   1.239   5.254  0.3893 -0.4842 -0.5855
 6590TIP3    H141261   5.835   1.197   5.183 -0.0021 -3.1439  1.1074
 6590TIP3    H241262   5.954   1.177   5.274  1.1020  0.6801  0.6904
 6591TIP3   OH241263   0.848   1.757  12.323  0.4579  0.1323 -0.2692
 6591TIP3    H141264   0.840   1.782  12.231  2.6518 -0.8283 -0.8028
 6591TIP3    H241265   0.897   1.829  12.363 -0.8535  0.7453  0.2704
 6592TIP3   OH241266   2.166   4.768   6.539 -0.1582  0.1496 -0.1109
 6592TIP3    H141267   2.204   4.682   6.552 -1.9486 -0.6423  0.1217
 6592TIP3    H241268   2.154   4.775   6.444 -1.8624 -0.7382 -0.0019
 6593TIP3   OH241269   5.918   3.795  14.320 -0.0266  0.0378 -0.3009
 6593TIP3    H141270   5.975   3.720  14.303  0.0740 -0.1162  0.6558
 6593TIP3    H241271   5.959   3.867  14.271  1.8403  0.2789  1.4408
 6594TIP3   OH241272   4.692   4.091   3.876  0.3480  0.3003 -0.0591
 6594TIP3    H141273   4.755   4.091   3.947 -1.3609 -1.1213  1.5692
 6594TIP3    H241274   4.731   4.035   3.809  1.6022  0.9557  0.0964
 6595TIP3   OH241275   1.453   4.104  14.598 -0.1838 -0.3817 -0.0767
 6595TIP3    H141276   1.457   4.187  14.551 -1.9700 -0.0128  0.3552
 6595TIP3    H241277   1.494   4.122  14.682 -1.2922  0.3192  0.3336
 6596TIP3   OH241278   4.947   6.076  12.652 -0.2803  0.7306  0.0015
 6596TIP3    H141279   4.920   5.985  12.642  0.6121  0.5721 -1.2428
 6596TIP3    H241280   4.866   6.124  12.668 -1.4096  0.2803 -3.4941
 6597TIP3   OH241281   3.671   6.082  12.245  0.4677 -0.0746 -0.3311
 6597TIP3    H141282   3.739   6.020  12.219 -0.7245 -1.7638  0.3611
 6597TIP3    H241283   3.663   6.142  12.171  1.2043 -1.1646 -1.3389
 6598TIP3   OH241284   3.942   0.281  17.024  0.4788 -0.3426 -0.3258
 6598TIP3    H141285   3.994   0.300  16.946 -1.5999 -0.0364 -1.7199
 6598TIP3    H241286   3.913   0.191  17.012  0.3906 -0.3977  0.2690
 6599TIP3   OH241287   6.827   1.068  14.009  0.0104 -1.0169 -0.4667
 6599TIP3    H141288   6.917   1.036  14.008  1.0626  1.4145  2.2725
 6599TIP3    H241289   6.806   1.080  14.102 -2.4330  0.3760 -1.0894
 6600TIP3   OH241290   3.131   5.195   0.351 -0.4304 -0.3099  0.0120
 6600TIP3    H141291   3.155   5.278   0.393 -3.6226  0.9885 -0.3823
 6600TIP3    H241292   3.113   5.135   0.423  1.3530 -0.5240  0.3113
 6601TIP3   OH241293   1.983   2.888  11.622  0.0862  0.2274 -0.0460
 6601TIP3    H141294   1.954   2.810  11.575  1.3134 -0.8393  0.8712
 6601TIP3    H241295   1.972   2.865  11.714 -0.8390  1.6863  0.2195
 6602TIP3   OH241296   4.148   0.897   4.001 -0.2025 -0.3563 -0.3352
 6602TIP3    H141297   4.052   0.890   3.997 -0.0929 -1.4919 -2.0544
 6602TIP3    H241298   4.165   0.990   4.013 -1.5225 -0.3033  1.7026
 6603TIP3   OH241299   1.806   3.396  17.048  0.0551  0.0980  0.2522
 6603TIP3    H141300   1.786   3.462  17.114 -0.1780  2.6984 -2.1884
 6603TIP3    H241301   1.894   3.418  17.018  0.4055 -1.4098  0.0918
 6604TIP3   OH241302   5.461   0.133   0.410  0.3283  0.4599  0.0687
 6604TIP3    H141303   5.473   0.050   0.364 -0.0426  0.2415  0.3671
 6604TIP3    H241304   5.366   0.144   0.416  0.3594  1.5069 -1.0474
 6605TIP3   OH241305   4.061   5.623   1.449  0.7853 -0.0853  0.4623
 6605TIP3    H141306   4.031   5.535   1.427  0.9576  0.1091 -0.6312
 6605TIP3    H241307   4.026   5.678   1.378 -1.1509  1.1176  2.2307
 6606TIP3   OH241308   6.540   2.604   2.125  0.0815  0.6185 -0.5416
 6606TIP3    H141309   6.562   2.548   2.200  1.1869  0.1509 -1.1872
 6606TIP3    H241310   6.459   2.648   2.150  0.5756  0.6729  1.0315
 6607TIP3   OH241311   0.309   2.183   1.647  0.1729 -0.1962 -0.9954
 6607TIP3    H141312   0.312   2.121   1.575 -1.0072 -0.1040 -1.1397
 6607TIP3    H241313   0.399   2.213   1.657  0.4509 -0.6606 -2.0285
 6608TIP3   OH241314   5.720   6.219  14.521  0.5208 -0.1546 -0.6093
 6608TIP3    H141315   5.758   6.232  14.608  1.0371 -1.8549 -0.5418
 6608TIP3    H241316   5.739   6.127  14.500  1.4022  0.5109 -2.9958
 6609TIP3   OH241317   3.116   2.460   4.386 -0.8058  0.4081  0.1662
 6609TIP3    H141318   3.058   2.510   4.444 -0.2985 -0.0666  1.1109
 6609TIP3    H241319   3.115   2.371   4.421  0.5920  0.4137  0.3057
 6610TIP3   OH241320   0.829   4.579  13.031  0.4346  0.4176 -0.0474
 6610TIP3    H141321   0.868   4.653  12.984  1.3563  0.0966  0.1905
 6610TIP3    H241322   0.888   4.505  13.014 -1.7945 -0.9766 -2.4316
 6611TIP3   OH241323   2.172   1.495  10.361  0.7641 -0.0431 -0.1345
 6611TIP3    H141324   2.210   1.574  10.322  1.2751  0.5560  1.4731
 6611TIP3    H241325   2.100   1.471  10.304  2.1478  0.1302 -2.0305
 6612TIP3   OH241326   5.798   4.911  12.010 -0.0768  0.1233  0.3082
 6612TIP3    H141327   5.822   4.957  11.929  0.2221  1.0074  0.8827
 6612TIP3    H241328   5.877   4.863  12.035 -0.0005  0.2733  0.3560
 6613TIP3   OH241329   3.356   0.129   6.743  0.0357  0.2391 -0.5725
 6613TIP3    H141330   3.389   0.215   6.768 -0.4395  0.5353 -0.9412
 6613TIP3    H241331   3.400   0.110   6.660 -1.8218  1.3274 -1.8770
 6614TIP3   OH241332   2.077   6.718   3.833 -0.0644  0.0599  0.2247
 6614TIP3    H141333   2.004   6.725   3.771 -0.2110  1.1005  0.4914
 6614TIP3    H241334   2.056   6.781   3.902  1.8501  1.5937 -0.5011
 6615TIP3   OH241335   2.501   2.752  15.188  0.4240  0.3765 -0.5492
 6615TIP3    H141336   2.569   2.695  15.226 -0.5092 -1.5807 -1.6658
 6615TIP3    H241337   2.419   2.709  15.212 -0.4700  2.6115  0.6273
 6616TIP3   OH241338   4.356   3.519   2.821 -0.3989  0.6217  0.2818
 6616TIP3    H141339   4.417   3.526   2.894 -0.1218  0.0086  0.1127
 6616TIP3    H241340   4.397   3.567   2.750  0.4839 -0.8104 -0.2123
 6617TIP3   OH241341   6.533   3.048  14.519 -0.6383  0.0225  0.4258
 6617TIP3    H141342   6.527   3.107  14.444  0.9243 -0.3259 -0.0182
 6617TIP3    H241343   6.532   2.960  14.480 -2.6515 -0.2915  1.0523
 6618TIP3   OH241344   5.181   4.137   0.724  0.1977  0.6982  0.1223
 6618TIP3    H141345   5.268   4.113   0.754  0.1574 -0.4372 -0.6225
 6618TIP3    H241346   5.197   4.203   0.655  0.4903  0.2976 -0.1999
 6619TIP3   OH241347   0.154   6.131   5.875  0.4528 -0.7524  0.4148
 6619TIP3    H141348   0.175   6.049   5.919 -1.8995 -0.7401  1.7469
 6619TIP3    H241349   0.064   6.151   5.903  0.1682  1.1669 -1.5709
 6620TIP3   OH241350   3.946   0.245  15.855 -0.4606 -0.4448  0.3083
 6620TIP3    H141351   3.958   0.290  15.939  1.5813 -1.1041  0.4269
 6620TIP3    H241352   4.012   0.284  15.797 -0.4561 -1.4156 -0.3709
 6621TIP3   OH241353   3.950   1.045  10.974 -0.3815  0.4956  0.1385
 6621TIP3    H141354   4.036   1.028  11.012 -0.0377  0.9665 -0.4143
 6621TIP3    H241355   3.903   0.962  10.981 -0.5845  0.7362  2.2328
 6622TIP3   OH241356   2.235   1.809  11.416  0.2492  0.4312  0.3156
 6622TIP3    H141357   2.143   1.795  11.391 -0.1107  1.8848  0.7377
 6622TIP3    H241358   2.257   1.731  11.468 -0.4164 -0.4209 -0.6246
 6623TIP3   OH241359   2.608   1.808   4.671 -0.0745 -0.0292  0.4250
 6623TIP3    H141360   2.574   1.766   4.749 -0.9172 -1.1593 -0.5079
 6623TIP3    H241361   2.539   1.867   4.642 -0.3239 -0.6202 -0.2052
 6624TIP3   OH241362   4.170   0.971   4.822  0.6461 -0.1733  0.8042
 6624TIP3    H141363   4.127   1.035   4.878 -0.4003  0.1284 -0.2924
 6624TIP3    H241364   4.109   0.959   4.749  2.1939 -0.1133 -0.5528
 6625TIP3   OH241365   0.100   4.321  11.507 -0.0994  0.1867 -0.0374
 6625TIP3    H141366   0.069   4.236  11.538  1.8948  0.5784  3.5291
 6625TIP3    H241367   0.184   4.301  11.465  0.5111  0.3730  1.0628
 6626TIP3   OH241368   3.111   3.164   3.706  0.2233  0.1624 -0.0384
 6626TIP3    H141369   3.198   3.195   3.731  0.2124  0.0149  0.1809
 6626TIP3    H241370   3.106   3.180   3.611 -0.0687  1.5684  0.1835
 6627TIP3   OH241371   2.025   5.122  16.251 -0.5907 -0.8322  0.7507
 6627TIP3    H141372   2.072   5.205  16.237  0.2853 -1.1342  1.8185
 6627TIP3    H241373   1.974   5.137  16.330 -1.0601 -1.0574  0.4941
 6628TIP3   OH241374   5.562   2.390  14.503 -0.1354 -0.3496 -0.8698
 6628TIP3    H141375   5.496   2.414  14.437 -1.2132 -0.0005  0.2941
 6628TIP3    H241376   5.521   2.413  14.587  2.3289  2.0526 -0.1724
 6629TIP3   OH241377   3.444   0.376   1.077  0.7231  0.2956  0.5381
 6629TIP3    H141378   3.441   0.290   1.035  0.9614  0.3613  0.3850
 6629TIP3    H241379   3.533   0.407   1.061  0.7664  0.3909  0.9522
 6630TIP3   OH241380   0.590   3.585  11.883 -0.0674 -0.6001  0.6669
 6630TIP3    H141381   0.557   3.593  11.793 -0.6619 -1.2505  0.8138
 6630TIP3    H241382   0.591   3.675  11.916  1.0795 -0.2373 -0.2945
 6631TIP3   OH241383   5.605   5.766  11.219 -0.4737  0.2805  0.3445
 6631TIP3    H141384   5.655   5.841  11.251  1.8571 -0.4458 -1.3514
 6631TIP3    H241385   5.629   5.759  11.127 -2.1477 -1.4079 -0.0138
 6632TIP3   OH241386   0.216   0.229   2.230 -0.1082  0.4238 -0.3735
 6632TIP3    H141387   0.219   0.133   2.222 -0.4187  0.4977 -1.4619
 6632TIP3    H241388   0.236   0.261   2.142  0.5444  1.3813  0.1104
 6633TIP3   OH241389   4.200   1.887   3.836 -0.0574 -0.0708  0.2963
 6633TIP3    H141390   4.121   1.925   3.798  0.0831 -0.9718 -0.9659
 6633TIP3    H241391   4.185   1.891   3.931 -0.6745  1.6979  0.1642
 6634TIP3   OH241392   0.767   5.531  15.922  0.2448  0.4953  0.4980
 6634TIP3    H141393   0.850   5.491  15.898  1.2721  1.7771  1.6864
 6634TIP3    H241394   0.716   5.533  15.841  1.2003 -0.6972 -0.1564
 6635TIP3   OH241395   6.602   0.984  16.067 -0.0206 -0.5919 -0.8667
 6635TIP3    H141396   6.578   0.912  16.126 -0.3242 -0.1953 -0.5041
 6635TIP3    H241397   6.521   1.032  16.053  0.5346  0.8389  0.4868
 6636TIP3   OH241398   3.958   3.844   5.698 -0.4259 -0.2345  0.5253
 6636TIP3    H141399   3.878   3.869   5.745 -1.1623  1.7424 -1.6063
 6636TIP3    H241400   3.940   3.757   5.663 -1.8545  0.3495 -0.2662
 6637TIP3   OH241401   1.522   2.723  17.102  0.2367  0.1056  0.0708
 6637TIP3    H141402   1.521   2.810  17.143 -0.7250  0.8375 -1.4428
 6637TIP3    H241403   1.434   2.688  17.119  0.2471 -0.0953 -0.2885
 6638TIP3   OH241404   4.805   4.281  16.684  0.0196  0.7467  0.3423
 6638TIP3    H141405   4.773   4.193  16.665  0.5645  0.4443  0.7974
 6638TIP3    H241406   4.725   4.333  16.698 -0.3054  0.3539 -0.0199
 6639TIP3   OH241407   3.337   3.152  13.947 -0.3052 -0.0434  0.2923
 6639TIP3    H141408   3.374   3.175  14.033  0.6835 -0.6669  0.0579
 6639TIP3    H241409   3.321   3.058  13.953 -0.1863 -0.0969 -0.2246
 6640TIP3   OH241410   4.951   2.358  13.680 -0.4291  0.1212 -0.2702
 6640TIP3    H141411   4.990   2.411  13.749  0.5168  2.3664 -2.3698
 6640TIP3    H241412   4.991   2.271  13.689  0.5168  0.6934  1.2694
 6641TIP3   OH241413   1.827   0.328   5.413 -0.2367 -0.4256  0.1793
 6641TIP3    H141414   1.818   0.268   5.339 -1.1106 -0.6839  0.4845
 6641TIP3    H241415   1.872   0.405   5.377 -0.5550 -0.5957 -0.5925
 6642TIP3   OH241416   0.754   4.448  15.399 -0.5045  0.6869  0.4490
 6642TIP3    H141417   0.771   4.446  15.305  0.1348  0.4854  0.5672
 6642TIP3    H241418   0.670   4.495  15.407 -1.3437 -0.6269 -0.3214
 6643TIP3   OH241419   4.751   0.759   6.539 -0.0297  0.3418 -0.4973
 6643TIP3    H141420   4.807   0.727   6.469  2.1381  0.8747  0.8742
 6643TIP3    H241421   4.756   0.854   6.532 -1.5990  0.4011 -0.9550
 6644TIP3   OH241422   4.067   0.936  15.188 -0.0422 -0.1914  0.6685
 6644TIP3    H141423   4.159   0.923  15.162  0.1815 -0.3120  1.4773
 6644TIP3    H241424   4.034   0.847  15.203 -0.4030 -0.1672  0.0147
 6645TIP3   OH241425   3.025   2.212   2.692 -0.0215  0.5468  0.4127
 6645TIP3    H141426   3.079   2.146   2.735 -0.2443  1.2636  1.8521
 6645TIP3    H241427   2.935   2.188   2.714 -0.0836  1.6044  1.4129
 6646TIP3   OH241428   0.548   0.701   3.899  0.1020 -0.1425 -0.0652
 6646TIP3    H141429   0.472   0.749   3.934  0.5547 -0.9568  2.1409
 6646TIP3    H241430   0.586   0.762   3.835 -1.3301  1.0160  0.1186
 6647TIP3   OH241431   3.289   4.174  11.406 -0.3035 -0.5658 -0.2340
 6647TIP3    H141432   3.284   4.146  11.315 -1.6010  4.6086 -2.1020
 6647TIP3    H241433   3.199   4.197  11.429  0.5329  2.3854  0.6113
 6648TIP3   OH241434   4.565   5.730   5.963  0.5340  0.6515  0.0352
 6648TIP3    H141435   4.613   5.802   5.922  1.2644 -0.0804 -0.4120
 6648TIP3    H241436   4.628   5.690   6.022  0.2844  0.0738 -0.0876
 6649TIP3   OH241437   3.365   4.217   1.737  0.2488 -0.0699  0.4324
 6649TIP3    H141438   3.421   4.144   1.710  0.2632 -0.1530  0.6744
 6649TIP3    H241439   3.421   4.294   1.729  0.0545 -0.0065 -0.3815
 6650TIP3   OH241440   5.805   0.356  14.173 -0.3080  0.0241 -0.9680
 6650TIP3    H141441   5.787   0.318  14.259 -0.2542  2.3794  0.1368
 6650TIP3    H241442   5.899   0.341  14.160 -0.6439 -1.9763 -1.5288
 6651TIP3   OH241443   1.474   5.893   1.287 -0.1048  0.4298  0.2309
 6651TIP3    H141444   1.412   5.966   1.297 -0.9203 -0.4863  2.4741
 6651TIP3    H241445   1.549   5.919   1.340  1.4666  1.4083 -2.2570
 6652TIP3   OH241446   1.662   2.378   2.073 -0.0745 -0.1460 -0.3360
 6652TIP3    H141447   1.607   2.456   2.077 -0.9067 -0.6592 -1.3500
 6652TIP3    H241448   1.666   2.357   1.980 -0.2347 -1.5746 -0.0331
 6653TIP3   OH241449   0.169   0.551   1.002  0.4551  0.1845 -0.4706
 6653TIP3    H141450   0.214   0.629   1.033 -1.0282  0.1494  2.0391
 6653TIP3    H241451   0.078   0.578   0.992  0.3072 -0.6847 -1.7738
 6654TIP3   OH241452   6.102   1.436   0.993  0.1843  0.2444 -0.2679
 6654TIP3    H141453   6.189   1.467   1.019 -0.1052  1.0662 -0.2646
 6654TIP3    H241454   6.119   1.371   0.924  0.7217  2.2307 -2.1124
 6655TIP3   OH241455   3.640   3.353   3.446  0.1313  0.2546  0.4504
 6655TIP3    H141456   3.641   3.367   3.540 -0.6180 -1.2924  0.7271
 6655TIP3    H241457   3.653   3.440   3.408 -1.3097  1.1822  1.9644
 6656TIP3   OH241458   5.281   6.760  15.842  0.1723  0.6567 -0.6388
 6656TIP3    H141459   5.289   6.686  15.782  0.1018  0.1859 -0.0767
 6656TIP3    H241460   5.227   6.824  15.795 -0.2955  0.0902 -0.8766
 6657TIP3   OH241461   4.328   4.240  11.719  0.3205  0.4214 -0.2438
 6657TIP3    H141462   4.302   4.331  11.707 -0.5076  0.1657 -0.4102
 6657TIP3    H241463   4.422   4.239  11.697  0.6410  1.4641  0.9701
 6658TIP3   OH241464   0.532   5.107   4.205 -0.1765 -0.4454  0.1942
 6658TIP3    H141465   0.509   5.019   4.234  2.4908 -1.1536  0.4776
 6658TIP3    H241466   0.628   5.107   4.205 -0.0982  2.5275  0.3714
 6659TIP3   OH241467   0.200   0.910   1.385 -0.0990  0.0336 -0.1457
 6659TIP3    H141468   0.197   1.005   1.378  0.5480  0.0901  0.2174
 6659TIP3    H241469   0.118   0.886   1.428 -0.8881  0.2904 -1.4652
 6660TIP3   OH241470   0.302   0.647   6.035 -0.0751  0.3368  0.4608
 6660TIP3    H141471   0.347   0.700   6.100 -0.5653  1.3414  0.0010
 6660TIP3    H241472   0.369   0.586   6.003  0.3231  0.2422  1.4532
 6661TIP3   OH241473   0.063   3.028   4.812  0.9692  0.2013  0.6805
 6661TIP3    H141474   0.113   2.992   4.885  0.9819  0.2606  0.7008
 6661TIP3    H241475   0.082   2.969   4.739  1.5308  0.5561  0.5319
 6662TIP3   OH241476   5.393   5.840   3.032  0.3275  0.2930 -0.0347
 6662TIP3    H141477   5.319   5.898   3.018  0.1661  0.1222  0.0930
 6662TIP3    H241478   5.471   5.894   3.016  0.1721  0.4279 -0.3294
 6663TIP3   OH241479   5.440   6.430  14.192  0.0620  0.2581  0.1732
 6663TIP3    H141480   5.419   6.416  14.099 -1.1227  2.0265  0.1326
 6663TIP3    H241481   5.525   6.473  14.191 -0.4812  1.3570 -0.1851
 6664TIP3   OH241482   0.724   0.548   5.578  0.0744  0.1098  0.1335
 6664TIP3    H141483   0.730   0.453   5.578  0.6989  0.0155 -3.4910
 6664TIP3    H241484   0.641   0.567   5.622 -0.5136 -2.1466  0.1208
 6665TIP3   OH241485   3.693   2.341  13.553 -0.2327 -0.1188  0.1596
 6665TIP3    H141486   3.702   2.418  13.496  0.1292  1.3738  2.1159
 6665TIP3    H241487   3.699   2.266  13.494 -0.0123  1.3366 -1.7598
 6666TIP3   OH241488   6.404   1.642  14.874 -0.0216 -0.1843  0.2451
 6666TIP3    H141489   6.446   1.604  14.797  1.3111  2.1728 -0.2652
 6666TIP3    H241490   6.311   1.645  14.852  0.1810 -0.7691 -0.7169
 6667TIP3   OH241491   1.385   2.165  13.423  0.2136  0.2626 -0.0539
 6667TIP3    H141492   1.375   2.210  13.507 -1.3963  0.9890 -0.5914
 6667TIP3    H241493   1.410   2.075  13.447 -2.3682 -0.1908  1.3758
 6668TIP3   OH241494   1.408   3.791   4.884  0.3682 -0.6297  0.0717
 6668TIP3    H141495   1.331   3.805   4.829  0.0210  0.4887  0.8098
 6668TIP3    H241496   1.483   3.805   4.825  0.0251 -1.3894 -0.5647
 6669TIP3   OH241497   2.084   3.903  15.960  0.1956 -0.6626  0.3791
 6669TIP3    H141498   2.094   3.971  15.893  0.3425 -0.1713  0.8899
 6669TIP3    H241499   2.081   3.951  16.042 -0.7175 -1.2065  0.6805
 6670TIP3   OH241500   1.968   6.267   3.172  0.0324 -0.1577  0.3112
 6670TIP3    H141501   2.047   6.321   3.170 -0.3395  0.5726 -3.8424
 6670TIP3    H241502   1.899   6.325   3.140 -1.4523 -1.7403  0.5159
 6671TIP3   OH241503   2.667   1.080  12.388  0.1426  0.3597  0.2026
 6671TIP3    H141504   2.594   1.141  12.378  0.8412  1.5378  1.8156
 6671TIP3    H241505   2.740   1.123  12.345  0.0325 -0.6136 -1.0152
 6672TIP3   OH241506   5.194   2.573  14.910  0.2185  0.0998  0.3265
 6672TIP3    H141507   5.274   2.576  14.962  0.4214  0.7305 -0.0155
 6672TIP3    H241508   5.191   2.657  14.865 -1.9382  1.1592  2.2572
 6673TIP3   OH241509   2.622   4.032  11.360  0.3423 -0.1161 -0.6552
 6673TIP3    H141510   2.682   3.963  11.386 -0.3855 -0.6247 -0.3116
 6673TIP3    H241511   2.598   4.076  11.442  0.8750  0.6067 -0.8801
 6674TIP3   OH241512   3.762   0.157  15.639 -0.2577  0.4564 -0.1805
 6674TIP3    H141513   3.811   0.078  15.663 -2.4863 -0.6274  1.1408
 6674TIP3    H241514   3.806   0.228  15.685  0.0264 -0.4963  1.0650
 6675TIP3   OH241515   5.604   6.554   5.056  0.2055 -0.5812 -0.0410
 6675TIP3    H141516   5.626   6.647   5.053  1.0581 -0.7592  0.1722
 6675TIP3    H241517   5.670   6.512   5.000  0.1367 -1.0995  0.2590
 6676TIP3   OH241518   1.437   5.871  13.248  0.2143  0.2818 -0.8173
 6676TIP3    H141519   1.378   5.933  13.291  0.7201  0.3909 -0.2722
 6676TIP3    H241520   1.404   5.785  13.274 -0.4274  0.3098 -1.4942
 6677TIP3   OH241521   3.349   1.709   5.851  0.5003  0.2958  0.4555
 6677TIP3    H141522   3.359   1.642   5.783 -0.6682 -1.1384  1.6370
 6677TIP3    H241523   3.357   1.661   5.933 -1.3128  1.4273  1.3531
 6678TIP3   OH241524   5.062   2.112  12.378  0.5243 -0.6220  0.8120
 6678TIP3    H141525   4.996   2.158  12.431  2.5902  1.8439  1.4437
 6678TIP3    H241526   5.054   2.021  12.403 -0.1648  0.1352  3.6774
 6679TIP3   OH241527   1.619   4.500  14.511 -0.6763  0.1249 -0.0113
 6679TIP3    H141528   1.537   4.510  14.560 -1.0037 -1.4858 -0.1755
 6679TIP3    H241529   1.613   4.564  14.440 -1.8510 -0.0385 -0.0760
 6680TIP3   OH241530   0.207   3.937  12.041  0.1925 -0.0375 -0.3269
 6680TIP3    H141531   0.185   3.979  11.957 -1.7711 -0.5216 -0.0992
 6680TIP3    H241532   0.158   3.987  12.106 -0.7382 -1.5045  0.1587
 6681TIP3   OH241533   6.781   2.991   6.475 -0.0467 -0.0169 -0.0464
 6681TIP3    H141534   6.875   3.006   6.473  0.3155 -1.3956  2.3051
 6681TIP3    H241535   6.757   2.976   6.384  2.0650  0.0538 -0.6664
 6682TIP3   OH241536   2.569   2.496   3.159  0.8321 -0.1357  0.0994
 6682TIP3    H141537   2.656   2.468   3.132 -0.2392 -3.4838 -0.3582
 6682TIP3    H241538   2.537   2.549   3.085  2.0958  0.2674 -0.1702
 6683TIP3   OH241539   2.545   1.811  11.258 -0.3127  0.0720 -0.8436
 6683TIP3    H141540   2.523   1.718  11.252  0.0639 -0.0964  0.1344
 6683TIP3    H241541   2.638   1.812  11.281 -0.2731  0.6965 -1.0174
 6684TIP3   OH241542   5.896   3.983   0.002  0.0519  0.7562 -0.1925
 6684TIP3    H141543   5.883   3.896  -0.036  0.3645  1.0370 -0.9530
 6684TIP3    H241544   5.967   4.022  -0.050  2.1209  0.2917  2.1009
 6685TIP3   OH241545   1.074   2.328   0.383 -0.2701  0.2754  0.0277
 6685TIP3    H141546   1.028   2.368   0.457  0.7962  0.9866  0.3169
 6685TIP3    H241547   1.145   2.278   0.422  1.0702  1.6468 -0.5232
 6686TIP3   OH241548   0.251   3.079  16.388 -0.0020  0.7780  0.1627
 6686TIP3    H141549   0.169   3.111  16.426 -1.1338 -1.3293 -0.3371
 6686TIP3    H241550   0.299   3.042  16.462 -0.4925  0.1023  0.1582
 6687TIP3   OH241551   0.692   0.049  16.570  0.4584 -0.7939 -0.1625
 6687TIP3    H141552   0.773   0.096  16.589  1.0824 -1.5707 -0.8262
 6687TIP3    H241553   0.625   0.095  16.620  1.0183  0.8946 -0.8971
 6688TIP3   OH241554   1.073   2.624  12.124 -0.3903  0.4693 -0.3840
 6688TIP3    H141555   1.131   2.551  12.104 -0.0989  0.0156  1.8839
 6688TIP3    H241556   1.131   2.701  12.124 -0.3190  0.4194 -0.7625
 6689TIP3   OH241557   0.282   2.110   2.669  0.0832 -0.4092  0.2055
 6689TIP3    H141558   0.205   2.064   2.703 -1.9312 -0.1880 -3.5391
 6689TIP3    H241559   0.323   2.048   2.610  1.8126  0.1251  0.7692
 6690TIP3   OH241560   4.040   6.685  15.600  0.4212 -0.1550 -0.1298
 6690TIP3    H141561   3.990   6.731  15.668  0.6883  1.5579 -1.0438
 6690TIP3    H241562   4.130   6.687  15.631  0.2224 -1.6056  0.6285
 6691TIP3   OH241563   4.197   4.698  12.027  0.2168  0.0838  0.6060
 6691TIP3    H141564   4.273   4.726  11.977 -1.3988  1.2994 -1.3183
 6691TIP3    H241565   4.151   4.638  11.968 -1.3171  0.9031  0.9247
 6692TIP3   OH241566   6.213   5.495   4.696 -0.0571  0.5873  0.7978
 6692TIP3    H141567   6.259   5.419   4.661 -1.7895 -0.1410  0.0029
 6692TIP3    H241568   6.183   5.467   4.783  0.1657  0.7342  0.9247
 6693TIP3   OH241569   3.057   3.053  14.112 -0.4742  0.1103  0.4595
 6693TIP3    H141570   3.097   3.127  14.066  0.6250  0.3662  1.7686
 6693TIP3    H241571   3.071   3.071  14.205  1.4235 -2.5508  0.8270
 6694TIP3   OH241572   5.683   6.232  13.472 -0.8720 -0.3718  0.1614
 6694TIP3    H141573   5.655   6.320  13.449  2.2207  0.6417 -0.2306
 6694TIP3    H241574   5.661   6.179  13.395  1.0436  1.0383 -1.4598
 6695TIP3   OH241575   2.052   3.244  14.664 -0.4690  0.0618  0.0071
 6695TIP3    H141576   2.044   3.287  14.750  1.4310 -0.4680  0.4971
 6695TIP3    H241577   2.101   3.306  14.611  3.0464 -1.6382  0.9685
 6696TIP3   OH241578   3.144   5.436   6.201 -0.0585 -0.1333  0.0589
 6696TIP3    H141579   3.176   5.463   6.287 -0.9129 -0.1790  0.3897
 6696TIP3    H241580   3.197   5.359   6.179 -1.0368 -1.2147  1.3430
 6697TIP3   OH241581   3.984   2.219  11.823  0.7045 -0.4954  0.2297
 6697TIP3    H141582   3.986   2.146  11.761  1.1680 -0.6990  0.4846
 6697TIP3    H241583   4.048   2.196  11.890  1.4954  0.5572 -0.1482
 6698TIP3   OH241584   0.582   0.135   3.907 -0.3724  0.3017  1.1334
 6698TIP3    H141585   0.490   0.156   3.888 -0.3690 -0.3259  0.4075
 6698TIP3    H241586   0.583   0.041   3.921  0.4711 -0.0153 -0.7988
 6699TIP3   OH241587   0.779   0.973   6.041  0.3578  0.1749  0.9408
 6699TIP3    H141588   0.704   0.969   6.102 -0.0073 -1.4077  0.4174
 6699TIP3    H241589   0.856   0.977   6.098  0.0311 -1.5388  1.5351
 6700TIP3   OH241590   5.779   0.429   5.720  0.1509 -0.5281 -0.7439
 6700TIP3    H141591   5.774   0.352   5.664  1.5561 -0.2247 -1.3081
 6700TIP3    H241592   5.722   0.493   5.678 -0.9846 -1.2115 -0.2983
 6701TIP3   OH241593   4.733   3.811  10.762  0.1801 -0.1384 -0.2816
 6701TIP3    H141594   4.640   3.818  10.784  0.2087 -2.1909  0.6888
 6701TIP3    H241595   4.758   3.900  10.735 -2.1047  0.3897 -0.8457
 6702TIP3   OH241596   4.475   4.412   4.479  0.5442  0.3086  0.6082
 6702TIP3    H141597   4.502   4.426   4.570  0.0538  0.5209  0.7238
 6702TIP3    H241598   4.406   4.477   4.465 -1.2773 -1.4727  0.9134
 6703TIP3   OH241599   4.292   6.204   2.525  0.4542 -0.5052  0.0927
 6703TIP3    H141600   4.331   6.228   2.609 -1.7883  1.2746  0.7494
 6703TIP3    H241601   4.231   6.133   2.546 -1.7483  1.3774  0.5309
 6704TIP3   OH241602   4.494   5.679  12.853  0.4173 -0.1884  0.4759
 6704TIP3    H141603   4.422   5.681  12.917  0.5339  1.7141  0.6114
 6704TIP3    H241604   4.567   5.722  12.899  1.1201 -0.6056 -0.2433
 6705TIP3   OH241605   1.707   0.544  15.729  0.4167 -0.8168  0.3748
 6705TIP3    H141606   1.619   0.580  15.740  0.7406  0.5078 -1.0012
 6705TIP3    H241607   1.695   0.473  15.665  0.6400  1.0012 -1.8206
 6706TIP3   OH241608   2.016   3.715   6.004 -0.7159 -0.5389  0.3386
 6706TIP3    H141609   2.056   3.673   5.929 -0.1178  0.1922  0.2453
 6706TIP3    H241610   1.937   3.758   5.969 -1.0216 -1.0938  0.3341
 6707TIP3   OH241611   3.592   0.805  16.561  0.2072  0.0577  0.1963
 6707TIP3    H141612   3.670   0.861  16.569 -0.6109  1.6170 -1.9194
 6707TIP3    H241613   3.623   0.719  16.588  1.9963  1.1328  1.8588
 6708TIP3   OH241614   4.891   3.027   3.169 -0.6793 -0.2044 -0.2639
 6708TIP3    H141615   4.981   3.017   3.201 -0.9412  0.1515  0.6021
 6708TIP3    H241616   4.900   3.078   3.088 -0.3505  2.8289  1.5460
 6709TIP3   OH241617   1.968   6.315  16.353  0.1468 -0.1854 -0.6202
 6709TIP3    H141618   2.003   6.332  16.266 -0.0491 -0.4739 -0.7579
 6709TIP3    H241619   1.958   6.220  16.357 -2.3661 -0.0265 -1.2763
 6710TIP3   OH241620   0.353   6.309   6.078 -0.2213 -0.0190  0.0414
 6710TIP3    H141621   0.360   6.404   6.070 -0.6838  0.1136  1.0675
 6710TIP3    H241622   0.372   6.276   5.990  2.0199  0.8981  0.1119
 6711TIP3   OH241623   5.597   6.171  11.538  0.0756 -0.1081 -0.5001
 6711TIP3    H141624   5.676   6.223  11.523 -0.5087  0.5745 -1.3683
 6711TIP3    H241625   5.622   6.082  11.514  1.2861 -0.4172  1.6482
 6712TIP3   OH241626   2.349   3.799   0.605  0.1736 -0.2528 -0.0037
 6712TIP3    H141627   2.379   3.709   0.618  1.7225  0.2877  0.3402
 6712TIP3    H241628   2.255   3.794   0.620  0.3944 -1.5999  1.2952
 6713TIP3   OH241629   5.650   3.440   3.637  0.4904  0.1761 -0.2234
 6713TIP3    H141630   5.657   3.440   3.541  0.5507  1.0304 -0.2195
 6713TIP3    H241631   5.557   3.455   3.654  0.7444  1.8397 -0.1429
 6714TIP3   OH241632   1.596   6.467  11.372 -0.6044  0.5224  0.1761
 6714TIP3    H141633   1.676   6.518  11.383 -0.4219  0.5942 -1.3395
 6714TIP3    H241634   1.553   6.471  11.458  1.0887  0.3185  1.0772
 6715TIP3   OH241635   5.257   2.161   2.881  0.6459 -0.0589 -0.9864
 6715TIP3    H141636   5.209   2.115   2.950  1.1595 -1.4026 -1.4886
 6715TIP3    H241637   5.278   2.246   2.919  1.0539 -0.8204  0.5781
 6716TIP3   OH241638   3.809   6.649  14.383  0.5012  0.5315  0.3971
 6716TIP3    H141639   3.739   6.591  14.413  1.2309 -0.1224  0.9002
 6716TIP3    H241640   3.889   6.611  14.421  1.3707  0.1828 -1.6456
 6717TIP3   OH241641   0.985   6.418  16.147 -0.5204  0.0969  0.7530
 6717TIP3    H141642   0.985   6.437  16.241 -2.6150  0.8439  0.6610
 6717TIP3    H241643   0.961   6.326  16.141 -0.9452  0.1933  0.9474
 6718TIP3   OH241644   2.343   1.716   2.053 -0.0913 -0.2663 -0.2725
 6718TIP3    H141645   2.438   1.732   2.060 -0.0904 -0.3220 -0.1557
 6718TIP3    H241646   2.306   1.803   2.037 -0.1106 -0.0958  0.6440
 6719TIP3   OH241647   1.598   2.827   6.438  0.0873 -0.0714 -0.5789
 6719TIP3    H141648   1.530   2.864   6.494  0.1214 -0.9902  0.0895
 6719TIP3    H241649   1.638   2.903   6.395 -1.7100  0.4799 -1.4138
 6720TIP3   OH241650   4.033   5.318  12.142  0.4713 -0.8639  0.0181
 6720TIP3    H141651   4.061   5.397  12.095  0.7509 -0.8252  0.2453
 6720TIP3    H241652   3.985   5.351  12.217  0.3972 -0.9161 -0.0056
 6721TIP3   OH241653   3.034   4.104   4.699 -0.4461 -0.2575  0.1147
 6721TIP3    H141654   2.987   4.065   4.773  0.7543  0.7838  1.4977
 6721TIP3    H241655   3.105   4.044   4.681 -0.0852  0.0335  0.5570
 6722TIP3   OH241656   2.550   6.146   0.465 -0.3654  0.0499  0.4710
 6722TIP3    H141657   2.559   6.239   0.445  0.0963 -0.2014 -0.5413
 6722TIP3    H241658   2.462   6.138   0.500 -0.3635  0.8904  0.6944
 6723TIP3   OH241659   6.432   1.827   5.801 -0.0569  0.2450  0.4497
 6723TIP3    H141660   6.411   1.920   5.795 -2.7775 -0.2429  1.0024
 6723TIP3    H241661   6.524   1.821   5.776 -0.0976  2.9439 -0.6535
 6724TIP3   OH241662   0.031   2.747   1.877  0.5809  0.0550  0.5022
 6724TIP3    H141663   0.124   2.735   1.856  0.0225 -1.5431 -1.3163
 6724TIP3    H241664   0.028   2.830   1.924  2.9742 -0.0410  0.9520
 6725TIP3   OH241665   5.864   6.262  15.483  0.3856 -0.3652 -0.3699
 6725TIP3    H141666   5.774   6.262  15.451  0.3623  0.2772 -0.3190
 6725TIP3    H241667   5.883   6.170  15.503  0.3091 -0.7662 -1.9808
 6726TIP3   OH241668   4.008   4.991   1.239  0.3178 -0.3091 -0.3211
 6726TIP3    H141669   3.977   4.950   1.158 -1.2845 -1.7312  0.9297
 6726TIP3    H241670   4.102   4.971   1.241  0.7499  1.1758 -2.5666
 6727TIP3   OH241671   4.928   3.437  11.251  0.3793 -0.4751 -0.0386
 6727TIP3    H141672   4.871   3.362  11.236 -0.4076 -0.0382  0.6973
 6727TIP3    H241673   4.874   3.499  11.299  0.4971  1.2548 -1.9901
 6728TIP3   OH241674   1.794   2.358   3.265  0.0104 -0.1008  0.2322
 6728TIP3    H141675   1.872   2.385   3.217  0.3891 -0.9663  0.3371
 6728TIP3    H241676   1.723   2.410   3.227  0.6063  0.5694  0.0176
 6729TIP3   OH241677   0.649   4.615   6.103 -0.6236 -0.1510  0.5673
 6729TIP3    H141678   0.604   4.530   6.099 -1.5158  0.3166  0.2321
 6729TIP3    H241679   0.706   4.615   6.026  1.7558 -1.6840  2.2109
 6730TIP3   OH241680   4.188   0.803   5.874  0.0684  0.3389 -0.1898
 6730TIP3    H141681   4.186   0.891   5.914 -2.1444  0.1898  0.1436
 6730TIP3    H241682   4.230   0.817   5.789 -0.1730  1.7148 -0.1159
 6731TIP3   OH241683   2.022   1.072   2.084 -0.5250 -0.8071 -0.0145
 6731TIP3    H141684   2.098   1.021   2.112  0.2886  0.2692 -0.1937
 6731TIP3    H241685   1.971   1.087   2.164  0.3539 -0.0867  0.4226
 6732TIP3   OH241686   3.885   0.774  11.253 -0.7897  0.0976  0.1453
 6732TIP3    H141687   3.896   0.749  11.161 -2.0826 -0.5450  0.1485
 6732TIP3    H241688   3.877   0.869  11.252  0.2813  0.1963 -0.2839
 6733TIP3   OH241689   4.664   4.969  15.853  0.0308  0.1754 -0.2222
 6733TIP3    H141690   4.621   5.055  15.851 -0.5153 -0.0985 -0.7486
 6733TIP3    H241691   4.716   4.970  15.932 -0.9113  0.5491  0.4131
 6734TIP3   OH241692   4.730   5.570   1.096  0.3112 -0.3809  0.2233
 6734TIP3    H141693   4.825   5.561   1.089  0.4378  1.3033 -0.9621
 6734TIP3    H241694   4.717   5.635   1.165  0.1638  1.0110 -1.0621
 6735TIP3   OH241695   0.470   2.604   1.618  0.2130  0.5150 -0.2353
 6735TIP3    H141696   0.391   2.645   1.652  0.0508  0.4241 -0.4951
 6735TIP3    H241697   0.481   2.642   1.531 -1.3386 -1.7500 -1.5177
 6736TIP3   OH241698   4.934   6.045  13.309  0.4323  0.0427  0.4285
 6736TIP3    H141699   4.979   6.082  13.385  0.6811  0.9775 -0.1547
 6736TIP3    H241700   4.982   5.963  13.291  1.6045  0.7557  0.1441
 6737TIP3   OH241701   6.296   4.910   3.706 -0.5335  0.1328 -0.5597
 6737TIP3    H141702   6.272   4.834   3.759 -0.7073  1.3768  1.2382
 6737TIP3    H241703   6.387   4.895   3.681 -0.1484 -0.0920  0.8902
 6738TIP3   OH241704   0.521   3.634   1.291 -0.7247  0.0182  0.4445
 6738TIP3    H141705   0.454   3.568   1.309 -1.0916  0.4338  0.6238
 6738TIP3    H241706   0.476   3.718   1.304 -0.1138  0.2997  0.7687
 6739TIP3   OH241707   4.208   3.280   2.924  0.7380 -0.2810 -0.1420
 6739TIP3    H141708   4.211   3.361   2.975  0.6212 -1.4171  1.7672
 6739TIP3    H241709   4.212   3.210   2.989  0.8213 -1.8328 -1.7268
 6740TIP3   OH241710   4.632   0.727  15.858  0.6952  0.6010  0.3033
 6740TIP3    H141711   4.716   0.710  15.816  1.0253  0.2159  1.1065
 6740TIP3    H241712   4.576   0.758  15.787  0.9131 -1.0787 -0.6662
 6741TIP3   OH241713   0.813   4.927  13.472 -0.0925 -0.0746 -0.1628
 6741TIP3    H141714   0.890   4.937  13.528 -1.0125 -0.0987  1.1756
 6741TIP3    H241715   0.847   4.895  13.389  1.3952  0.5244  0.1893
 6742TIP3   OH241716   5.842   2.917   4.045  0.1488 -0.6747 -0.4291
 6742TIP3    H141717   5.800   2.930   3.960 -1.7873  0.6844  0.6848
 6742TIP3    H241718   5.848   2.822   4.054 -0.1845 -0.8442 -1.7943
 6743TIP3   OH241719   3.061   1.224   4.877 -0.2636 -0.5133  0.7605
 6743TIP3    H141720   3.070   1.314   4.846 -1.2556 -0.8335 -0.5489
 6743TIP3    H241721   3.097   1.170   4.807  0.1506 -1.1487  1.4491
 6744TIP3   OH241722   3.788   5.594  15.801  0.4489  0.0646  0.2412
 6744TIP3    H141723   3.753   5.549  15.878 -1.9382 -0.1936 -0.9112
 6744TIP3    H241724   3.873   5.626  15.829  1.2958 -3.1821  1.8277
 6745TIP3   OH241725   2.333   1.145   0.744 -0.0099  0.5717  0.4222
 6745TIP3    H141726   2.288   1.229   0.742  0.2228  0.6825 -1.3461
 6745TIP3    H241727   2.401   1.156   0.811 -1.4689  0.9578  1.9162
 6746TIP3   OH241728   3.176   4.457  16.452  0.0015 -0.3737 -0.3057
 6746TIP3    H141729   3.226   4.513  16.511 -0.1691  2.2374 -2.4501
 6746TIP3    H241730   3.116   4.409  16.509 -0.0010  1.8269  1.7006
 6747TIP3   OH241731   4.769   1.377   0.260  0.3176 -0.0530 -0.2508
 6747TIP3    H141732   4.727   1.374   0.173 -1.7213 -0.2543  0.6771
 6747TIP3    H241733   4.700   1.350   0.320  1.7761 -0.1779  1.4289
 6748TIP3   OH241734   5.676   5.455   3.587 -0.2324  0.4831 -0.0029
 6748TIP3    H141735   5.732   5.422   3.517 -1.0119  1.3196 -1.0551
 6748TIP3    H241736   5.643   5.539   3.555 -1.0483  0.6363  1.1358
 6749TIP3   OH241737   1.544   0.760  13.394  0.4136  0.2076  0.1559
 6749TIP3    H141738   1.462   0.711  13.388  0.7281 -0.2065 -0.8549
 6749TIP3    H241739   1.607   0.709  13.344  1.2222  0.6859  0.6592
 6750TIP3   OH241740   1.628   3.789  13.825 -0.4790 -0.2879 -0.1367
 6750TIP3    H141741   1.655   3.881  13.821  1.2926 -0.7819 -0.3172
 6750TIP3    H241742   1.568   3.779  13.751 -0.9281  0.7727  0.0525
 6751TIP3   OH241743   1.987   2.761  14.119 -0.3008 -0.1327 -0.1899
 6751TIP3    H141744   2.007   2.684  14.066 -2.8283 -0.2237 -1.1469
 6751TIP3    H241745   2.060   2.768  14.180  1.3043 -1.7133 -1.8153
 6752TIP3   OH241746   5.714   5.571   5.569  0.4383 -0.2038 -0.2929
 6752TIP3    H141747   5.647   5.511   5.538  1.0697 -0.4672 -1.2055
 6752TIP3    H241748   5.666   5.649   5.596 -0.3827 -1.0779  0.8462
 6753TIP3   OH241749   3.813   4.835  13.939 -0.7081 -0.4202 -0.1095
 6753TIP3    H141750   3.769   4.799  14.017  0.9231 -0.4688  0.8266
 6753TIP3    H241751   3.796   4.929  13.944  0.7949 -0.1716  1.3053
 6754TIP3   OH241752   2.331   0.894  11.730 -0.2067 -0.2022  0.6845
 6754TIP3    H141753   2.311   0.850  11.647  1.3804 -0.4485  0.3982
 6754TIP3    H241754   2.325   0.825  11.796  0.5712 -0.4760  0.4754
 6755TIP3   OH241755   6.120   2.155   4.616  0.2464 -0.0980 -0.3268
 6755TIP3    H141756   6.037   2.113   4.638  0.4911  0.7078  2.6108
 6755TIP3    H241757   6.099   2.213   4.543 -1.5672 -0.6074 -0.2536
 6756TIP3   OH241758   2.568   6.169   3.272  0.3640 -0.3827  0.0487
 6756TIP3    H141759   2.588   6.146   3.363 -0.7353  1.5946  0.8489
 6756TIP3    H241760   2.473   6.162   3.266  0.4909 -1.3010 -1.2234
 6757TIP3   OH241761   3.641   3.475   1.059  0.0419 -0.1154  0.4370
 6757TIP3    H141762   3.686   3.423   1.126  0.5658  0.5252  0.5943
 6757TIP3    H241763   3.646   3.421   0.980  1.5136  0.1188  0.3332
 6758TIP3   OH241764   0.960   1.752   0.750  0.3454 -0.2036 -0.7225
 6758TIP3    H141765   0.934   1.719   0.836 -1.7935  0.4954 -1.0356
 6758TIP3    H241766   0.890   1.812   0.726  2.2222  1.6543 -1.8235
 6759TIP3   OH241767   3.374   6.387   0.709  0.5527 -0.1840  0.2987
 6759TIP3    H141768   3.384   6.333   0.788  1.1450  0.6886  0.8294
 6759TIP3    H241769   3.390   6.476   0.738 -0.6178  0.3224 -0.5403
 6760TIP3   OH241770   1.973   5.945  12.549 -0.9549 -0.5515  0.0533
 6760TIP3    H141771   1.991   6.003  12.622 -0.8011  0.3122 -0.6507
 6760TIP3    H241772   1.899   5.986  12.503  0.5433  0.3281 -1.7232
 6761TIP3   OH241773   2.389   0.152  12.758 -0.6854 -0.6617  0.2230
 6761TIP3    H141774   2.364   0.096  12.832  0.7674 -0.3632  0.9863
 6761TIP3    H241775   2.378   0.241  12.791  0.4205 -0.5255  0.2686
 6762TIP3   OH241776   4.224   5.789  14.524 -0.4217 -0.1973  0.3335
 6762TIP3    H141777   4.265   5.782  14.438 -1.8038 -0.1729 -0.3469
 6762TIP3    H241778   4.223   5.699  14.558  2.0413  0.0513  1.2954
 6763TIP3   OH241779   2.541   1.617   1.376  0.0629  0.6620 -0.3808
 6763TIP3    H141780   2.458   1.574   1.356  0.5676  0.5242 -2.3812
 6763TIP3    H241781   2.581   1.563   1.444 -0.8452 -0.0724 -0.4206
 6764TIP3   OH241782   5.343   1.303   0.515 -0.0316  0.5735  0.2206
 6764TIP3    H141783   5.358   1.221   0.468 -0.2891  0.5119  0.2425
 6764TIP3    H241784   5.408   1.364   0.480 -1.4638  1.1080 -1.6426
 6765TIP3   OH241785   1.447   6.721  16.783 -0.3615 -0.3977 -0.0686
 6765TIP3    H141786   1.519   6.757  16.835  0.2407 -0.4014 -0.8754
 6765TIP3    H241787   1.486   6.647  16.736 -0.7882 -0.1657 -0.8105
 6766TIP3   OH241788   0.088   1.892  10.811  0.4293  0.0588 -0.4185
 6766TIP3    H141789   0.014   1.937  10.852  0.3241 -1.1545  0.7874
 6766TIP3    H241790   0.049   1.837  10.744  0.5154  1.3632 -1.5818
 6767TIP3   OH241791   2.242   5.563   5.013 -0.3766 -0.2941 -0.1328
 6767TIP3    H141792   2.284   5.503   5.075 -0.0267  0.9268  0.8652
 6767TIP3    H241793   2.155   5.578   5.051  0.3091  1.5059  0.8603
 6768TIP3   OH241794   2.058   2.548  11.917  0.3762  0.5832  0.5363
 6768TIP3    H141795   2.107   2.467  11.933  0.4599  0.7205  0.9737
 6768TIP3    H241796   2.050   2.589  12.003 -1.7298 -0.1246  0.7412
 6769TIP3   OH241797   6.096   4.912  12.470 -0.6551  0.4408 -0.3726
 6769TIP3    H141798   6.044   4.986  12.500 -0.0367  0.6820  0.1310
 6769TIP3    H241799   6.167   4.952  12.420  0.1774  0.2579  0.6377
 6770TIP3   OH241800   4.092   0.431   2.068 -0.4086 -0.2963 -0.3755
 6770TIP3    H141801   4.062   0.359   2.013  1.6862 -0.2465 -1.6788
 6770TIP3    H241802   4.034   0.504   2.045 -0.4890 -0.6791 -1.4430
 6771TIP3   OH241803   1.989   2.509   3.624 -0.0499  0.3759  0.1833
 6771TIP3    H141804   2.055   2.525   3.692  1.9588 -1.1492 -1.2856
 6771TIP3    H241805   2.007   2.420   3.594 -1.7507  0.5270 -1.4442
 6772TIP3   OH241806   6.828   4.448   1.493 -0.1143  0.0774 -0.6432
 6772TIP3    H141807   6.916   4.478   1.516 -1.1977  3.0459  0.2077
 6772TIP3    H241808   6.816   4.475   1.402 -0.3689  0.3323 -0.5365
 6773TIP3   OH241809   6.015   0.350  14.782 -0.3611 -0.2064  0.3447
 6773TIP3    H141810   6.039   0.443  14.774 -0.8949 -0.2397 -3.9553
 6773TIP3    H241811   6.099   0.305  14.793 -0.0479  0.6879  1.9440
 6774TIP3   OH241812   3.301   0.595   5.345  0.2605  0.1494  0.2423
 6774TIP3    H141813   3.220   0.544   5.342 -0.5546  1.2885  1.6180
 6774TIP3    H241814   3.308   0.635   5.258  0.3648 -1.4032 -0.5054
 6775TIP3   OH241815   0.499   0.631   5.689  0.2939 -0.1636  0.1454
 6775TIP3    H141816   0.419   0.682   5.674  0.4838  0.1059  0.0316
 6775TIP3    H241817   0.523   0.651   5.780 -0.5306 -1.3341  0.6367
 6776TIP3   OH241818   5.460   0.456  14.142  0.3937 -0.1723  0.2293
 6776TIP3    H141819   5.456   0.485  14.051  0.0739  3.5154  1.2471
 6776TIP3    H241820   5.548   0.482  14.171 -0.1014  0.2491  1.3949
 6777TIP3   OH241821   5.333   5.934   3.602  0.1022 -0.2152  0.5417
 6777TIP3    H141822   5.329   5.869   3.672  0.5723  3.0805  3.9315
 6777TIP3    H241823   5.262   5.995   3.621  0.4495  1.0273 -1.7440
 6778TIP3   OH241824   1.490   1.810  14.790  0.1451 -0.4988  0.1461
 6778TIP3    H141825   1.485   1.771  14.877 -1.2638 -0.8061 -0.0489
 6778TIP3    H241826   1.567   1.770  14.750 -0.4446 -2.0333  0.4732
 6779TIP3   OH241827   4.392   1.591   0.016 -0.5653  0.1189  0.0217
 6779TIP3    H141828   4.346   1.514  -0.019 -1.0077  0.0725  0.6738
 6779TIP3    H241829   4.484   1.574  -0.001 -0.5924 -0.9218  0.8518
 6780TIP3   OH241830   5.440   4.207  15.369  0.4245 -0.3412  0.2538
 6780TIP3    H141831   5.527   4.246  15.355 -0.9748  2.4651 -1.6996
 6780TIP3    H241832   5.403   4.256  15.442 -1.0278  1.6226 -1.6661
 6781TIP3   OH241833   0.170   3.153  11.678  0.4844 -0.0340 -0.2116
 6781TIP3    H141834   0.182   3.208  11.756  0.1978  0.4570 -0.5083
 6781TIP3    H241835   0.211   3.070  11.701  0.0864 -0.0205  0.6113
 6782TIP3   OH241836   4.860   6.256   0.356 -0.5970  0.3834 -0.4798
 6782TIP3    H141837   4.914   6.333   0.373  0.4561 -0.6627  1.0993
 6782TIP3    H241838   4.899   6.217   0.277  0.4506  0.1287  0.1379
 6783TIP3   OH241839   1.945   3.712  13.079  0.1748 -0.4866  0.0447
 6783TIP3    H141840   1.949   3.687  13.172  0.2198  0.7838  0.4068
 6783TIP3    H241841   1.871   3.773  13.074  1.9492  1.7824 -0.1328
 6784TIP3   OH241842   3.424   2.957   2.319  0.4497  0.3813 -0.3034
 6784TIP3    H141843   3.437   2.940   2.225 -2.4852 -1.8766 -0.4325
 6784TIP3    H241844   3.330   2.950   2.332  0.9249 -1.6223  3.1989
 6785TIP3   OH241845   2.287   0.670   6.481  0.5361 -0.0487  0.7236
 6785TIP3    H141846   2.321   0.581   6.479  1.7885  0.3780  1.3113
 6785TIP3    H241847   2.365   0.725   6.470 -0.3937  0.9681 -1.3170
 6786TIP3   OH241848   4.998   5.316   6.336 -0.1687 -0.4967 -0.5823
 6786TIP3    H141849   4.951   5.233   6.340 -2.4259  0.6288 -1.5120
 6786TIP3    H241850   4.956   5.371   6.403  2.0462 -0.4125  0.8071
 6787TIP3   OH241851   2.318   3.402  11.493  0.3792 -0.3597 -0.0919
 6787TIP3    H141852   2.335   3.396  11.587  0.5800  2.9152  0.2234
 6787TIP3    H241853   2.405   3.415  11.454  0.3374 -2.0556 -0.8112
 6788TIP3   OH241854   3.877   5.781  16.611  0.3615 -0.2934 -0.0626
 6788TIP3    H141855   3.936   5.825  16.673 -1.1784  1.8814 -0.0159
 6788TIP3    H241856   3.936   5.739  16.548  1.9657  0.3238  0.9570
 6789TIP3   OH241857   5.193   2.966  15.508  0.2311 -0.0758 -0.1766
 6789TIP3    H141858   5.148   2.884  15.487 -0.7350 -0.4319  2.7540
 6789TIP3    H241859   5.128   3.034  15.496  0.5391  0.0721 -1.0366
 6790TIP3   OH241860   2.777   2.103  14.703 -0.1391 -0.2093 -0.4274
 6790TIP3    H141861   2.868   2.088  14.679  0.4612  1.0187  0.9784
 6790TIP3    H241862   2.732   2.116  14.620  1.1425  0.0940 -1.0964
 6791TIP3   OH241863   1.233   0.917   2.720  0.0334 -0.0497  0.1104
 6791TIP3    H141864   1.279   0.836   2.702  2.0419  1.3739 -1.5687
 6791TIP3    H241865   1.283   0.959   2.789  0.5286  0.8851 -0.7824
 6792TIP3   OH241866   6.458   0.563   5.850 -0.0194  0.1851 -0.3266
 6792TIP3    H141867   6.472   0.586   5.942 -1.0965  1.3815 -0.4283
 6792TIP3    H241868   6.493   0.638   5.801 -0.4745  0.0733 -0.8344
 6793TIP3   OH241869   4.042   3.545   3.396 -0.2080 -0.1216 -0.6553
 6793TIP3    H141870   3.986   3.620   3.416 -1.7481 -1.4213  0.1575
 6793TIP3    H241871   4.108   3.546   3.465 -0.4642  0.2482 -0.4077
 6794TIP3   OH241872   2.953   0.841   4.647  0.1253  0.2504 -0.0903
 6794TIP3    H141873   2.970   0.817   4.738 -1.2330 -0.0478  0.1104
 6794TIP3    H241874   2.959   0.758   4.599  0.3815  0.3331 -0.2038
 6795TIP3   OH241875   6.373   4.145  13.437  0.4872  0.3864 -0.1946
 6795TIP3    H141876   6.374   4.086  13.513  0.0962  1.3622  0.5923
 6795TIP3    H241877   6.362   4.232  13.475 -0.1636  0.8512 -1.4042
 6796TIP3   OH241878   6.529   3.697  13.145  0.0163  0.0622  0.2434
 6796TIP3    H141879   6.472   3.680  13.220 -0.4427 -1.1021 -0.3365
 6796TIP3    H241880   6.618   3.686  13.179 -0.2151 -3.2302  0.0741
 6797TIP3   OH241881   6.176   4.163   2.275  0.0733 -0.6908  0.4928
 6797TIP3    H141882   6.159   4.091   2.215 -2.6485  0.5454 -0.3984
 6797TIP3    H241883   6.129   4.139   2.355  0.9974 -0.8658  0.9952
 6798TIP3   OH241884   1.022   0.915  14.912 -0.5325  0.1432  0.1184
 6798TIP3    H141885   1.057   0.833  14.877 -0.7703  0.0679  0.0601
 6798TIP3    H241886   1.041   0.910  15.006  3.1252  1.8003 -0.3687
 6799TIP3   OH241887   3.168   2.678   5.536 -0.1541  0.1367  0.2882
 6799TIP3    H141888   3.096   2.623   5.504  0.0810  0.2898 -0.5488
 6799TIP3    H241889   3.135   2.767   5.528 -0.0340  0.1833  0.3176
 6800TIP3   OH241890   3.530   6.751   5.155 -0.4082 -0.1799 -0.1799
 6800TIP3    H141891   3.511   6.712   5.070  2.5818  1.4856 -1.7348
 6800TIP3    H241892   3.545   6.843   5.137 -0.8585  0.4866  2.4011
 6801TIP3   OH241893   6.115   1.678   2.719  0.6668  0.1801 -0.3390
 6801TIP3    H141894   6.163   1.701   2.640  0.2011 -0.8851 -0.9370
 6801TIP3    H241895   6.062   1.602   2.695 -0.0076  0.2659  0.7953
 6802TIP3   OH241896   0.772   4.792   6.266 -0.2513  0.2741  0.4850
 6802TIP3    H141897   0.727   4.719   6.224 -0.2390 -0.3216  1.4901
 6802TIP3    H241898   0.758   4.779   6.360  1.5438  0.3685  0.8075
 6803TIP3   OH241899   6.317   0.666  15.949  0.3903 -0.1927  0.2328
 6803TIP3    H141900   6.264   0.606  16.003 -1.3909 -0.6826 -1.9279
 6803TIP3    H241901   6.346   0.733  16.011 -3.1297  0.3412  1.5496
 6804TIP3   OH241902   3.842   6.208  12.543  0.5347  0.2726  0.0111
 6804TIP3    H141903   3.765   6.261  12.522 -0.5703 -0.5044  1.8152
 6804TIP3    H241904   3.841   6.202  12.639  0.9750 -2.4310 -0.0690
 6805TIP3   OH241905   3.240   4.484   0.400  0.6106 -0.0111  0.0645
 6805TIP3    H141906   3.188   4.419   0.446  0.4292  1.0245  1.3653
 6805TIP3    H241907   3.330   4.452   0.406  0.4384 -0.4946  0.0671
 6806TIP3   OH241908   2.259   6.698   2.278  0.2065 -0.2943  0.0506
 6806TIP3    H141909   2.317   6.731   2.210 -1.6161 -0.9492 -1.9171
 6806TIP3    H241910   2.301   6.617   2.308  1.6119  0.5973  0.5875
 6807TIP3   OH241911   2.479   1.605  13.034  0.2739  0.4671 -0.1311
 6807TIP3    H141912   2.412   1.660  12.994  0.1294  0.7378  0.4790
 6807TIP3    H241913   2.477   1.524  12.982  0.3446  0.9450 -0.8999
 6808TIP3   OH241914   0.075   6.338   4.151 -0.4073  0.1049  0.0159
 6808TIP3    H141915   0.102   6.425   4.123  0.5334 -0.3396 -0.5222
 6808TIP3    H241916   0.107   6.331   4.241 -0.1421  0.1785 -0.0713
 6809TIP3   OH241917   3.746   1.543   1.354  0.3721 -0.5157 -0.0659
 6809TIP3    H141918   3.687   1.485   1.305 -0.2614  0.0860 -0.0208
 6809TIP3    H241919   3.818   1.560   1.293  1.2936 -2.4526  0.3955
 6810TIP3   OH241920   4.896   0.434   6.114  0.1267 -0.1443 -0.0463
 6810TIP3    H141921   4.940   0.358   6.076  0.8486 -0.5754  1.5761
 6810TIP3    H241922   4.809   0.433   6.075  0.1020 -1.8325 -0.0312
 6811TIP3   OH241923   5.763   4.101   4.541 -0.3397  0.8736 -0.3229
 6811TIP3    H141924   5.683   4.087   4.490  0.9273  1.0621 -2.4354
 6811TIP3    H241925   5.739   4.073   4.630 -1.9547 -1.6706 -1.4490
 6812TIP3   OH241926   0.867   0.225   1.621  0.4822 -0.1094  0.3474
 6812TIP3    H141927   0.887   0.137   1.588  1.4557  0.1781  0.1271
 6812TIP3    H241928   0.943   0.277   1.596  0.1890  0.6555  1.0215
 6813TIP3   OH241929   6.821   3.543   3.868 -0.0667  0.4120  0.0682
 6813TIP3    H141930   6.802   3.636   3.853  1.3344  0.6946 -0.1438
 6813TIP3    H241931   6.916   3.540   3.877 -0.1302 -0.9588  0.4817
 6814TIP3   OH241932   5.388   4.137   0.080  0.6577  0.1146 -0.1142
 6814TIP3    H141933   5.309   4.102   0.040  1.6165  0.2229 -2.2092
 6814TIP3    H241934   5.358   4.212   0.132 -0.7647 -0.7516  0.3732
 6815TIP3   OH241935   0.565   0.534   1.507  0.0820  0.2568  1.2289
 6815TIP3    H141936   0.481   0.576   1.489 -0.3361 -1.2242 -0.5619
 6815TIP3    H241937   0.629   0.587   1.459 -0.5385 -1.4065 -1.6883
 6816TIP3   OH241938   1.133   1.583  14.007 -0.2820 -0.7804  0.0119
 6816TIP3    H141939   1.187   1.662  14.000 -1.5891  0.3152  1.5446
 6816TIP3    H241940   1.094   1.573  13.920 -0.1360  0.2966 -0.1908
 6817TIP3   OH241941   3.838   6.755  13.586  0.6160  0.9625  0.3673
 6817TIP3    H141942   3.779   6.680  13.572  0.4164  0.9041  1.3849
 6817TIP3    H241943   3.780   6.824  13.619  1.3965  0.0514  4.1774
 6818TIP3   OH241944   2.938   4.479   0.609  0.0733 -0.1378  0.3072
 6818TIP3    H141945   2.946   4.562   0.563  2.3820 -1.2861 -1.5277
 6818TIP3    H241946   2.862   4.437   0.569 -0.1481  0.4162  0.1384
 6819TIP3   OH241947   0.526   4.978   4.705 -0.1829 -0.2138  0.2641
 6819TIP3    H141948   0.589   4.921   4.663 -1.3064 -1.1553 -0.2111
 6819TIP3    H241949   0.566   5.065   4.702  1.1841 -0.8199  0.2375
 6820TIP3   OH241950   2.058   6.464   2.067 -0.2542 -0.0052 -0.7383
 6820TIP3    H141951   2.149   6.447   2.044  0.0096 -0.2117  0.3855
 6820TIP3    H241952   2.013   6.473   1.983  0.9682  1.0183 -1.3247
 6821TIP3   OH241953   5.701   0.423  16.545  0.5074 -0.1465 -0.5796
 6821TIP3    H141954   5.627   0.437  16.487 -0.8668  1.0817  1.3188
 6821TIP3    H241955   5.669   0.361  16.611  2.1453 -1.8257 -1.2636
 6822TIP3   OH241956   5.357   0.555   0.042  0.4920 -0.3412  0.1990
 6822TIP3    H141957   5.344   0.613  -0.033  2.6251 -0.4270 -0.3138
 6822TIP3    H241958   5.385   0.614   0.113  0.9676 -0.5365  0.1779
 6823TIP3   OH241959   1.105   0.348   1.550  0.3787 -0.7984 -0.8489
 6823TIP3    H141960   1.101   0.443   1.564  0.3571 -0.4421 -3.0279
 6823TIP3    H241961   1.195   0.325   1.570  0.6859 -0.1220 -1.4382
 6824TIP3   OH241962   3.995   2.932  15.511  0.3656  0.1685  0.3565
 6824TIP3    H141963   4.047   2.852  15.506  0.6985  0.4116 -0.1907
 6824TIP3    H241964   3.966   2.937  15.602  0.3905 -0.5446  0.4065
 6825TIP3   OH241965   5.499   4.937  14.526  0.0821 -0.2555  0.2134
 6825TIP3    H141966   5.544   5.019  14.503 -0.0950  0.2833  1.6774
 6825TIP3    H241967   5.421   4.966  14.573 -2.2411 -1.1244 -2.7407
 6826TIP3   OH241968   5.871   6.026  15.231  0.4599  0.0895  0.8374
 6826TIP3    H141969   5.863   6.020  15.326 -2.7507  2.0381  0.8768
 6826TIP3    H241970   5.780   6.019  15.199  1.5253 -1.8282 -2.2375
 6827TIP3   OH241971   2.054   1.436   5.712 -0.4120  0.2001  0.0571
 6827TIP3    H141972   1.981   1.400   5.762 -0.3632  2.3715  1.8998
 6827TIP3    H241973   2.028   1.527   5.694  0.4283  0.0302 -2.2520
 6828TIP3   OH241974   2.775   4.770  12.268  0.0725 -0.2725 -0.2675
 6828TIP3    H141975   2.776   4.681  12.302  0.2273  0.2067  1.0326
 6828TIP3    H241976   2.687   4.781  12.233 -0.0410 -0.8425 -0.1717
 6829TIP3   OH241977   3.203   3.302  12.110 -0.3223 -0.4988  0.2448
 6829TIP3    H141978   3.143   3.365  12.149 -2.6827 -2.2685 -0.3010
 6829TIP3    H241979   3.274   3.355  12.074 -0.4167  1.5195  2.7794
 6830TIP3   OH241980   4.798   2.559   1.081  0.2566  0.2603 -0.0880
 6830TIP3    H141981   4.731   2.626   1.089 -1.1109 -1.1490  0.8796
 6830TIP3    H241982   4.773   2.492   1.145  0.5575 -1.9923 -2.1627
 6831TIP3   OH241983   1.999   0.504   0.170  0.1977 -0.1387  1.3293
 6831TIP3    H141984   1.938   0.484   0.099  2.5744 -0.5922 -0.7418
 6831TIP3    H241985   1.996   0.427   0.227 -1.5043  0.0876  1.5926
 6832TIP3   OH241986   3.758   0.167  13.730  0.3340 -0.1495  0.4054
 6832TIP3    H141987   3.687   0.199  13.674  0.7123 -0.5333 -0.3051
 6832TIP3    H241988   3.747   0.215  13.812  2.3645  3.7245 -1.3595
 6833TIP3   OH241989   4.203   5.250   5.730 -0.2524 -0.0250  0.6852
 6833TIP3    H141990   4.189   5.339   5.697  1.3329  0.0688  0.1313
 6833TIP3    H241991   4.172   5.193   5.659  2.2038  0.1713 -0.6827
 6834TIP3   OH241992   3.597   4.232  14.682  0.4009 -0.0641  0.3427
 6834TIP3    H141993   3.611   4.258  14.774  0.5487  0.7939  0.0842
 6834TIP3    H241994   3.522   4.284  14.653 -0.5759 -1.4121  0.3982
 6835TIP3   OH241995   0.535   2.349   3.460  0.0154 -0.7554 -0.0741
 6835TIP3    H141996   0.553   2.360   3.366  0.4573 -1.4117 -0.0711
 6835TIP3    H241997   0.556   2.434   3.498  3.6568 -1.5071 -0.0146
 6836TIP3   OH241998   3.051   1.759   5.844  0.4079 -0.1597 -0.1357
 6836TIP3    H141999   3.144   1.741   5.836  0.2301 -0.7465 -1.0282
 6836TIP3    H242000   3.021   1.698   5.911 -0.0463 -2.9064 -2.6171
 6837TIP3   OH242001   3.390   4.602   2.243 -0.0491  0.2712 -0.2136
 6837TIP3    H142002   3.365   4.648   2.323  0.1708 -0.5322  0.3317
 6837TIP3    H242003   3.483   4.580   2.256 -0.6143 -2.0430  0.4325
 6838TIP3   OH242004   2.637   6.556  16.974 -0.0275  1.1798 -0.1456
 6838TIP3    H142005   2.657   6.646  17.001  1.1060  0.8080  0.2875
 6838TIP3    H242006   2.589   6.566  16.892 -1.0629  2.2253  0.5442
 6839TIP3   OH242007   5.718   3.825   5.964 -0.0433 -0.1490  0.0111
 6839TIP3    H142008   5.751   3.736   5.951  0.2911 -0.0274  0.0216
 6839TIP3    H242009   5.698   3.830   6.057 -0.7131 -0.4323 -0.1104
 6840TIP3   OH242010   6.588   6.599   2.901 -0.1001 -0.0996 -0.1832
 6840TIP3    H142011   6.496   6.585   2.923  0.8621 -1.0413  4.1765
 6840TIP3    H242012   6.618   6.514   2.869 -0.1534 -0.6809  1.2383
 6841TIP3   OH242013   1.842   2.801  13.399  0.2451 -0.4099  0.5107
 6841TIP3    H142014   1.752   2.823  13.424  0.3975 -0.1642  0.8499
 6841TIP3    H242015   1.875   2.881  13.357  0.8109  0.0421  1.7713
 6842TIP3   OH242016   4.426   1.128  15.050 -0.3366  0.8779 -0.2018
 6842TIP3    H142017   4.445   1.205  14.995  1.7071  0.4571 -0.1469
 6842TIP3    H242018   4.459   1.152  15.136 -1.0530  0.4764  0.1919
 6843TIP3   OH242019   1.326   1.642   1.653 -0.1311  0.0142  0.2674
 6843TIP3    H142020   1.392   1.682   1.596  0.0390 -0.5204  0.0903
 6843TIP3    H242021   1.244   1.654   1.605  0.1290 -1.2708 -0.5548
 6844TIP3   OH242022   0.369   1.491   4.933  0.7240  0.2961  0.0684
 6844TIP3    H142023   0.325   1.527   5.011  1.3150 -1.3654  1.2202
 6844TIP3    H242024   0.460   1.519   4.943  0.8627 -0.1732  0.1552
 6845TIP3   OH242025   4.967   1.129  12.063 -0.0507  0.1383 -0.0612
 6845TIP3    H142026   4.976   1.221  12.039  0.2965  0.3827  0.9719
 6845TIP3    H242027   5.050   1.107  12.106 -0.6180 -0.3063  0.8240
 6846TIP3   OH242028   1.519   6.275   1.624 -0.5941 -0.5593  0.0938
 6846TIP3    H142029   1.529   6.350   1.683  0.3818 -0.0165 -0.7379
 6846TIP3    H242030   1.606   6.261   1.588 -1.5553  0.5483 -2.9265
 6847TIP3   OH242031   0.257   5.275  11.026  0.6075 -0.1133 -0.3630
 6847TIP3    H142032   0.270   5.352  10.971  1.4139  1.1326  1.4682
 6847TIP3    H242033   0.227   5.310  11.110  0.9907 -1.7968  0.5153
 6848TIP3   OH242034   3.649   4.517   2.293 -0.1249 -0.7098  0.3662
 6848TIP3    H142035   3.724   4.552   2.340 -1.5249  0.7644  1.6008
 6848TIP3    H242036   3.683   4.440   2.247  2.3171  0.3921  0.1950
 6849TIP3   OH242037   3.564   3.898  15.736  0.2626 -0.2763  0.3978
 6849TIP3    H142038   3.626   3.958  15.695  1.3879 -1.6934 -0.1041
 6849TIP3    H242039   3.478   3.925  15.704  0.8435  0.4503 -0.5917
 6850TIP3   OH242040   6.215   5.031  13.628  0.3256  0.2243  0.2187
 6850TIP3    H142041   6.185   5.041  13.718 -0.2884  1.0505 -0.0620
 6850TIP3    H242042   6.139   4.995  13.581  0.7462 -0.5207  0.0886
 6851TIP3   OH242043   3.154   6.747   1.436 -0.1774  0.4902 -0.4768
 6851TIP3    H142044   3.124   6.828   1.476  1.6282  1.2438 -0.5643
 6851TIP3    H242045   3.199   6.774   1.356  0.2226 -0.6124 -0.6487
 6852TIP3   OH242046   3.097   5.799   3.695 -0.1882  0.2598 -0.1830
 6852TIP3    H142047   3.040   5.822   3.768  1.3950  1.9689  0.5964
 6852TIP3    H242048   3.127   5.711   3.715 -1.1455  0.0275  0.2952
 6853TIP3   OH242049   5.614   3.053  15.833 -0.5436  0.4858 -0.0427
 6853TIP3    H142050   5.564   3.026  15.756 -0.0333 -0.1787 -0.1494
 6853TIP3    H242051   5.596   2.986  15.898  0.2892  0.1747 -0.1216
 6854TIP3   OH242052   4.768   6.508   1.889 -0.7285  0.7598 -0.6490
 6854TIP3    H142053   4.833   6.449   1.850  0.0260  1.2696 -0.1872
 6854TIP3    H242054   4.740   6.464   1.969  0.8680  1.6289  0.4331
 6855TIP3   OH242055   4.438   1.012   1.025  0.1511  0.2925  0.2810
 6855TIP3    H142056   4.478   1.097   1.044  2.9501 -0.6634 -0.8853
 6855TIP3    H242057   4.380   1.030   0.951  2.4246  0.8736 -1.4736
 6856TIP3   OH242058   0.176   6.695  11.299  0.1048  0.7413 -0.2281
 6856TIP3    H142059   0.243   6.725  11.361  1.3923 -1.8374 -0.2382
 6856TIP3    H242060   0.179   6.599  11.305 -1.7582  0.4862 -2.1882
 6857TIP3   OH242061   0.641   0.058  12.960 -0.3114  0.4271  0.3244
 6857TIP3    H142062   0.628  -0.031  12.994  0.9185  0.8094  1.9739
 6857TIP3    H242063   0.727   0.083  12.994 -0.5741  2.1906 -0.2420
 6858TIP3   OH242064   0.935   2.024   0.278 -0.2867  0.3451 -0.2401
 6858TIP3    H142065   1.024   1.988   0.271 -0.6486 -1.0412  1.5461
 6858TIP3    H242066   0.879   1.955   0.241 -0.6157  1.5148 -2.0429
 6859TIP3   OH242067   4.412   4.710   5.881 -0.0015  0.2136  0.2422
 6859TIP3    H142068   4.407   4.725   5.975 -2.7093  2.0986 -0.1089
 6859TIP3    H242069   4.395   4.616   5.871  0.5421 -0.0599  1.6093
 6860TIP3   OH242070   5.048   3.172   2.990  0.0726  0.0483 -0.3449
 6860TIP3    H142071   5.036   3.245   3.051 -0.1965  0.3765 -0.7857
 6860TIP3    H242072   5.136   3.139   3.010  0.5363  1.0349 -0.7142
 6861TIP3   OH242073   3.411   4.918   0.412 -0.0195  0.2930 -0.3564
 6861TIP3    H142074   3.457   5.002   0.420 -0.9995  0.8610 -0.6358
 6861TIP3    H242075   3.444   4.881   0.330  2.0509 -0.6360  0.8112
 6862TIP3   OH242076   2.437   3.303   2.686  0.1569  0.6843  0.1144
 6862TIP3    H142077   2.516   3.249   2.683 -0.6584 -0.6685  1.6787
 6862TIP3    H242078   2.374   3.257   2.631 -0.2336  0.5290  0.6776
 6863TIP3   OH242079   6.423   2.292  15.268 -0.2569 -0.1392 -0.1763
 6863TIP3    H142080   6.447   2.380  15.238  1.3383 -1.0965 -1.8718
 6863TIP3    H242081   6.462   2.233  15.204 -1.8585 -2.0879  0.5476
 6864TIP3   OH242082   3.654   2.110  11.807 -0.3912 -0.8659 -0.4598
 6864TIP3    H142083   3.626   2.023  11.776 -0.0691 -0.9369 -0.5592
 6864TIP3    H242084   3.725   2.091  11.867 -1.0910 -0.7342  0.4258
 6865TIP3   OH242085   0.261   4.483   1.586 -0.0971 -0.6703 -0.3667
 6865TIP3    H142086   0.347   4.516   1.558  1.3572 -2.5468  1.5978
 6865TIP3    H242087   0.215   4.561   1.618  0.8925  0.3549 -1.3443
 6866TIP3   OH242088   2.508   4.173  14.232  0.1955 -0.1816 -0.1503
 6866TIP3    H142089   2.534   4.251  14.182 -0.1317 -1.8045 -3.0464
 6866TIP3    H242090   2.590   4.136  14.263  0.5109  0.1723 -0.5576
 6867TIP3   OH242091   6.427   3.467   0.051  0.3040  0.5326  0.2033
 6867TIP3    H142092   6.494   3.401   0.071 -0.0685  0.4370  1.2158
 6867TIP3    H242093   6.477   3.544   0.022  0.8185  0.2477  0.3177
 6868TIP3   OH242094   5.524   4.643  11.812 -0.1363 -0.6036 -0.7073
 6868TIP3    H142095   5.550   4.713  11.872  0.1675 -0.8251 -0.5803
 6868TIP3    H242096   5.466   4.587  11.864 -0.6364 -0.2682 -0.9044
 6869TIP3   OH242097   3.228   1.140  16.575 -0.3442 -0.5192  0.4120
 6869TIP3    H142098   3.167   1.091  16.519 -0.1029 -0.2883 -0.0569
 6869TIP3    H242099   3.315   1.109  16.550 -0.0081  1.6462 -1.4543
 6870TIP3   OH242100   3.460   5.094   0.806 -0.5850 -0.0071  0.0743
 6870TIP3    H142101   3.379   5.063   0.766 -0.3083  0.3554 -0.7773
 6870TIP3    H242102   3.441   5.096   0.900 -2.3837  2.4067 -0.2499
 6871TIP3   OH242103   4.487   4.912  16.296 -0.2565  0.2755 -0.1632
 6871TIP3    H142104   4.491   4.848  16.226  0.1043  0.8213 -0.6502
 6871TIP3    H242105   4.538   4.873  16.368 -0.7622 -0.3524 -0.1398
 6872TIP3   OH242106   3.028   1.520  14.848  0.2175 -0.2126  0.5254
 6872TIP3    H142107   2.948   1.539  14.897 -0.5741 -2.3099  0.1609
 6872TIP3    H242108   3.008   1.547  14.758 -0.0191 -0.5425  0.4764
 6873TIP3   OH242109   4.900   1.165  16.708  0.3104  0.0982  0.0778
 6873TIP3    H142110   4.967   1.107  16.671 -0.5524 -0.6222 -0.4121
 6873TIP3    H242111   4.822   1.148  16.655 -0.9801 -0.9433  2.1697
 6874TIP3   OH242112   5.472   2.759  15.450  0.8173  0.6428  0.0139
 6874TIP3    H142113   5.526   2.767  15.529  0.0419  1.2011  0.5052
 6874TIP3    H242114   5.386   2.734  15.482  0.8244 -0.4680 -0.7813
 6875TIP3   OH242115   5.941   0.304   6.460  0.4875 -0.3925  0.2675
 6875TIP3    H142116   5.947   0.219   6.503  2.1175 -0.9554 -0.9722
 6875TIP3    H242117   5.886   0.356   6.518  1.4048 -1.5472  2.2945
 6876TIP3   OH242118   2.175   2.971   3.242  0.0634 -0.5834 -0.4864
 6876TIP3    H142119   2.269   2.969   3.222  0.6608  1.5504  1.6522
 6876TIP3    H242120   2.138   3.029   3.176  0.8584  1.1005  0.4734
 6877TIP3   OH242121   1.423   4.920  17.015 -0.7398 -0.2002  0.5134
 6877TIP3    H142122   1.395   4.952  16.929 -1.5699  1.3948  1.3304
 6877TIP3    H242123   1.513   4.950  17.023 -0.3501 -1.1424 -0.1462
 6878TIP3   OH242124   1.868   3.182   0.604  0.4514  0.1284  0.9705
 6878TIP3    H142125   1.803   3.203   0.537  0.7926  0.9707  0.8878
 6878TIP3    H242126   1.837   3.101   0.643 -0.1613  0.0356  0.3110
 6879TIP3   OH242127   5.552   1.589  14.108  0.7944  0.0865 -0.3384
 6879TIP3    H142128   5.508   1.653  14.163  1.2112  1.2105 -1.2846
 6879TIP3    H242129   5.592   1.527  14.170 -0.7178 -0.0379  0.5592
 6880TIP3   OH242130   6.188   1.132   5.848  0.4781  0.9649 -0.2748
 6880TIP3    H142131   6.254   1.157   5.912  0.3466 -1.2154  0.8042
 6880TIP3    H242132   6.116   1.195   5.861  1.6884  2.4440 -0.4658
 6881TIP3   OH242133   6.522   3.756  15.592 -0.2319 -0.3170  0.6003
 6881TIP3    H142134   6.535   3.663  15.612 -0.4932 -1.0181 -2.1076
 6881TIP3    H242135   6.609   3.795  15.602 -0.1513 -0.7771  1.9121
 6882TIP3   OH242136   3.875   6.046   4.607 -0.3889  0.4462 -0.1539
 6882TIP3    H142137   3.893   6.026   4.699  0.9948  0.6810 -0.3494
 6882TIP3    H242138   3.893   6.139   4.599  0.5948  0.2116 -0.8873
 6883TIP3   OH242139   2.171   3.182  13.546  0.2200 -0.0706  0.0658
 6883TIP3    H142140   2.237   3.178  13.614  1.3779  0.4762 -0.9889
 6883TIP3    H242141   2.120   3.260  13.566  1.2914  0.7545 -0.3202
 6884TIP3   OH242142   4.334   3.245  13.270 -0.0335 -0.4186  0.2936
 6884TIP3    H142143   4.423   3.237  13.304  1.0785  0.5667 -2.1612
 6884TIP3    H242144   4.340   3.214  13.180 -1.6620  1.6968 -0.6289
 6885TIP3   OH242145   3.648   3.030   2.565 -0.1487 -0.4468  0.0258
 6885TIP3    H142146   3.686   2.944   2.545 -2.4128 -1.2537 -1.3175
 6885TIP3    H242147   3.634   3.070   2.479 -1.3232  0.1979  0.4886
 6886TIP3   OH242148   0.058   4.867  15.374  0.1706 -0.4482  0.9848
 6886TIP3    H142149  -0.034   4.892  15.380 -0.4917 -2.4593  0.1796
 6886TIP3    H242150   0.074   4.858  15.280  0.7514 -1.5454  1.1750
 6887TIP3   OH242151   6.709   3.403  15.861  0.1681  0.3356  0.0331
 6887TIP3    H142152   6.655   3.363  15.929  0.4980  0.5177  0.4014
 6887TIP3    H242153   6.647   3.433  15.795 -0.0635 -1.8515 -0.8496
 6888TIP3   OH242154   6.382   2.044  15.671 -0.4279 -0.2622  0.4303
 6888TIP3    H142155   6.476   2.038  15.652 -0.2460  0.6934  0.9804
 6888TIP3    H242156   6.378   2.078  15.760 -1.3066 -0.0417  0.3138
 6889TIP3   OH242157   0.768   5.523   5.322 -0.5313 -0.1134  0.0096
 6889TIP3    H142158   0.790   5.479   5.404  0.9115  2.7574  1.3050
 6889TIP3    H242159   0.673   5.538   5.327 -0.4791 -0.1087  1.0987
 6890TIP3   OH242160   0.663   2.509   5.148  0.2819  0.4616  0.3781
 6890TIP3    H142161   0.684   2.463   5.229 -1.0691 -0.8212  0.0299
 6890TIP3    H242162   0.745   2.509   5.099  0.9262  0.6143  1.4054
 6891TIP3   OH242163   1.473   3.466  14.351 -0.4602 -0.0173  0.3027
 6891TIP3    H142164   1.382   3.443  14.370 -0.1923  0.1224  1.9308
 6891TIP3    H242165   1.508   3.391  14.304 -0.8414 -1.0289  1.5729
 6892TIP3   OH242166   4.151   3.624   4.018  0.1104 -0.5789  0.1525
 6892TIP3    H142167   4.069   3.575   4.019 -0.8202  0.9021 -0.3823
 6892TIP3    H242168   4.127   3.711   3.986  1.7730  0.1106  0.6575
 6893TIP3   OH242169   4.970   5.212  14.814 -0.1422 -0.0094  0.1043
 6893TIP3    H142170   5.058   5.191  14.847 -0.0581  1.1348  0.6531
 6893TIP3    H242171   4.911   5.171  14.876  0.0076  2.6151  2.1531
 6894TIP3   OH242172   6.326   4.976  11.853  0.0358 -0.1539 -0.2355
 6894TIP3    H142173   6.387   4.903  11.865 -1.4892 -1.7830 -1.8126
 6894TIP3    H242174   6.353   5.017  11.771 -0.9092 -0.8594 -0.9222
 6895TIP3   OH242175   6.275   2.483   3.113 -0.6773  0.5013 -0.2605
 6895TIP3    H142176   6.304   2.563   3.156  0.5491 -0.1504  0.2052
 6895TIP3    H242177   6.339   2.417   3.141 -1.4714 -0.5618 -0.8817
 6896TIP3   OH242178   6.700   2.560  14.302  0.2626  0.1532 -0.0061
 6896TIP3    H142179   6.795   2.568  14.307  0.3005 -0.3409  0.2217
 6896TIP3    H242180   6.680   2.557  14.209  0.3923  1.0733 -0.0653
 6897TIP3   OH242181   2.530   1.467  12.610 -0.4217 -0.0012  0.3721
 6897TIP3    H142182   2.488   1.522  12.676  1.1065 -0.4815  1.8246
 6897TIP3    H242183   2.620   1.500  12.606 -0.7718  0.8894 -2.5042
 6898TIP3   OH242184   0.450   4.754   2.616  0.5213  0.0988  0.5907
 6898TIP3    H142185   0.485   4.740   2.528  0.1381  0.2764  0.4089
 6898TIP3    H242186   0.367   4.705   2.617 -0.4446  1.6669  0.2099
 6899TIP3   OH242187   5.978   1.711  12.478  0.5926 -0.2596 -0.0922
 6899TIP3    H142188   5.980   1.659  12.397 -1.3254  1.7963 -1.6046
 6899TIP3    H242189   5.885   1.715  12.501  0.8138  1.4954  0.6065
 6900TIP3   OH242190   5.226   0.005   2.293  0.5121  0.6796 -0.4177
 6900TIP3    H142191   5.308   0.024   2.338  0.3550  1.0059 -0.2738
 6900TIP3    H242192   5.171   0.081   2.308  0.5322  0.8893 -1.3300
 6901TIP3   OH242193   2.116   5.979  14.513 -0.0686 -0.0119 -0.2693
 6901TIP3    H142194   2.096   5.975  14.420  1.5379  0.1758 -0.6601
 6901TIP3    H242195   2.050   6.038  14.550  0.0364  0.9201 -1.5154
 6902TIP3   OH242196   2.867   2.801  16.109  0.1688 -0.8091 -0.5506
 6902TIP3    H142197   2.824   2.717  16.094  1.9166 -1.3286 -3.4681
 6902TIP3    H242198   2.806   2.850  16.165 -1.0629 -3.8138  0.9794
 6903TIP3   OH242199   5.713   1.323  11.100 -0.6988  0.5349 -0.1276
 6903TIP3    H142200   5.617   1.325  11.102 -0.6979  0.2235  0.8461
 6903TIP3    H242201   5.737   1.374  11.022 -1.6227  1.4631  0.1814
 6904TIP3   OH242202   0.334   0.492  10.544 -0.2085  0.1572 -0.1374
 6904TIP3    H142203   0.394   0.420  10.565 -0.3939  0.4983  1.8251
 6904TIP3    H242204   0.368   0.530  10.463  0.9929 -0.9642 -0.1831
 6905TIP3   OH242205   4.124   1.027   3.485 -0.2860 -0.1640  0.1815
 6905TIP3    H142206   4.131   1.111   3.530 -0.8117  0.4241 -0.7914
 6905TIP3    H242207   4.094   1.050   3.396  1.1184 -1.2391 -0.6038
 6906TIP3   OH242208   3.283   0.759  15.653 -0.4208  0.8224  0.7076
 6906TIP3    H142209   3.232   0.839  15.669  0.4090  1.0499  2.4020
 6906TIP3    H242210   3.350   0.759  15.721 -0.6583 -1.5410  1.0345
 6907TIP3   OH242211   6.456   5.827   0.911  0.0825  0.1625 -0.5475
 6907TIP3    H142212   6.384   5.887   0.932 -0.0726 -0.3686  0.5330
 6907TIP3    H242213   6.428   5.782   0.832 -1.1850 -0.6222  0.3068
 6908TIP3   OH242214   0.143   5.021   3.370 -0.2592 -0.4648 -0.1415
 6908TIP3    H142215   0.056   5.027   3.330 -0.3424 -0.0524  0.0991
 6908TIP3    H242216   0.142   4.938   3.417  0.3814 -1.7674 -2.2735
 6909TIP3   OH242217   5.439   2.570  11.852 -0.2864  0.5049 -0.4227
 6909TIP3    H142218   5.443   2.499  11.916 -0.0811 -0.0910 -1.0935
 6909TIP3    H242219   5.397   2.642  11.900  0.6921  0.3871  0.6730
 6910TIP3   OH242220   0.190   3.515  11.333  0.8276  1.1028 -0.1197
 6910TIP3    H142221   0.152   3.444  11.384  1.3552  2.9872  3.1567
 6910TIP3    H242222   0.205   3.477  11.246 -2.5620 -1.5510  0.2480
 6911TIP3   OH242223   6.339   6.613  17.129 -0.1397  0.4219 -0.6418
 6911TIP3    H142224   6.291   6.695  17.140 -1.5649 -0.2469 -1.5572
 6911TIP3    H242225   6.271   6.549  17.107  0.8729 -1.1148  0.5225
 6912TIP3   OH242226   2.725   0.495   3.956  0.4386  0.6109  0.6911
 6912TIP3    H142227   2.810   0.451   3.951  0.5074  0.7467  0.6829
 6912TIP3    H242228   2.745   0.587   3.966  0.3050  0.7591 -0.2433
 6913TIP3   OH242229   1.779   5.976   2.583  0.2532  0.7857  0.5783
 6913TIP3    H142230   1.870   5.986   2.609 -0.1808  3.1507  1.4526
 6913TIP3    H242231   1.730   5.990   2.664 -0.9203 -0.0796  0.0504
 6914TIP3   OH242232   3.600   3.792  17.147 -0.1899 -0.1192 -0.8227
 6914TIP3    H142233   3.673   3.808  17.208 -1.4548 -0.4384  0.8377
 6914TIP3    H242234   3.573   3.879  17.119  0.2764  0.0439 -0.7780
 6915TIP3   OH242235   4.245   6.214   3.464  0.1626 -0.2327 -0.5391
 6915TIP3    H142236   4.227   6.305   3.441  1.8721  0.4000  0.4635
 6915TIP3    H242237   4.284   6.176   3.386 -0.4267 -0.0898 -0.9112
 6916TIP3   OH242238   6.729   5.015   3.021 -0.2627  0.8527  0.5281
 6916TIP3    H142239   6.680   4.942   2.982  1.1367 -0.1378  0.5504
 6916TIP3    H242240   6.662   5.069   3.063 -1.8040  1.5533 -2.5074
 6917TIP3   OH242241   6.028   0.689  12.882  1.1282  0.1550 -0.5593
 6917TIP3    H142242   6.117   0.725  12.890  0.6634  0.9647  1.5061
 6917TIP3    H242243   5.991   0.734  12.806  2.3814 -0.0485 -1.3355
 6918TIP3   OH242244   6.326   6.667  16.807  0.4283 -0.1564 -0.6887
 6918TIP3    H142245   6.251   6.713  16.845 -1.3954 -3.5475  0.2072
 6918TIP3    H242246   6.333   6.702  16.718 -2.2930  0.2236 -0.8332
 6919TIP3   OH242247   0.809   4.453   2.863 -0.2827 -0.0332 -0.1479
 6919TIP3    H142248   0.781   4.544   2.853  0.1194  0.1317  0.2261
 6919TIP3    H242249   0.845   4.431   2.777  0.3994  0.4311  0.0154
 6920TIP3   OH242250   2.386   6.527   6.013  0.0468 -0.2059  0.2730
 6920TIP3    H142251   2.416   6.459   6.073  0.0225  0.3852  0.9557
 6920TIP3    H242252   2.302   6.557   6.049 -0.8448 -1.0322 -0.9854
 6921TIP3   OH242253   2.343   5.627  13.396 -0.0651  0.0192  0.4062
 6921TIP3    H142254   2.280   5.698  13.399  0.1484  0.3456 -1.3618
 6921TIP3    H242255   2.291   5.549  13.376  0.0936  0.4770 -2.2848
 6922TIP3   OH242256   0.044   6.260   0.664  0.2065  0.2520 -0.1955
 6922TIP3    H142257   0.126   6.303   0.689 -0.1974  0.6374  0.5078
 6922TIP3    H242258   0.069   6.197   0.598  1.1165  0.1861  0.2000
 6923TIP3   OH242259   5.029   2.023  10.526  0.2055  0.3439 -0.1349
 6923TIP3    H142260   5.040   2.119  10.529  1.5771  0.2320 -0.7843
 6923TIP3    H242261   5.019   2.003  10.433 -0.5192 -0.1159  0.0348
 6924TIP3   OH242262   0.724   2.575   3.500  0.3552 -0.4959  0.0198
 6924TIP3    H142263   0.769   2.490   3.491  1.9108  0.3149 -0.1222
 6924TIP3    H242264   0.765   2.631   3.434 -0.9995  0.2550 -0.2246
 6925TIP3   OH242265   5.079   3.475   3.980  0.0065 -0.0206 -0.3004
 6925TIP3    H142266   5.057   3.412   4.049 -1.5950  0.7225 -0.0981
 6925TIP3    H242267   5.175   3.476   3.979  0.0703 -0.6160  1.4042
 6926TIP3   OH242268   1.683   0.739  16.548  0.0996 -0.7136  0.0161
 6926TIP3    H142269   1.711   0.827  16.574  0.5826 -0.4116 -1.4535
 6926TIP3    H242270   1.761   0.698  16.511 -0.5036 -1.2139 -0.7226
 6927TIP3   OH242271   3.065   0.243   5.025 -0.1937 -0.1085 -0.2082
 6927TIP3    H142272   3.004   0.290   4.967 -1.1261 -0.8120  0.1744
 6927TIP3    H242273   3.048   0.151   5.008 -0.8175 -0.3397  1.5007
 6928TIP3   OH242274   3.706   2.533  11.158 -0.3659  0.6571  0.1117
 6928TIP3    H142275   3.686   2.440  11.153  0.9958  0.4157 -1.9057
 6928TIP3    H242276   3.645   2.574  11.097  1.9877  0.4585 -2.5597
 6929TIP3   OH242277   4.600   3.716  16.062  0.0533  0.7763 -0.1335
 6929TIP3    H142278   4.657   3.688  15.991 -0.7451  0.7143 -0.7622
 6929TIP3    H242279   4.528   3.654  16.062  1.3734 -0.9466  2.5626
 6930TIP3   OH242280   6.387   5.158  11.141  0.1413 -0.2690 -0.0688
 6930TIP3    H142281   6.294   5.176  11.155  0.5225  0.8810  1.2296
 6930TIP3    H242282   6.414   5.218  11.071  0.2700  0.6575  0.7519
 6931TIP3   OH242283   5.487   1.407   1.751 -0.2692  0.2682 -0.3270
 6931TIP3    H142284   5.549   1.362   1.694  1.0733  0.3780  0.9870
 6931TIP3    H242285   5.456   1.482   1.699  2.6939  1.7373 -0.1587
 6932TIP3   OH242286   0.189   4.261   4.225  0.1192 -0.2205 -0.0166
 6932TIP3    H142287   0.124   4.233   4.290 -3.3339 -2.0796 -3.7863
 6932TIP3    H242288   0.250   4.187   4.219  0.7052  0.1293  1.2748
 6933TIP3   OH242289   3.103   1.754  11.336 -0.4338 -0.3998  0.0800
 6933TIP3    H142290   3.057   1.803  11.404  0.3668 -1.0089  1.0913
 6933TIP3    H242291   3.165   1.817  11.299 -0.1986 -0.3158  0.5975
 6934TIP3   OH242292   2.919   2.841  15.309  0.4181  0.1309  0.2833
 6934TIP3    H142293   2.948   2.766  15.257 -0.1909  0.7097 -0.9377
 6934TIP3    H242294   2.887   2.803  15.391 -0.2515 -0.9934 -0.4650
 6935TIP3   OH242295   5.337   0.187   6.140  0.5215 -0.2773  0.0297
 6935TIP3    H142296   5.269   0.156   6.200  1.0378 -1.6852 -0.0551
 6935TIP3    H242297   5.393   0.110   6.127  2.2198  0.8831  0.2095
 6936TIP3   OH242298   6.323   2.833  15.504  0.2463 -0.0942  0.6062
 6936TIP3    H142299   6.333   2.739  15.491 -1.0420 -0.1487 -0.2320
 6936TIP3    H242300   6.280   2.863  15.424 -1.3823  0.8334  1.7633
 6937TIP3   OH242301   0.271   6.470   1.446  0.1926  0.1345 -0.2333
 6937TIP3    H142302   0.179   6.486   1.464 -0.5066  0.1578 -3.1872
 6937TIP3    H242303   0.288   6.384   1.485 -1.0289  0.1970  0.4929
 6938TIP3   OH242304   0.250   5.069  12.845  0.5301 -0.4875  0.2930
 6938TIP3    H142305   0.236   4.975  12.855  0.5778 -0.7357 -1.5963
 6938TIP3    H242306   0.329   5.076  12.792  0.4169  0.6048  0.2465
 6939TIP3   OH242307   1.614   4.434   3.448  0.1267  0.1388 -0.1298
 6939TIP3    H142308   1.660   4.474   3.522 -0.2852  0.0621  0.1672
 6939TIP3    H242309   1.526   4.471   3.451  0.2814  0.6015 -0.9468
 6940TIP3   OH242310   2.667   5.275   5.781 -0.9035  0.1853 -0.2869
 6940TIP3    H142311   2.622   5.277   5.696 -0.9264 -0.3005 -0.2916
 6940TIP3    H242312   2.615   5.213   5.834 -1.5364  1.3102  0.4528
 6941TIP3   OH242313   4.078   6.543  14.769 -0.2878 -0.0600  0.3255
 6941TIP3    H142314   4.138   6.471  14.790 -0.3186  0.1740  1.2872
 6941TIP3    H242315   4.122   6.621  14.801 -0.2546  0.3638 -0.7208
 6942TIP3   OH242316   4.507   0.002   3.635 -0.0800  0.0952 -0.2484
 6942TIP3    H142317   4.560  -0.033   3.564 -0.7504 -2.0564  0.2391
 6942TIP3    H242318   4.422  -0.041   3.624 -1.0645  1.8460  0.2387
 6943TIP3   OH242319   1.833   1.647  17.094 -0.1326 -0.1147  0.3951
 6943TIP3    H142320   1.842   1.653  17.189  0.5569  0.1665  0.3155
 6943TIP3    H242321   1.743   1.618  17.081 -0.0518 -0.7354  1.1498
 6944TIP3   OH242322   4.681   0.461  13.582 -0.0301  0.0111  0.3242
 6944TIP3    H142323   4.765   0.415  13.577 -0.4280 -1.1096  2.6227
 6944TIP3    H242324   4.703   0.552  13.561  1.4723 -0.5281 -0.6182
 6945TIP3   OH242325   0.720   3.696  15.559 -0.3872 -0.1350 -0.8792
 6945TIP3    H142326   0.664   3.768  15.588  1.0139  0.9523 -0.7611
 6945TIP3    H242327   0.705   3.626  15.622  0.6098  1.2331  0.9657
 6946TIP3   OH242328   1.684   4.962  14.614  0.2963 -0.7252  0.6090
 6946TIP3    H142329   1.712   4.871  14.628  1.7805 -0.2063  1.2922
 6946TIP3    H242330   1.751   5.014  14.659 -0.3150  0.7219 -0.1015
 6947TIP3   OH242331   2.589   5.566  11.544  0.6081  0.5518  0.3933
 6947TIP3    H142332   2.649   5.599  11.611 -1.4453  1.3883  1.9309
 6947TIP3    H242333   2.519   5.631  11.540  0.0204 -0.1135 -1.7049
 6948TIP3   OH242334   3.881   6.035  14.680 -0.4858 -0.5865  0.3023
 6948TIP3    H142335   3.890   6.088  14.759  0.7829 -2.2645  1.3544
 6948TIP3    H242336   3.825   5.962  14.706 -1.2829 -0.3862 -0.7904
 6949TIP3   OH242337   3.083   2.449  15.379  0.6700  0.1755  0.5256
 6949TIP3    H142338   3.026   2.451  15.303  1.5205 -0.2906 -0.1394
 6949TIP3    H242339   3.035   2.498  15.446  0.5959  2.0005 -0.7820
 6950TIP3   OH242340   1.404   1.231   4.571  0.3161  0.2088 -0.2275
 6950TIP3    H142341   1.430   1.231   4.479  0.3542 -1.0179 -0.2277
 6950TIP3    H242342   1.460   1.297   4.612  0.5611  0.4918 -1.0148
 6951TIP3   OH242343   5.821   1.229  14.044  0.2905  0.7665 -0.1109
 6951TIP3    H142344   5.916   1.219  14.051  0.1154 -0.5213  0.6646
 6951TIP3    H242345   5.800   1.296  14.109  0.3881 -0.9107  1.7467
 6952TIP3   OH242346   5.805   1.418   1.345 -0.3749 -0.2829 -0.0572
 6952TIP3    H142347   5.875   1.409   1.410 -0.1601 -0.4803 -0.3116
 6952TIP3    H242348   5.851   1.418   1.261 -0.6992 -0.6601 -0.2378
 6953TIP3   OH242349   1.970   5.512  16.040  0.6845 -0.4439  0.1848
 6953TIP3    H142350   2.052   5.557  16.056  0.9143 -0.7554 -0.1025
 6953TIP3    H242351   1.910   5.546  16.106  0.9725 -0.0309  0.2327
 6954TIP3   OH242352   4.122   1.261  15.978  0.2622  0.0951 -0.0117
 6954TIP3    H142353   4.210   1.275  15.941 -0.1653 -1.6562 -1.8715
 6954TIP3    H242354   4.122   1.170  16.005  0.5927  1.2859  4.8206
 6955TIP3   OH242355   0.776   2.573   4.247  0.9351  0.6397 -0.3699
 6955TIP3    H142356   0.777   2.484   4.282  1.7950  0.1201 -1.6168
 6955TIP3    H242357   0.855   2.614   4.282  1.7778  0.1305 -1.5851
 6956TIP3   OH242358   1.289   2.422   3.471 -0.2320 -0.4900 -0.6269
 6956TIP3    H142359   1.364   2.428   3.529  0.1554  0.0278 -1.1633
 6956TIP3    H242360   1.219   2.387   3.525  0.1128  0.0114  0.1619
 6957TIP3   OH242361   0.286   6.729   4.817  0.3081  0.4465 -0.2618
 6957TIP3    H142362   0.227   6.724   4.892 -0.6780  0.1111 -1.0414
 6957TIP3    H242363   0.328   6.814   4.825  0.4264  0.2990  0.8163
 6958TIP3   OH242364   2.940   3.792   3.205 -0.6307  0.0321  0.2156
 6958TIP3    H142365   2.888   3.714   3.225 -0.2427 -0.8057 -1.7328
 6958TIP3    H242366   2.902   3.826   3.124 -0.4429  1.5698  0.7411
 6959TIP3   OH242367   3.084   4.768  16.950 -0.0892 -1.1838  0.3432
 6959TIP3    H142368   3.161   4.824  16.959 -1.7128  1.1389  0.6587
 6959TIP3    H242369   3.098   4.721  16.868  1.5482 -0.6358  0.2755
 6960TIP3   OH242370   3.376   5.844   5.406  0.3869 -0.5346 -0.1619
 6960TIP3    H142371   3.425   5.851   5.324  1.8403  1.5646  0.7972
 6960TIP3    H242372   3.316   5.919   5.405 -0.1396 -0.9346  0.3683
 6961TIP3   OH242373   3.778   1.787  12.874  0.0242  0.6129 -0.2591
 6961TIP3    H142374   3.727   1.831  12.943  0.5239  0.1156  0.4352
 6961TIP3    H242375   3.867   1.820  12.884  0.2736 -0.0779 -0.1328
 6962TIP3   OH242376   0.739   6.725  14.308  0.1711  0.0185  0.6648
 6962TIP3    H142377   0.698   6.702  14.225  1.0474 -0.1286  0.2538
 6962TIP3    H242378   0.666   6.741  14.368 -0.4701 -0.4657  0.0307
 6963TIP3   OH242379   3.210   6.489  17.071 -0.1972 -0.3631 -0.5503
 6963TIP3    H142380   3.158   6.563  17.103  0.2479 -0.8695  1.4541
 6963TIP3    H242381   3.301   6.519  17.076  0.1567 -1.5931  2.1017
 6964TIP3   OH242382   5.040   6.091   3.890 -0.6846 -0.0530 -0.4652
 6964TIP3    H142383   5.095   6.018   3.918 -1.5199 -0.4229  0.2638
 6964TIP3    H242384   5.074   6.167   3.937 -0.7163 -0.2602 -0.1035
 6965TIP3   OH242385   0.107   0.545  13.012 -0.6466 -0.4852  0.0853
 6965TIP3    H142386   0.169   0.475  12.993  0.4387  0.4113  0.2576
 6965TIP3    H242387   0.102   0.596  12.931 -1.8987 -1.0807 -0.2423
 6966TIP3   OH242388   6.648   1.849  16.963  0.0558  0.2030 -0.1939
 6966TIP3    H142389   6.684   1.846  16.874  0.1437 -0.4681 -0.1421
 6966TIP3    H242390   6.646   1.942  16.985  3.0184  0.2621  0.2845
 6967TIP3   OH242391   4.423   4.486  14.234  0.1776  0.0571 -0.3642
 6967TIP3    H142392   4.342   4.459  14.277 -0.3433 -0.1710 -1.4549
 6967TIP3    H242393   4.408   4.577  14.209  0.3712  0.1023 -0.3228
 6968TIP3   OH242394   0.748   1.897   0.649  0.1754  0.0606  0.0680
 6968TIP3    H142395   0.706   1.905   0.564 -0.6116  1.0257  0.5208
 6968TIP3    H242396   0.675   1.893   0.711  0.7466  0.5448  0.7810
 6969TIP3   OH242397   5.871   5.504  11.595 -0.4529  0.3071  0.0123
 6969TIP3    H142398   5.964   5.523  11.589  0.0171 -1.4580  0.9631
 6969TIP3    H242399   5.847   5.470  11.508  0.1504 -0.5899  0.1819
 6970TIP3   OH242400   3.010   1.991   0.433  0.2018  0.4597 -0.4678
 6970TIP3    H142401   2.997   2.031   0.519  0.6520  1.6289 -0.9184
 6970TIP3    H242402   3.103   1.968   0.430 -0.2732 -1.8087  0.2421
 6971TIP3   OH242403   6.452   4.576   5.664  0.2427 -0.0815 -0.8087
 6971TIP3    H142404   6.401   4.496   5.670 -0.0212  0.1876  2.1580
 6971TIP3    H242405   6.393   4.640   5.624 -0.3913 -0.7621 -0.9654
 6972TIP3   OH242406   6.196   5.599   0.925 -0.4444  0.3243  0.4110
 6972TIP3    H142407   6.272   5.541   0.934 -2.5159 -2.5513  0.6970
 6972TIP3    H242408   6.225   5.666   0.864  2.4009 -0.4761  0.7228
 6973TIP3   OH242409   5.763   4.800  12.909 -0.0955  0.5267  0.6073
 6973TIP3    H142410   5.693   4.743  12.943 -0.5213  0.3649 -0.4886
 6973TIP3    H242411   5.831   4.739  12.880  0.5003  0.6832  1.6264
 6974TIP3   OH242412   3.358   2.251  12.471  0.2747 -0.4573  0.7686
 6974TIP3    H142413   3.392   2.341  12.463 -0.3407 -0.2381  0.5824
 6974TIP3    H242414   3.299   2.254  12.546 -0.0430 -0.6121  0.5275
 6975TIP3   OH242415   2.231   3.986   2.745  0.1897 -0.0049  0.4535
 6975TIP3    H142416   2.229   3.963   2.838 -0.0436 -1.6367  0.0884
 6975TIP3    H242417   2.255   3.904   2.701  0.7932  0.8559 -0.8985
 6976TIP3   OH242418   6.035   5.239   1.284  1.1716  0.2780 -0.1779
 6976TIP3    H142419   6.064   5.149   1.268  1.3250  0.7349 -3.0523
 6976TIP3    H242420   6.109   5.293   1.256  0.2261  1.3015 -0.7821
 6977TIP3   OH242421   4.459   0.807  14.756  0.2283  0.1528  0.4933
 6977TIP3    H142422   4.379   0.802  14.703  0.5346  0.4754 -0.0099
 6977TIP3    H242423   4.459   0.726  14.806 -1.1840  0.8004  1.6143
 6978TIP3   OH242424   2.357   0.886  15.199  0.6356 -0.6392  0.2192
 6978TIP3    H142425   2.379   0.962  15.252 -1.9561  0.2473  0.1527
 6978TIP3    H242426   2.386   0.909  15.111  0.4973 -0.0268  0.3296
 6979TIP3   OH242427   3.814   1.559  11.086  0.4125  0.9526 -0.6537
 6979TIP3    H142428   3.802   1.616  11.162 -0.5433 -0.6105  0.4501
 6979TIP3    H242429   3.729   1.557  11.043  0.5540  0.6920 -0.9306
 6980TIP3   OH242430   1.326   6.812  11.881  0.2370  0.0770  0.1666
 6980TIP3    H142431   1.369   6.891  11.914  0.4826 -0.5219  1.3350
 6980TIP3    H242432   1.237   6.817  11.916  0.4598 -0.4992  0.8276
 6981TIP3   OH242433   5.286   4.163  11.382 -0.3799 -0.4103 -0.8621
 6981TIP3    H142434   5.355   4.212  11.426 -0.7144 -0.9283  0.3077
 6981TIP3    H242435   5.214   4.226  11.371  0.6577  0.4699 -3.1998
 6982TIP3   OH242436   5.112   6.525   5.134 -0.0182  0.2141  0.0083
 6982TIP3    H142437   5.203   6.549   5.154  0.4967 -1.9911  0.5344
 6982TIP3    H242438   5.103   6.540   5.040  0.9549  0.2700 -0.0858
 6983TIP3   OH242439   5.808   1.186  10.658 -0.2763  0.4413  0.1514
 6983TIP3    H142440   5.719   1.150  10.649 -0.2489  0.1015  1.0905
 6983TIP3    H242441   5.818   1.243  10.582 -0.4206 -1.3405 -1.2895
 6984TIP3   OH242442   6.065   1.009  12.950 -0.3851 -0.2728  0.1542
 6984TIP3    H142443   6.073   1.092  12.996 -0.7578  1.0718 -2.0755
 6984TIP3    H242444   6.127   1.016  12.877  0.5235 -2.5033  0.6246
 6985TIP3   OH242445   4.677   5.360  14.321 -0.0042 -0.3318  1.1484
 6985TIP3    H142446   4.666   5.266  14.307  1.5213 -0.4935  0.9388
 6985TIP3    H242447   4.665   5.399  14.234  3.0894 -0.7252  0.4587
 6986TIP3   OH242448   3.900   3.160  16.339 -0.3285  0.6837 -0.5545
 6986TIP3    H142449   3.918   3.170  16.433 -2.0057  1.0536 -0.2330
 6986TIP3    H242450   3.895   3.250  16.307  0.0219  0.5599 -0.9558
 6987TIP3   OH242451   1.443   2.809   5.450 -0.5709 -0.0399  0.2604
 6987TIP3    H142452   1.479   2.722   5.431 -2.2758 -0.5621 -0.9014
 6987TIP3    H242453   1.484   2.867   5.386  0.1113 -0.1107  0.6315
 6988TIP3   OH242454   0.979   0.008   2.350  0.1070  0.1766 -0.0530
 6988TIP3    H142455   0.900  -0.002   2.298  0.9960 -1.1001 -1.2410
 6988TIP3    H242456   1.004   0.100   2.337 -0.5708  0.2969 -0.5672
 6989TIP3   OH242457   1.977   3.697   1.700 -0.0897 -0.0464  0.2263
 6989TIP3    H142458   1.920   3.621   1.701  0.6352 -0.6274  2.4400
 6989TIP3    H242459   1.919   3.771   1.716 -0.4889 -0.4222  0.5303
 6990TIP3   OH242460   6.095   6.686   3.104 -0.0036 -0.3875 -0.5055
 6990TIP3    H142461   6.093   6.591   3.088 -0.0686 -0.3564 -0.6884
 6990TIP3    H242462   6.007   6.715   3.082 -0.0948 -0.3404 -0.0880
 6991TIP3   OH242463   0.280   0.778   1.123  0.3178  0.6090  0.0944
 6991TIP3    H142464   0.272   0.836   1.047 -0.8657  0.1009 -0.1941
 6991TIP3    H242465   0.246   0.830   1.196  0.0963  0.5926  0.0037
 6992TIP3   OH242466   3.803   4.350  14.119 -0.1747 -0.1458  0.3250
 6992TIP3    H142467   3.859   4.345  14.197 -0.5071 -0.2421  0.5645
 6992TIP3    H242468   3.859   4.324  14.047  0.4052  0.8840  0.3913
 6993TIP3   OH242469   0.842   6.032   3.259 -0.4525  0.0645 -0.1603
 6993TIP3    H142470   0.832   5.948   3.214  0.1911 -0.1488  0.0920
 6993TIP3    H242471   0.930   6.030   3.295 -0.5244  0.7474  0.0660
 6994TIP3   OH242472   5.788   3.630   0.481  0.3122 -0.0605  0.0269
 6994TIP3    H142473   5.837   3.613   0.561  0.1215 -0.7743 -0.0051
 6994TIP3    H242474   5.848   3.605   0.410  0.4559  0.5054 -0.0541
 6995TIP3   OH242475   3.112   5.237   2.614 -0.4713  0.3007  0.4214
 6995TIP3    H142476   3.132   5.329   2.597 -1.6576  0.7670  1.3661
 6995TIP3    H242477   3.195   5.191   2.605 -0.2107  1.1340 -2.1007
 6996TIP3   OH242478   4.222   6.113  11.556  0.3832 -0.3132  0.9433
 6996TIP3    H142479   4.151   6.119  11.492  1.4219 -2.5737 -0.5258
 6996TIP3    H242480   4.273   6.193  11.541  0.6818 -0.8353 -1.2118
 6997TIP3   OH242481   2.026   5.670  15.027 -0.5776 -0.0848 -0.3373
 6997TIP3    H142482   1.997   5.601  14.967  0.6921 -0.1279 -0.9191
 6997TIP3    H242483   2.121   5.673  15.017 -0.5648  1.4260  0.0423
 6998TIP3   OH242484   5.286   0.628   5.539  0.6527  0.1667 -0.5481
 6998TIP3    H142485   5.295   0.679   5.458  1.0507  0.9260 -0.0333
 6998TIP3    H242486   5.375   0.601   5.560  0.2220 -3.2889 -2.3757
 6999TIP3   OH242487   2.019   3.635  13.807 -0.1344 -0.0455  0.1561
 6999TIP3    H142488   2.088   3.665  13.867 -1.3939  3.1534  0.2211
 6999TIP3    H242489   1.943   3.621  13.863 -0.2652 -0.9429 -0.2342
 7000TIP3   OH242490   4.542   6.285   1.662  0.1032 -0.5276 -0.2282
 7000TIP3    H142491   4.467   6.280   1.721  1.0005 -1.2443  0.9005
 7000TIP3    H242492   4.557   6.379   1.650  0.0299 -0.3696  0.8621
 7001TIP3   OH242493   2.645   6.153   1.627  0.5562 -0.7193 -0.3501
 7001TIP3    H142494   2.716   6.164   1.563  1.3679  0.3856  0.6843
 7001TIP3    H242495   2.684   6.181   1.710 -0.9644 -0.5514  0.3317
 7002TIP3   OH242496   5.621   2.839   0.981 -0.1899  0.5696 -0.3884
 7002TIP3    H142497   5.528   2.861   0.981 -0.6771 -1.2851 -1.2210
 7002TIP3    H242498   5.642   2.820   1.073 -0.7604  0.5438 -0.2602
 7003TIP3   OH242499   1.380   5.364  11.300  0.2562  0.0633  0.5618
 7003TIP3    H142500   1.287   5.340  11.300  0.1245  0.4220  2.1445
 7003TIP3    H242501   1.381   5.455  11.272  0.1967 -0.1035  0.0013
 7004TIP3   OH242502   4.953   6.458  12.256  0.1751  0.3240  0.0687
 7004TIP3    H142503   4.987   6.415  12.177  0.6561 -0.1158  0.5032
 7004TIP3    H242504   5.006   6.422  12.327 -1.1252 -0.2856  0.7622
 7005TIP3   OH242505   1.474   3.046  12.577 -0.2989 -0.0209 -0.3651
 7005TIP3    H142506   1.388   3.046  12.621 -0.3024 -0.8746 -0.3579
 7005TIP3    H242507   1.521   2.974  12.617  0.7731  0.9910  0.2691
 7006TIP3   OH242508   4.066   1.908   4.875 -0.2456 -0.1698 -0.3907
 7006TIP3    H142509   4.144   1.927   4.823 -0.9695  0.1009 -1.3931
 7006TIP3    H242510   4.101   1.889   4.963  0.9136  0.3057 -0.7246
 7007TIP3   OH242511   1.000   2.938  13.564 -0.5175 -0.3232 -0.3896
 7007TIP3    H142512   0.941   2.945  13.489  0.7578  1.6035 -1.2696
 7007TIP3    H242513   1.078   2.986  13.539  0.0461  0.2312  2.1203
 7008TIP3   OH242514   3.813   0.095  16.073 -0.3117 -0.1883 -0.4280
 7008TIP3    H142515   3.901   0.129  16.057 -0.3001  0.6318  1.1863
 7008TIP3    H242516   3.758   0.173  16.076 -0.8249 -0.5643  0.0928
 7009TIP3   OH242517   3.119   2.402  10.769  0.2476  0.3615 -0.1662
 7009TIP3    H142518   3.041   2.348  10.766 -0.3941  1.1412  1.4785
 7009TIP3    H242519   3.092   2.485  10.729  0.6426  0.1981 -0.8009
 7010TIP3   OH242520   0.000   3.772   0.459  0.6094 -0.5739  0.0191
 7010TIP3    H142521  -0.070   3.833   0.436  2.0258  1.3357  0.5293
 7010TIP3    H242522  -0.040   3.712   0.522 -0.9540 -0.4762 -0.8461
 7011TIP3   OH242523   5.941   1.007   0.701 -0.7946  0.8503 -0.0481
 7011TIP3    H142524   5.943   0.939   0.634  2.1863 -0.5197  1.2292
 7011TIP3    H242525   5.848   1.017   0.723 -1.4749 -1.5745 -1.5036
 7012TIP3   OH242526   2.258   3.120  16.376  0.6598 -0.5395  0.2513
 7012TIP3    H142527   2.172   3.087  16.401  0.5950  0.4362  1.3952
 7012TIP3    H242528   2.278   3.188  16.440  2.0235 -0.3244 -0.3520
 7013TIP3   OH242529   4.243   5.777   2.869  0.3137 -0.3697 -0.3672
 7013TIP3    H142530   4.247   5.731   2.785  0.4249  2.0942 -1.8133
 7013TIP3    H242531   4.271   5.712   2.933  0.6942 -2.2109 -2.2787
 7014TIP3   OH242532   0.562   5.546   0.837  0.1104 -0.1726 -0.1766
 7014TIP3    H142533   0.650   5.579   0.823 -0.2931  1.6723  1.2613
 7014TIP3    H242534   0.521   5.610   0.895 -1.1222 -2.6158  1.9137
 7015TIP3   OH242535   1.074   3.631  15.714 -0.1033 -0.4765 -0.4071
 7015TIP3    H142536   1.170   3.637  15.718 -0.2362  1.4238  2.7218
 7015TIP3    H242537   1.054   3.542  15.742  0.7341 -0.2822  0.8836
 7016TIP3   OH242538   5.183   1.447   2.560  0.3134 -0.4082 -1.1270
 7016TIP3    H142539   5.193   1.477   2.469  0.1337 -0.6510 -1.2294
 7016TIP3    H242540   5.222   1.516   2.613  0.1617 -0.1289 -1.3759
 7017TIP3   OH242541   4.342   2.474  16.317 -0.3839  0.4214 -0.8628
 7017TIP3    H142542   4.290   2.541  16.274 -0.8081  0.5698 -0.1431
 7017TIP3    H242543   4.289   2.395  16.311 -0.5086  0.4745 -0.5032
 7018TIP3   OH242544   1.866   6.276  12.167 -0.0890 -0.5454  0.4884
 7018TIP3    H142545   1.874   6.369  12.148  0.0215 -0.4784  0.8495
 7018TIP3    H242546   1.876   6.233  12.082 -3.3959 -0.1006 -0.2641
 7019TIP3   OH242547   2.576   0.028   3.986 -0.0935 -0.6925  0.2947
 7019TIP3    H142548   2.633   0.064   3.917 -0.8708  1.4930  0.7331
 7019TIP3    H242549   2.637  -0.005   4.051  0.6705 -0.5555 -0.3271
 7020TIP3   OH242550   0.874   6.241   1.320  0.0245  0.3831 -0.4698
 7020TIP3    H142551   0.943   6.249   1.254 -0.1520 -0.3073 -0.7479
 7020TIP3    H242552   0.804   6.298   1.288  0.0375  0.2428 -0.7503
 7021TIP3   OH242553   2.379   0.609  15.251  0.1511 -0.1892 -0.9056
 7021TIP3    H142554   2.356   0.585  15.341  1.0450 -0.6062 -0.7718
 7021TIP3    H242555   2.373   0.705  15.250  1.4273 -0.0711 -0.0026
 7022TIP3   OH242556   1.775   4.868   5.556 -0.3905 -0.2356 -0.0771
 7022TIP3    H142557   1.756   4.867   5.463  1.8195  0.4550 -0.6111
 7022TIP3    H242558   1.694   4.899   5.597 -0.9062  1.0825 -1.9238
 7023TIP3   OH242559   5.371   6.317  14.723  0.5974  0.4132 -0.1518
 7023TIP3    H142560   5.430   6.318  14.647 -0.5884 -0.0680 -1.1090
 7023TIP3    H242561   5.316   6.395  14.711 -1.3807 -1.0593 -1.2988
 7024TIP3   OH242562   3.281   4.821  16.237 -0.0231  0.3090  0.1956
 7024TIP3    H142563   3.211   4.863  16.288 -0.6479  0.2908 -0.6213
 7024TIP3    H242564   3.310   4.888  16.176  1.5865  0.7315  1.3605
 7025TIP3   OH242565   4.089   5.660   1.718  0.3473 -0.1040 -0.2454
 7025TIP3    H142566   4.112   5.656   1.626 -1.3930  1.9994 -0.8726
 7025TIP3    H242567   4.152   5.603   1.762  1.3263 -1.0143 -2.6882
 7026TIP3   OH242568   0.426   0.317   0.931  0.0096  0.3325 -0.0500
 7026TIP3    H142569   0.514   0.331   0.895  1.0791 -1.5076  1.6457
 7026TIP3    H242570   0.371   0.380   0.885  2.1829  1.4545 -1.2690
 7027TIP3   OH242571   4.734   1.077   3.027 -0.0341  0.2773  0.1635
 7027TIP3    H142572   4.769   1.084   2.938  0.3088 -1.5659  0.1213
 7027TIP3    H242573   4.793   1.017   3.072 -1.2467 -0.2819  1.0855
 7028TIP3   OH242574   0.880   1.478   0.611  0.1073  0.0091  0.1807
 7028TIP3    H142575   0.934   1.534   0.666 -0.7789  0.7152  0.3662
 7028TIP3    H242576   0.899   1.389   0.640  0.4780  0.3047  0.8559
 7029TIP3   OH242577   1.243   4.200   4.369  0.0193 -0.2419  0.1472
 7029TIP3    H142578   1.276   4.264   4.433  0.2316 -1.8557  1.7256
 7029TIP3    H242579   1.317   4.187   4.309 -0.4989  1.9962 -1.0733
 7030TIP3   OH242580   6.520   4.053   5.189 -0.2951  0.1683  0.4801
 7030TIP3    H142581   6.457   4.124   5.182  0.6265  1.1403  1.5846
 7030TIP3    H242582   6.547   4.036   5.099 -2.0437 -0.2327 -0.0060
 7031TIP3   OH242583   0.317   1.888   3.482  0.0697  0.2644  0.1752
 7031TIP3    H142584   0.331   1.964   3.538 -0.0686 -0.1952  0.8509
 7031TIP3    H242585   0.390   1.889   3.420 -0.3419  1.3641 -0.3217
 7032TIP3   OH242586   0.742   3.293   2.624 -0.0630 -0.2668 -0.0248
 7032TIP3    H142587   0.658   3.282   2.580 -1.1449  1.6201  1.4162
 7032TIP3    H242588   0.797   3.337   2.559 -0.5393 -0.5180 -0.6142
 7033TIP3   OH242589   0.877   0.587  11.934 -0.0965 -0.8386  0.7331
 7033TIP3    H142590   0.856   0.536  12.012  1.0942 -0.4480  1.3270
 7033TIP3    H242591   0.934   0.530  11.882 -0.6139 -0.9691  0.2994
 7034TIP3   OH242592   3.252   5.882   1.518 -0.0283 -0.1964  0.0994
 7034TIP3    H142593   3.287   5.896   1.606  1.5849 -0.7692 -0.4019
 7034TIP3    H242594   3.177   5.940   1.512  1.1639  1.5397  1.0977
 7035TIP3   OH242595   2.889   5.322   5.204 -0.1316 -0.2435 -0.2458
 7035TIP3    H142596   2.862   5.270   5.279 -0.3298 -0.0649 -0.1923
 7035TIP3    H242597   2.959   5.379   5.238  0.5116 -0.8920 -0.4482
 7036TIP3   OH242598   4.575   0.241   2.487  0.0782 -0.0438 -0.3899
 7036TIP3    H142599   4.523   0.216   2.411  1.1166 -3.6780 -0.1169
 7036TIP3    H242600   4.660   0.264   2.451 -0.5487  2.2353 -0.5456
 7037TIP3   OH242601   3.939   1.977  15.305  0.3443  0.5283 -0.0853
 7037TIP3    H142602   3.890   1.919  15.363  0.4259  1.7339  1.2446
 7037TIP3    H242603   3.890   1.974  15.222  0.8745 -2.1192 -0.3972
 7038TIP3   OH242604   0.281   4.908  11.184  0.0132  0.5406  0.1945
 7038TIP3    H142605   0.349   4.860  11.231 -0.3081 -0.0535  0.0552
 7038TIP3    H242606   0.216   4.842  11.160  0.0973  0.8602 -0.9618
 7039TIP3   OH242607   2.397   0.894   1.254 -0.1164  0.0957  0.5257
 7039TIP3    H142608   2.448   0.925   1.329  0.0975  1.6356 -0.2104
 7039TIP3    H242609   2.460   0.886   1.183 -0.7631  1.6802 -0.2997
 7040TIP3   OH242610   2.801   2.250  13.118 -0.0226 -0.5668 -0.4196
 7040TIP3    H142611   2.865   2.253  13.190  0.7623  1.3689 -1.1354
 7040TIP3    H242612   2.727   2.301  13.150  0.5930  0.8446 -1.1921
 7041TIP3   OH242613   3.613   4.228   0.753 -0.2837  0.2515  0.0794
 7041TIP3    H142614   3.546   4.191   0.696  0.2536  1.5474 -1.4646
 7041TIP3    H242615   3.584   4.318   0.769 -0.3381 -0.0322  1.7557
 7042TIP3   OH242616   1.863   0.513  15.022  0.7995 -0.5990  0.4817
 7042TIP3    H142617   1.874   0.423  14.992  2.1478 -0.5633  0.8371
 7042TIP3    H242618   1.783   0.510  15.075  0.6109 -1.4981  0.1706
 7043TIP3   OH242619   6.168   3.876  14.984  0.1191  0.0520  0.2897
 7043TIP3    H142620   6.103   3.875  15.055 -1.3117  1.9270 -0.8980
 7043TIP3    H242621   6.207   3.963  14.989  2.0454 -0.7677  0.4611
 7044TIP3   OH242622   4.463   4.768   2.490 -0.1634  0.0326  0.4790
 7044TIP3    H142623   4.379   4.723   2.489  0.9642 -2.2333 -0.2723
 7044TIP3    H242624   4.503   4.747   2.406  1.0423  1.2955  0.6969
 7045TIP3   OH242625   2.626   2.288  14.424  0.3638  0.2150 -0.1550
 7045TIP3    H142626   2.615   2.290  14.329  0.3616 -1.6769 -0.2299
 7045TIP3    H242627   2.566   2.219  14.454  0.4896  0.6612  1.2139
 7046TIP3   OH242628   5.686   2.412   3.816  0.3658  0.2300  0.2915
 7046TIP3    H142629   5.620   2.409   3.886  0.8621 -1.3175  0.7549
 7046TIP3    H242630   5.646   2.463   3.747 -2.4318 -2.7007 -0.4762
 7047TIP3   OH242631   1.141   2.264   0.111  0.3472 -0.4150  0.2991
 7047TIP3    H142632   1.065   2.291   0.162 -0.0865  0.6634 -0.8831
 7047TIP3    H242633   1.105   2.207   0.043  1.0179 -2.5272  1.5985
 7048TIP3   OH242634   6.466   0.943  11.012  0.0179  0.1753 -0.5024
 7048TIP3    H142635   6.378   0.953  11.047  0.6149  1.5999  0.7151
 7048TIP3    H242636   6.479   0.848  11.007 -1.5631 -0.0626 -0.7313
 7049TIP3   OH242637   5.155   5.611   1.532  0.0399  0.1163 -0.4588
 7049TIP3    H142638   5.177   5.618   1.439  3.9692 -0.1128  0.2813
 7049TIP3    H242639   5.111   5.527   1.540 -0.7450  0.3221 -2.1283
 7050TIP3   OH242640   2.565   3.717   3.501  0.0193 -0.1695  0.1526
 7050TIP3    H142641   2.617   3.639   3.481 -0.4044 -0.6301  0.7981
 7050TIP3    H242642   2.502   3.687   3.567  0.9721  1.1245  1.7287
 7051TIP3   OH242643   1.938   0.708  16.740 -0.0899  0.5601  0.0912
 7051TIP3    H142644   1.877   0.760  16.792 -0.0890  0.2212  0.4302
 7051TIP3    H242645   2.016   0.763  16.733 -0.3603  0.9144 -0.1813
 7052TIP3   OH242646   4.804   1.954  12.976 -0.3135  0.2907 -0.2002
 7052TIP3    H142647   4.725   1.914  13.014  0.5710 -0.3224  1.0577
 7052TIP3    H242648   4.792   1.945  12.881 -2.6764  2.0277 -0.1598
 7053TIP3   OH242649   4.516   6.345  11.349 -0.2735  0.4321 -0.1408
 7053TIP3    H142650   4.468   6.427  11.361 -1.1312 -0.1196  0.3472
 7053TIP3    H242651   4.562   6.333  11.432  0.0757  0.5635 -0.3172
 7054TIP3   OH242652   5.522   3.633   5.155  0.0781 -0.1042  0.2310
 7054TIP3    H142653   5.432   3.626   5.188 -0.4497 -0.4727 -1.2052
 7054TIP3    H242654   5.574   3.581   5.216 -0.4084  1.3650  1.9687
 7055TIP3   OH242655   6.436   6.720  11.596  0.8668 -0.0492  0.5041
 7055TIP3    H142656   6.480   6.753  11.518  0.2634 -2.2445 -0.8614
 7055TIP3    H242657   6.353   6.767  11.600 -0.1452 -1.5207 -1.5981
 7056TIP3   OH242658   6.818   4.207  13.983  0.0246  0.0176  0.2146
 7056TIP3    H142659   6.862   4.284  13.947  0.1550  0.0659  0.4747
 7056TIP3    H242660   6.725   4.231  13.985 -0.0703 -0.2292 -0.7050
 7057TIP3   OH242661   4.870   5.283   1.072 -0.8270 -0.1088  0.0777
 7057TIP3    H142662   4.917   5.208   1.036  0.5584  0.8012 -0.0612
 7057TIP3    H242663   4.806   5.306   1.004 -1.6610 -1.4693  0.3526
 7058TIP3   OH242664   3.280   5.795   2.963  0.2649  0.5629  0.2128
 7058TIP3    H142665   3.294   5.704   2.986  0.2824  0.1190 -1.3896
 7058TIP3    H242666   3.190   5.798   2.929  0.8737  0.7036 -1.5078
 7059TIP3   OH242667   3.047   5.440   4.830 -0.0110 -0.3269 -0.5588
 7059TIP3    H142668   3.107   5.409   4.762  0.0655  0.7236 -0.9778
 7059TIP3    H242669   3.098   5.433   4.911  0.7959  0.8204 -0.9457
 7060TIP3   OH242670   4.473   4.944   1.923 -0.2425 -0.2957  0.3114
 7060TIP3    H142671   4.546   4.967   1.865 -0.6988 -0.5643 -0.3810
 7060TIP3    H242672   4.512   4.945   2.011  1.0809 -2.3511 -0.1854
 7061TIP3   OH242673   1.414   6.390   0.853  0.7235 -0.6489  0.0051
 7061TIP3    H142674   1.471   6.466   0.842  1.5288 -0.9018  2.0505
 7061TIP3    H242675   1.438   6.332   0.781  1.2767  0.3066 -0.6073
 7062TIP3   OH242676   0.443   5.654   4.378  0.2771 -0.0607  0.0292
 7062TIP3    H142677   0.514   5.660   4.443  1.0514  2.2566 -0.9181
 7062TIP3    H242678   0.463   5.723   4.315 -0.7865 -1.8281 -2.3734
 7063TIP3   OH242679   2.260   5.521   6.549 -0.8770  0.1627  0.0642
 7063TIP3    H142680   2.322   5.591   6.529 -0.4064 -0.7115 -1.7388
 7063TIP3    H242681   2.224   5.496   6.464 -0.8072 -1.9801  0.6062
 7064TIP3   OH242682   3.869   0.436   0.745  0.1087  0.3520  0.2251
 7064TIP3    H142683   3.962   0.457   0.730 -0.1947  2.1378  0.6220
 7064TIP3    H242684   3.871   0.358   0.800  1.3874  0.5906  0.5491
 7065TIP3   OH242685   2.878   2.292  13.896 -0.1260 -0.1083  0.3837
 7065TIP3    H142686   2.949   2.271  13.957 -0.6751 -2.3157  0.3200
 7065TIP3    H242687   2.830   2.363  13.938  1.4236  0.6508  0.9517
 7066TIP3   OH242688   1.629   2.943   4.657  0.5943 -0.0046  0.2742
 7066TIP3    H142689   1.649   2.977   4.745  0.9104  1.1116 -0.2068
 7066TIP3    H242690   1.700   2.882   4.639  1.6968  1.3056 -0.0073
 7067TIP3   OH242691   1.612   4.286  13.656 -0.2916  0.4735  0.3008
 7067TIP3    H142692   1.545   4.346  13.688 -0.5180 -0.2084  1.1495
 7067TIP3    H242693   1.577   4.251  13.574 -0.8976  0.2668  0.6413
 7068TIP3   OH242694   2.072   1.959  13.053  0.4414 -0.0452 -0.8275
 7068TIP3    H142695   2.028   1.884  13.093  0.9007  0.5246  0.7901
 7068TIP3    H242696   2.036   2.035  13.098  0.1998  0.7152 -2.2451
 7069TIP3   OH242697   3.317   5.558   3.209 -0.2340  0.0323  0.3008
 7069TIP3    H142698   3.226   5.545   3.180 -0.6418 -0.4036  1.6774
 7069TIP3    H242699   3.352   5.469   3.218 -0.9289 -0.0480  3.4137
 7070TIP3   OH242700   3.731   3.084   1.416 -0.0926 -0.7121 -0.2288
 7070TIP3    H142701   3.664   3.075   1.484  1.1238 -0.8679  0.9939
 7070TIP3    H242702   3.728   3.001   1.368 -0.5364 -0.8562  0.0430
 7071TIP3   OH242703   1.105   3.253  15.518  0.2212  0.4678  0.4575
 7071TIP3    H142704   1.071   3.165  15.503  2.5474 -0.2089 -1.4328
 7071TIP3    H242705   1.165   3.244  15.592 -0.7100  0.8727  1.3045
 7072TIP3   OH242706   2.182   4.663   3.847  0.4566 -0.4277 -0.1955
 7072TIP3    H142707   2.272   4.634   3.859  1.0092  1.2530 -0.0319
 7072TIP3    H242708   2.181   4.753   3.879 -1.3387 -0.4823  0.0033
 7073TIP3   OH242709   2.013   1.422   1.208  0.5693  0.4024 -0.1729
 7073TIP3    H142710   2.019   1.391   1.298 -1.3288 -0.6207 -0.3391
 7073TIP3    H242711   1.968   1.351   1.162  3.0233  0.1261 -2.3446
 7074TIP3   OH242712   4.909   6.619   5.892  0.1091 -0.8695 -0.0330
 7074TIP3    H142713   4.822   6.645   5.863 -0.2311 -2.0153 -0.0879
 7074TIP3    H242714   4.935   6.551   5.830  0.7081 -1.0947  0.4597
 7075TIP3   OH242715   0.206   1.166  11.741 -0.1817  0.4873  0.2018
 7075TIP3    H142716   0.223   1.197  11.830 -0.0231 -1.5037  0.9082
 7075TIP3    H242717   0.133   1.106  11.750  0.9478 -1.0928 -0.7146
 7076TIP3   OH242718   4.705   6.652   4.673 -0.0124 -0.5056  0.3337
 7076TIP3    H142719   4.720   6.732   4.622 -1.0166 -0.3300  0.2886
 7076TIP3    H242720   4.721   6.581   4.611  4.3789 -0.5601  1.2223
 7077TIP3   OH242721   2.357   3.199  13.801  0.4885 -0.1941 -0.5870
 7077TIP3    H142722   2.424   3.131  13.811  0.1661 -0.6086 -1.1867
 7077TIP3    H242723   2.282   3.168  13.852  0.9787  0.6129  0.6860
 7078TIP3   OH242724   0.568   3.144  12.517  0.6766  0.2233  0.5681
 7078TIP3    H142725   0.528   3.071  12.562  0.2286  1.0771  1.5953
 7078TIP3    H242726   0.662   3.137  12.536  0.7165 -0.3966  0.1713
 7079TIP3   OH242727   6.666   4.480   4.349 -0.4922 -0.5067 -0.0184
 7079TIP3    H142728   6.680   4.552   4.287 -1.0578 -0.4791 -0.1134
 7079TIP3    H242729   6.571   4.476   4.361 -0.3621 -0.1475  1.2763
 7080TIP3   OH242730   5.908   1.053  12.294  1.0052  0.3882 -0.4007
 7080TIP3    H142731   5.967   1.127  12.308  0.7141  0.5948 -0.2661
 7080TIP3    H242732   5.829   1.075  12.342 -0.1136  1.2249 -2.5252
 7081TIP3   OH242733   0.928   1.605  15.112 -0.5747 -0.5948  0.2860
 7081TIP3    H142734   0.963   1.555  15.038  0.1205 -1.0694  0.9298
 7081TIP3    H242735   0.895   1.686  15.072 -1.1889 -1.3010 -0.6891
 7082TIP3   OH242736   5.587   2.050  17.039  0.5199 -0.7442 -0.1161
 7082TIP3    H142737   5.492   2.058  17.039  0.5962  0.3690 -0.8168
 7082TIP3    H242738   5.603   1.960  17.011 -0.3337 -1.6212  2.0007
 7083TIP3   OH242739   4.697   5.899  13.233  0.0628 -0.5257 -0.1075
 7083TIP3    H142740   4.632   5.967  13.215  0.6249  0.3176  0.9184
 7083TIP3    H242741   4.781   5.942  13.218  0.4021 -1.3470 -0.5885
 7084TIP3   OH242742   1.734   1.650  12.468 -0.2141  0.1616  0.1160
 7084TIP3    H142743   1.776   1.631  12.384 -0.2446  1.0682 -0.1106
 7084TIP3    H242744   1.644   1.670  12.446  0.1555  2.0082  0.1677
 7085TIP3   OH242745   6.199   5.123   3.266  0.1607 -0.3521  0.6229
 7085TIP3    H142746   6.193   5.135   3.171  0.9031 -0.1272  0.5960
 7085TIP3    H242747   6.262   5.189   3.295 -0.8339  0.2638  1.4284
 7086TIP3   OH242748   2.820   0.208   3.550 -0.4258  0.6046 -0.0532
 7086TIP3    H142749   2.906   0.174   3.574 -0.6694 -0.2030 -0.2926
 7086TIP3    H242750   2.835   0.258   3.470 -0.6595 -2.3836 -2.1372
 7087TIP3   OH242751   3.939   1.985   2.141  0.3213  0.4124  0.3018
 7087TIP3    H142752   4.007   1.931   2.182  1.5835  0.8362 -1.1198
 7087TIP3    H242753   3.978   2.072   2.137 -0.8809  0.9860  0.6935
 7088TIP3   OH242754   3.049   1.138  12.585 -0.0101  0.4280 -0.3770
 7088TIP3    H142755   2.982   1.071  12.598  0.1183  0.3184 -0.2763
 7088TIP3    H242756   3.081   1.157  12.673 -0.4312  1.0213 -0.3466
 7089TIP3   OH242757   2.940   1.746  17.145  0.1516 -0.3943  0.1748
 7089TIP3    H142758   2.852   1.769  17.114 -0.5925 -1.4858  1.3789
 7089TIP3    H242759   2.953   1.800  17.222  0.6638 -0.0259 -0.1675
 7090TIP3   OH242760   0.822   5.444  14.117 -0.3468 -0.1942 -0.3309
 7090TIP3    H142761   0.875   5.479  14.189 -0.1279  1.1490 -1.1189
 7090TIP3    H242762   0.741   5.494  14.120 -1.2798 -1.6821  0.3567
 7091TIP3   OH242763   6.162   2.969   2.742 -0.4932  0.3437 -0.3096
 7091TIP3    H142764   6.148   2.964   2.837 -0.4647  0.1310 -0.3159
 7091TIP3    H242765   6.225   3.040   2.731 -1.3125  1.1099 -0.2542
 7092TIP3   OH242766   4.858   3.206   0.815  0.2142 -0.3187  0.1602
 7092TIP3    H142767   4.829   3.146   0.884 -0.7372  0.9442  0.8872
 7092TIP3    H242768   4.801   3.186   0.741  0.6315 -1.0509  0.0268
 7093TIP3   OH242769   0.321   0.746   4.268  0.0926  0.4074  0.3016
 7093TIP3    H142770   0.262   0.799   4.322  0.6558 -0.3800  1.7394
 7093TIP3    H242771   0.351   0.676   4.327  0.1077 -0.9576 -1.2685
 7094TIP3   OH242772   6.395   5.947  10.567  0.0946  0.2159 -0.5764
 7094TIP3    H142773   6.358   5.859  10.569 -2.7728  1.3190  0.4769
 7094TIP3    H242774   6.439   5.953  10.482  1.1892 -2.4730 -0.2816
 7095TIP3   OH242775   2.239   3.156  12.167  0.1034 -0.6021 -0.2470
 7095TIP3    H142776   2.312   3.217  12.174 -0.3162  0.2015 -2.3130
 7095TIP3    H242777   2.168   3.207  12.128 -0.6915 -2.0627 -0.7925
 7096TIP3   OH242778   2.126   1.068  11.838 -0.2945  0.5515 -0.1394
 7096TIP3    H142779   2.193   1.003  11.817 -3.0553 -3.3151  1.7989
 7096TIP3    H242780   2.152   1.104  11.922 -0.3394 -0.5376  0.3491
 7097TIP3   OH242781   6.808   3.038   1.310  0.0292  0.2377 -0.3362
 7097TIP3    H142782   6.747   2.963   1.316 -0.7623  0.9357  0.6100
 7097TIP3    H242783   6.776   3.100   1.375 -0.0141  1.9000 -1.8564
 7098TIP3   OH242784   0.862   1.842   1.029  0.2722 -0.4258  0.3369
 7098TIP3    H142785   0.849   1.809   1.118 -0.3098 -1.1980 -0.0288
 7098TIP3    H242786   0.815   1.925   1.028 -1.4305 -1.3472  0.1865
 7099TIP3   OH242787   2.889   2.961  14.509  0.3314 -0.3480  0.1652
 7099TIP3    H142788   2.876   2.893  14.443  2.5416 -1.1832  0.5063
 7099TIP3    H242789   2.804   2.968  14.553 -0.9106 -0.4794 -2.0539
 7100TIP3   OH242790   6.751   0.464  11.768 -0.5297 -0.3546 -0.0545
 7100TIP3    H142791   6.686   0.525  11.801  0.0254  0.3345 -0.2306
 7100TIP3    H242792   6.824   0.469  11.830 -0.4702 -0.8196 -0.0809
 7101TIP3   OH242793   3.397   0.011  13.421  0.2476 -0.5272 -0.0031
 7101TIP3    H142794   3.413  -0.019  13.511  0.6613 -1.3651 -0.3405
 7101TIP3    H242795   3.477   0.057  13.396 -0.1252  0.2825  0.2814
 7102TIP3   OH242796   2.466   5.474  16.386 -0.7121 -0.1261 -0.4468
 7102TIP3    H142797   2.398   5.529  16.348  0.7750  1.2994 -1.1785
 7102TIP3    H242798   2.423   5.431  16.460 -2.0639  1.7358 -0.0697
 7103TIP3   OH242799   2.870   2.354  12.740 -0.3994 -0.8510  0.6097
 7103TIP3    H142800   2.830   2.349  12.653  1.7888 -0.6083 -0.4691
 7103TIP3    H242801   2.804   2.398  12.793 -2.4372 -2.3776 -0.4894
 7104TIP3   OH242802   0.800   6.660   4.885  0.0189  0.0857  0.3432
 7104TIP3    H142803   0.851   6.640   4.807  0.0587 -0.9166  0.6114
 7104TIP3    H242804   0.722   6.605   4.878 -0.8565  1.3082  0.1366
 7105TIP3   OH242805   6.142   0.871  10.943  0.0064  0.2675  0.3537
 7105TIP3    H142806   6.189   0.942  10.900 -0.8818  0.3470 -0.5251
 7105TIP3    H242807   6.210   0.823  10.990  1.3231 -0.6737 -2.2855
 7106TIP3   OH242808   3.592   0.634  14.627  0.3671 -0.2401  0.1596
 7106TIP3    H142809   3.545   0.710  14.661  1.3542  0.6311 -0.3378
 7106TIP3    H242810   3.590   0.646  14.532  0.2379 -1.0375  0.0530
 7107TIP3   OH242811   6.043   5.216   5.937 -0.4117 -0.2488  0.0472
 7107TIP3    H142812   6.111   5.191   6.000 -0.7863 -1.9225 -0.1838
 7107TIP3    H242813   5.988   5.278   5.985  1.5589  1.6027  0.0627
 7108TIP3   OH242814   1.019   4.973  17.113 -0.1364 -0.2219 -0.0658
 7108TIP3    H142815   1.004   4.880  17.093  0.9389 -0.5158  0.4247
 7108TIP3    H242816   1.101   4.974  17.162 -0.3824  0.9477  0.3596
 7109TIP3   OH242817   0.646   5.690  13.077 -0.1950  0.3827 -0.2260
 7109TIP3    H142818   0.607   5.751  13.139 -1.6041  1.6098 -2.1936
 7109TIP3    H242819   0.583   5.618  13.071 -0.6278  0.8201 -1.0477
 7110TIP3   OH242820   0.340   0.009  17.047 -0.1615 -0.2425 -0.6654
 7110TIP3    H142821   0.265  -0.046  17.070  0.2555  0.0032  1.4618
 7110TIP3    H242822   0.372   0.042  17.130  2.1701 -0.1268 -1.5343
 7111TIP3   OH242823   5.282   4.178   2.519 -0.0170  0.0816 -0.1841
 7111TIP3    H142824   5.213   4.244   2.507 -0.1804  0.2516  1.4299
 7111TIP3    H242825   5.276   4.154   2.611  1.1436 -0.9859 -0.3572
 7112TIP3   OH242826   4.029   2.076  16.025  1.3090  0.6112  0.1381
 7112TIP3    H142827   3.979   2.027  16.090  1.6587  1.0926  0.7780
 7112TIP3    H242828   3.975   2.073  15.946  1.2965 -0.7584  0.1679
 7113TIP3   OH242829   5.692   2.615   4.185 -0.1796  0.0552  0.4599
 7113TIP3    H142830   5.599   2.604   4.166 -1.0506  3.8233  1.6072
 7113TIP3    H242831   5.734   2.611   4.099 -1.5330 -0.7639 -0.1961
 7114TIP3   OH242832   3.898   2.105   2.499  0.2853  0.0813 -0.1362
 7114TIP3    H142833   3.897   2.046   2.424 -0.0774 -0.7112  0.4685
 7114TIP3    H242834   3.987   2.096   2.534  0.5272  0.6317 -0.6053
 7115TIP3   OH242835   3.308   2.170  15.527  0.8530 -0.2685  0.0979
 7115TIP3    H142836   3.390   2.217  15.511  0.3589  0.6946  0.2930
 7115TIP3    H242837   3.275   2.149  15.439  1.0617 -0.2076  0.0048
 7116TIP3   OH242838   1.780   1.692   1.656 -0.3812  0.4134 -0.5856
 7116TIP3    H142839   1.789   1.643   1.575  1.6201 -1.8945  0.8819
 7116TIP3    H242840   1.741   1.629   1.717 -0.1034  1.4741  0.7322
 7117TIP3   OH242841   3.754   2.596   6.155 -0.0147 -0.2858  0.0137
 7117TIP3    H142842   3.705   2.519   6.183 -0.7562  0.7598  1.7549
 7117TIP3    H242843   3.702   2.670   6.187  1.5709  0.8970 -0.0392
 7118TIP3   OH242844   2.357   2.185  12.327  0.0860  0.2177 -0.6293
 7118TIP3    H142845   2.390   2.187  12.237 -2.7134 -1.4780 -1.8209
 7118TIP3    H242846   2.428   2.144  12.377  1.8078  1.4222 -1.9544
 7119TIP3   OH242847   3.982   3.626  16.208 -0.5103  0.0598  0.0391
 7119TIP3    H142848   3.967   3.592  16.120 -1.6683  0.0372  0.2322
 7119TIP3    H242849   4.043   3.698  16.196 -0.1864 -0.3271 -0.7007
 7120TIP3   OH242850   4.097   0.662   0.452 -0.1396  0.0419  0.3234
 7120TIP3    H142851   4.031   0.704   0.507 -1.5481 -1.2369 -0.3175
 7120TIP3    H242852   4.085   0.701   0.366  0.0228 -0.1086  0.2323
 7121TIP3   OH242853   2.133   3.866  12.504 -0.2090 -0.3212  0.0273
 7121TIP3    H142854   2.214   3.878  12.554 -0.4012  0.2761  0.2001
 7121TIP3    H242855   2.094   3.953  12.500 -1.6403 -0.8659  1.2820
 7122TIP3   OH242856   0.522   2.757   2.498 -0.0535 -0.2527  0.1307
 7122TIP3    H142857   0.434   2.767   2.534  0.8648  0.9331  2.2418
 7122TIP3    H242858   0.544   2.844   2.464  1.9185  0.9298  3.8390
 7123TIP3   OH242859   5.438   3.629   0.026 -0.1165  0.1135 -0.0310
 7123TIP3    H142860   5.500   3.633  -0.046 -0.7718  0.1748 -0.5995
 7123TIP3    H242861   5.487   3.588   0.097  1.1492  1.7492  0.1253
 7124TIP3   OH242862   3.877   5.469  14.296 -0.2414  0.0797  0.1599
 7124TIP3    H142863   3.835   5.546  14.260 -1.5628 -0.3452  0.7312
 7124TIP3    H242864   3.832   5.453  14.379 -0.5010 -1.7072 -0.2789
 7125TIP3   OH242865   4.650   1.758   5.429  0.4520  0.2514 -0.2417
 7125TIP3    H142866   4.583   1.826   5.431 -0.4700 -0.6318  0.7879
 7125TIP3    H242867   4.698   1.769   5.511  0.9094  0.2551 -0.5093
 7126TIP3   OH242868   3.476   0.030  15.575  0.1557  0.2471  0.6337
 7126TIP3    H142869   3.536  -0.013  15.636 -0.0187  0.9508  1.3235
 7126TIP3    H242870   3.417  -0.040  15.547  0.6472 -0.2252  0.7615
 7127TIP3   OH242871   4.443   3.458  10.218 -0.1845 -0.6558 -0.7651
 7127TIP3    H142872   4.371   3.498  10.267 -0.1652 -1.1273 -0.3402
 7127TIP3    H242873   4.465   3.379  10.268  2.5643  0.9087  0.8050
 7128TIP3   OH242874   0.350   6.547  10.781  0.0407  0.0252 -0.0379
 7128TIP3    H142875   0.388   6.464  10.753  0.7164  0.3160  0.0195
 7128TIP3    H242876   0.256   6.535  10.767 -0.0520 -1.3156  1.3948
 7129TIP3   OH242877   6.575   1.141  12.211 -0.1632  0.3150 -0.2523
 7129TIP3    H142878   6.594   1.200  12.138 -2.7971  0.9569 -0.5166
 7129TIP3    H242879   6.614   1.185  12.287 -0.1535  1.2560 -0.7847
 7130TIP3   OH242880   3.885   5.490   3.465 -0.3589  0.5629 -0.4461
 7130TIP3    H142881   3.833   5.568   3.482  0.0608  0.5192  1.1777
 7130TIP3    H242882   3.838   5.420   3.510 -1.1895 -0.3338 -2.5755
 7131TIP3   OH242883   3.309   5.422   2.949  0.0752 -0.1519  0.0164
 7131TIP3    H142884   3.386   5.389   2.996  0.9210  0.7791 -0.6682
 7131TIP3    H242885   3.253   5.346   2.938  0.3250 -0.6086  1.6150
 7132TIP3   OH242886   1.200   0.020   5.643  0.3566  1.1774  0.1000
 7132TIP3    H142887   1.115   0.060   5.663 -0.0265  0.2942  0.3165
 7132TIP3    H242888   1.180  -0.073   5.633  1.4995  0.7658  1.3873
 7133TIP3   OH242889   3.429   4.897   1.803 -0.1163 -0.3773  0.1908
 7133TIP3    H142890   3.447   4.898   1.709  0.1479  0.4686  0.2442
 7133TIP3    H242891   3.473   4.975   1.837 -1.5987  0.2451  0.7568
 7134TIP3   OH242892   3.504   2.559  13.128  0.2216  0.0546  0.1516
 7134TIP3    H142893   3.557   2.543  13.050  1.0098 -0.4680  0.7771
 7134TIP3    H242894   3.438   2.622  13.100  1.4496  1.0743 -0.5393
 7135TIP3   OH242895   5.932   5.625  16.838  0.5580 -1.0672 -0.6384
 7135TIP3    H142896   5.890   5.694  16.889  1.3930  0.3713 -1.8187
 7135TIP3    H242897   5.886   5.545  16.864 -2.2835  0.2638 -1.1885
 7136TIP3   OH242898   6.569   2.783  13.995  0.2448 -0.6758 -0.2997
 7136TIP3    H142899   6.588   2.690  14.008 -0.7613 -0.8429  0.0861
 7136TIP3    H242900   6.473   2.788  13.988  0.3627  0.1610 -1.7887
 7137TIP3   OH242901   4.986   2.495  11.165  0.1322  0.0188 -0.0460
 7137TIP3    H142902   4.953   2.413  11.128  0.3867  0.0959 -0.4518
 7137TIP3    H242903   5.035   2.469  11.243 -1.1332 -0.0692  0.7447
 7138TIP3   OH242904   0.185   2.714   5.323  0.6166 -0.0275  0.1310
 7138TIP3    H142905   0.234   2.793   5.349 -1.0017  0.6300  1.2888
 7138TIP3    H242906   0.240   2.641   5.352  2.1451  0.6259 -0.9633
 7139TIP3   OH242907   0.153   4.898  16.665  0.2941 -0.1984 -0.2202
 7139TIP3    H142908   0.211   4.837  16.620  1.2887  1.9676 -2.0303
 7139TIP3    H242909   0.210   4.944  16.726 -0.3302 -0.5817  0.6801
 7140TIP3   OH242910   4.871   6.505  14.890 -0.0233 -0.3044 -0.1949
 7140TIP3    H142911   4.844   6.414  14.907 -0.1113 -0.1890  0.2956
 7140TIP3    H242912   4.957   6.512  14.930  0.1755 -0.2908 -0.6142
 7141TIP3   OH242913   3.842   2.525   1.686 -0.0454  0.5830  0.3206
 7141TIP3    H142914   3.927   2.554   1.719 -0.3160 -0.1669  1.7320
 7141TIP3    H242915   3.858   2.439   1.648 -0.3635 -0.1251  1.7107
 7142TIP3   OH242916   3.576   5.977  14.370 -0.0658  0.8489  0.3616
 7142TIP3    H142917   3.614   5.899  14.412  0.6704  0.1454 -1.4832
 7142TIP3    H242918   3.498   5.944  14.325  0.1646  1.1916 -0.3022
 7143TIP3   OH242919   2.100   1.117   0.037  0.0518  0.0925  0.3349
 7143TIP3    H142920   2.043   1.040   0.035  1.0294 -0.6753  0.6705
 7143TIP3    H242921   2.056   1.182  -0.017 -1.4031 -0.2656  1.0336
 7144TIP3   OH242922   1.120   3.599  13.763 -0.3414  0.0031 -0.2989
 7144TIP3    H142923   1.059   3.632  13.697 -0.9943 -1.0254 -0.2299
 7144TIP3    H242924   1.078   3.620  13.847  0.0908  0.5604 -0.2125
 7145TIP3   OH242925   3.328   3.983   4.095  0.2428  0.6884 -0.5586
 7145TIP3    H142926   3.258   4.019   4.040  0.4126 -0.4454 -1.5684
 7145TIP3    H242927   3.348   4.053   4.157 -1.4837  1.2088 -0.5170
 7146TIP3   OH242928   3.033   5.966   2.148  0.1881  0.4302  0.2317
 7146TIP3    H142929   2.957   5.967   2.090  1.5782  1.4514 -1.6833
 7146TIP3    H242930   3.027   6.048   2.197 -0.0911  0.3683  0.3029
 7147TIP3   OH242931   5.613   4.397   4.728  0.4607  0.2253 -0.6570
 7147TIP3    H142932   5.699   4.360   4.747  0.7056  0.9695 -0.2861
 7147TIP3    H242933   5.555   4.354   4.791  1.0265  1.6359  0.9147
 7148TIP3   OH242934   5.982   4.132   3.855 -0.2370  0.0883  0.1619
 7148TIP3    H142935   6.051   4.193   3.882  1.0876 -1.0094 -0.6474
 7148TIP3    H242936   5.975   4.145   3.761  0.9922 -1.8715 -0.2581
 7149TIP3   OH242937   1.912   2.265  12.837  0.1413 -0.3927 -0.0364
 7149TIP3    H142938   1.836   2.309  12.874  0.1824  0.1871 -0.6214
 7149TIP3    H242939   1.985   2.291  12.892  0.4280  1.5068 -1.2466
 7150TIP3   OH242940   3.327   1.794  13.454  0.0777  0.0418 -0.0783
 7150TIP3    H142941   3.250   1.852  13.456  1.1850  1.5586  0.6066
 7150TIP3    H242942   3.371   1.810  13.538  0.5401 -1.6693  0.0384
 7151TIP3   OH242943   4.271   0.212  14.726  0.8389 -0.1899 -0.1236
 7151TIP3    H142944   4.266   0.227  14.631 -0.6288 -0.2597 -0.0810
 7151TIP3    H242945   4.329   0.136  14.734 -0.2373 -1.1665 -1.0995
 7152TIP3   OH242946   2.701   1.779  16.854  0.4314  0.5085  0.0078
 7152TIP3    H142947   2.684   1.810  16.944 -0.1410 -1.4818  0.6441
 7152TIP3    H242948   2.637   1.826  16.801 -0.3525  0.5008  0.9072
 7153TIP3   OH242949   0.603   4.482  14.394 -0.0405  0.3588 -0.0601
 7153TIP3    H142950   0.554   4.482  14.312 -0.2236  0.0066  0.0435
 7153TIP3    H242951   0.679   4.427  14.376  1.4667  2.5964 -0.8664
 7154TIP3   OH242952   2.973   2.595  13.952  0.0007 -0.9840 -0.4811
 7154TIP3    H142953   2.970   2.578  13.858 -2.8975  1.4025 -0.9552
 7154TIP3    H242954   2.903   2.540  13.988 -0.7368  0.1076 -0.1893
 7155TIP3   OH242955   0.649   2.153   1.112 -0.5942 -0.8706  0.2043
 7155TIP3    H142956   0.630   2.217   1.180 -0.9999 -0.4231 -0.3195
 7155TIP3    H242957   0.699   2.201   1.046 -0.9972 -1.0504 -0.2470
 7156TIP3   OH242958   5.639   5.696  16.403 -0.2066  0.1582  0.6732
 7156TIP3    H142959   5.694   5.618  16.391 -1.0512 -0.3081 -0.3081
 7156TIP3    H242960   5.682   5.764  16.350 -1.1045 -0.4943 -0.9731
 7157TIP3   OH242961   4.464   6.245   4.619 -0.1952  0.3195 -0.0604
 7157TIP3    H142962   4.507   6.209   4.541 -0.6729 -1.9155  0.6399
 7157TIP3    H242963   4.535   6.262   4.680 -0.0406 -0.5439  0.0070
 7158TIP3   OH242964   1.031   6.382  12.326 -0.8345 -0.2696  0.6064
 7158TIP3    H142965   0.945   6.418  12.306 -1.3964 -0.9331  1.7339
 7158TIP3    H242966   1.013   6.295  12.363  0.2852 -0.2509  1.2453
 7159TIP3   OH242967   6.073   1.296   4.092 -0.4920  0.4922  0.8418
 7159TIP3    H142968   6.026   1.352   4.030  0.6779  1.8548  1.1430
 7159TIP3    H242969   6.015   1.292   4.168 -0.8517  0.8112  0.5939
 7160TIP3   OH242970   0.587   5.078  15.438  0.2018 -0.1845 -0.3096
 7160TIP3    H142971   0.551   5.060  15.351  1.6404  1.8216 -1.4099
 7160TIP3    H242972   0.674   5.113  15.421  0.5358  0.2298  1.9528
 7161TIP3   OH242973   1.755   1.348   2.458  0.2384  0.6233  0.2565
 7161TIP3    H142974   1.721   1.411   2.395 -1.8681 -0.9183 -0.2607
 7161TIP3    H242975   1.713   1.372   2.541 -1.5499 -0.7202 -0.1900
 7162TIP3   OH242976   3.777   3.237   4.707 -0.0056  0.0661 -0.4053
 7162TIP3    H142977   3.809   3.327   4.702 -0.9328  0.3274 -2.7641
 7162TIP3    H242978   3.847   3.185   4.667  0.6141 -0.3353  1.1243
 7163TIP3   OH242979   4.758   3.781   5.096 -0.1899 -0.3779  0.5248
 7163TIP3    H142980   4.689   3.823   5.046  0.3561  0.0581  0.1189
 7163TIP3    H242981   4.814   3.740   5.030  0.5014  0.1454  0.7717
 7164TIP3   OH242982   0.668   4.793   2.062  0.1307  0.2137 -0.6536
 7164TIP3    H142983   0.584   4.830   2.090  0.2142 -0.2827  0.2617
 7164TIP3    H242984   0.675   4.818   1.969  0.3724  2.8573  0.0021
 7165TIP3   OH242985   0.567   0.971   3.341  0.2123  0.0863  0.1520
 7165TIP3    H142986   0.587   1.035   3.274 -1.4456  0.4870  0.0048
 7165TIP3    H242987   0.570   0.886   3.296  0.3636  0.2443 -0.1340
 7166TIP3   OH242988   2.374   5.830  11.282 -0.5617  0.3618 -0.0225
 7166TIP3    H142989   2.456   5.822  11.330  0.1060  1.7865 -0.8452
 7166TIP3    H242990   2.345   5.740  11.267 -0.5307 -0.1427  2.5429
 7167TIP3   OH242991   6.388   1.157  15.934 -0.4413 -0.1822  0.3171
 7167TIP3    H142992   6.317   1.193  15.881 -0.4210 -0.1998  0.2783
 7167TIP3    H242993   6.468   1.194  15.897 -0.4879  0.6241  0.9748
 7168TIP3   OH242994   0.088   1.626  15.242 -0.6759 -0.4750  0.0431
 7168TIP3    H142995   0.033   1.599  15.316  1.7144 -0.9537  1.7782
 7168TIP3    H242996   0.071   1.719  15.233 -1.1146 -0.4286  1.1276
 7169TIP3   OH242997   3.563   5.883  17.166  0.0253 -0.1560  0.2341
 7169TIP3    H142998   3.605   5.963  17.199  0.3604 -0.6826  1.1406
 7169TIP3    H242999   3.577   5.819  17.236 -0.9909 -0.7661 -0.1070
 7170TIP3   OH243000   3.385   2.161   2.116 -0.0004 -0.4899 -0.0463
 7170TIP3    H143001   3.403   2.068   2.124 -1.9331 -0.8717  0.5042
 7170TIP3    H243002   3.324   2.180   2.187  1.3982  1.5248  0.7161
 7171TIP3   OH243003   0.960   4.114  11.252 -0.0106  0.7094 -0.0509
 7171TIP3    H143004   1.048   4.091  11.222 -0.2459  0.1371 -0.3250
 7171TIP3    H243005   0.905   4.100  11.175 -0.7278 -1.3706  0.7489
 7172TIP3   OH243006   2.264   0.765  15.515 -0.2899 -0.3472  0.1664
 7172TIP3    H143007   2.258   0.849  15.470 -0.3135 -0.0340  0.7479
 7172TIP3    H243008   2.317   0.783  15.593 -1.1162 -0.6468  0.8116
 7173TIP3   OH243009   5.093   4.996  12.799 -0.1109  0.1496 -0.1853
 7173TIP3    H143010   5.052   5.046  12.870 -1.9461  0.0007 -1.0931
 7173TIP3    H243011   5.057   4.908  12.808  0.9831 -0.3261 -0.2752
 7174TIP3   OH243012   3.987   3.731   0.983 -0.3238 -0.2219  0.1044
 7174TIP3    H143013   4.022   3.820   0.987 -0.7225 -0.0784  0.4956
 7174TIP3    H243014   4.040   3.687   0.917  0.2075  0.1606  0.2740
 7175TIP3   OH243015   6.392   5.758  11.693  0.3198  0.0037 -0.2835
 7175TIP3    H143016   6.385   5.829  11.630  0.2639  0.6073  0.3974
 7175TIP3    H243017   6.484   5.732  11.691  0.4991  0.6099  0.0223
 7176TIP3   OH243018   6.446   1.350   1.029  0.1321  0.2437  0.7523
 7176TIP3    H143019   6.397   1.426   0.997  0.2735  0.8396  1.8825
 7176TIP3    H243020   6.379   1.289   1.059 -0.0095 -0.4248 -0.8530
 7177TIP3   OH243021   4.046   6.515   2.034  0.1456  0.5070 -0.2569
 7177TIP3    H143022   4.050   6.421   2.019 -0.3303  0.7543 -2.1229
 7177TIP3    H243023   4.103   6.553   1.967  1.3200  1.5155  1.2328
 7178TIP3   OH243024   5.014   1.233   0.329  0.0868 -0.3280 -0.1085
 7178TIP3    H143025   4.949   1.303   0.320 -2.2818 -2.1243  1.7144
 7178TIP3    H243026   5.048   1.245   0.418 -2.2528 -2.8634  1.2588
 7179TIP3   OH243027   1.748   0.659  11.637 -0.5631 -0.1298  0.3105
 7179TIP3    H143028   1.727   0.693  11.550 -2.5386  0.1101  0.8411
 7179TIP3    H243029   1.841   0.678  11.648 -0.9007  2.4069 -0.6401
 7180TIP3   OH243030   6.323   4.616  12.901 -0.4776 -0.2166  0.1065
 7180TIP3    H143031   6.379   4.675  12.952 -0.5382 -0.6992  0.7306
 7180TIP3    H243032   6.355   4.528  12.922 -1.3576 -0.4838  0.3348
 7181TIP3   OH243033   2.765   5.544  14.542 -0.2416  0.5912  0.1131
 7181TIP3    H143034   2.772   5.635  14.516  0.5269  0.6175  0.3883
 7181TIP3    H243035   2.800   5.541  14.631 -1.0230  0.1650  0.4276
 7182TIP3   OH243036   3.768   5.096  14.748  0.7592 -0.1640  0.1209
 7182TIP3    H143037   3.802   5.019  14.703  1.2113 -1.3866  2.4281
 7182TIP3    H243038   3.689   5.065  14.792 -0.6918  1.4473 -1.2074
 7183TIP3   OH243039   3.849   0.577   4.866 -0.4325  0.8139 -0.6222
 7183TIP3    H143040   3.839   0.564   4.772  1.2870  1.0303 -0.8682
 7183TIP3    H243041   3.875   0.668   4.876  2.5230  0.0402 -0.2845
 7184TIP3   OH243042   1.288   0.773   0.266 -0.0077  0.4551  0.1833
 7184TIP3    H143043   1.238   0.745   0.190 -0.7524  2.5852 -0.1963
 7184TIP3    H243044   1.236   0.746   0.341 -1.6717  2.3801 -0.2022
 7185TIP3   OH243045   6.115   6.443   5.630  0.6367  0.4184  0.0132
 7185TIP3    H143046   6.156   6.372   5.580 -0.6922  0.0767 -0.6473
 7185TIP3    H243047   6.091   6.403   5.713 -0.5125 -0.0665 -0.5251
 7186TIP3   OH243048   4.658   2.736   3.754  0.1289 -0.2046  0.4050
 7186TIP3    H143049   4.702   2.783   3.825 -0.0211  0.8233 -0.1612
 7186TIP3    H243050   4.569   2.721   3.786  0.1287  0.0511  0.5276
 7187TIP3   OH243051   1.507   2.191  13.707  0.2320  0.0846 -0.4577
 7187TIP3    H143052   1.485   2.216  13.797  1.1187  1.0121 -0.4847
 7187TIP3    H243053   1.533   2.099  13.713  1.1397  0.3828  0.3967
 7188TIP3   OH243054   2.459   0.140  13.478  0.1503 -0.0365  0.0123
 7188TIP3    H143055   2.394   0.115  13.544 -1.2520  1.1016 -0.8770
 7188TIP3    H243056   2.489   0.227  13.505  0.5388 -0.1194 -0.1445
 7189TIP3   OH243057   0.604   0.920  12.695 -0.1102  0.4010 -0.1713
 7189TIP3    H143058   0.649   0.856  12.750 -2.7469 -0.8752  0.6427
 7189TIP3    H243059   0.625   0.893  12.605  0.9313  0.0163  0.1779
 7190TIP3   OH243060   1.562   4.237  12.482  0.5614  0.3654  0.0335
 7190TIP3    H143061   1.552   4.158  12.535  0.0467  0.4327  0.0443
 7190TIP3    H243062   1.587   4.206  12.395 -2.6663 -0.0586 -0.8570
 7191TIP3   OH243063   6.608   0.825   6.271 -0.0476 -0.4049 -0.6377
 7191TIP3    H143064   6.536   0.841   6.210  0.3174  1.7667 -0.6037
 7191TIP3    H243065   6.663   0.904   6.264 -0.2862  0.2331  2.8162
 7192TIP3   OH243066   3.150   2.601   1.154  0.1287  0.1193  0.5063
 7192TIP3    H143067   3.237   2.641   1.164  1.1791 -2.2987  2.1179
 7192TIP3    H243068   3.147   2.572   1.063  0.9421  0.4360  0.3672
 7193TIP3   OH243069   1.266   0.915   4.184 -0.9722 -0.3884 -0.1962
 7193TIP3    H143070   1.318   0.837   4.168 -1.2467 -0.8863  1.2095
 7193TIP3    H243071   1.246   0.949   4.096  3.2992  0.9396 -0.8868
 7194TIP3   OH243072   2.604   4.707   2.366 -0.3550 -0.2652  0.0127
 7194TIP3    H143073   2.561   4.645   2.424  0.1831 -1.0102 -0.3688
 7194TIP3    H243074   2.691   4.671   2.352 -0.2894  0.1848 -0.8192
 7195TIP3   OH243075   3.791   4.550  13.520 -0.0604  0.3632  0.6361
 7195TIP3    H143076   3.832   4.463  13.527  0.0677  0.3691  0.0582
 7195TIP3    H243077   3.782   4.564  13.425 -2.0011  0.0836  0.7502
 7196TIP3   OH243078   3.126   0.039  16.878  0.1591  0.2244 -0.3299
 7196TIP3    H143079   3.186   0.110  16.901  0.0693  0.6826 -1.4125
 7196TIP3    H243080   3.146  -0.031  16.939  0.6490  0.9801  0.3922
 7197TIP3   OH243081   0.254   0.353   3.358 -0.7514  0.0914  0.7009
 7197TIP3    H143082   0.280   0.339   3.267 -0.8701  2.0867  0.3105
 7197TIP3    H243083   0.160   0.334   3.360 -1.1411  1.7838 -0.0551
 7198TIP3   OH243084   1.715   1.355   4.810 -0.3792 -0.0258 -0.3760
 7198TIP3    H143085   1.760   1.432   4.846 -0.9680  0.0588  0.1975
 7198TIP3    H243086   1.716   1.368   4.715 -1.7133  1.4067 -0.2312
 7199TIP3   OH243087   4.408   5.407   3.356  0.2223 -0.1835  0.1286
 7199TIP3    H143088   4.403   5.490   3.309  2.7708 -0.4881 -0.8285
 7199TIP3    H243089   4.422   5.341   3.288  1.3885 -0.9787  1.0970
 7200TIP3   OH243090   3.383   5.077   4.183  0.2763  0.2370 -0.8504
 7200TIP3    H143091   3.374   5.159   4.135  0.8945  1.5591  1.1816
 7200TIP3    H243092   3.472   5.048   4.164  0.2788  0.3792 -1.0524
 7201TIP3   OH243093   0.418   0.728   3.066  0.0729 -0.5017 -0.6436
 7201TIP3    H143094   0.355   0.690   3.005  0.4087 -2.1222 -0.0368
 7201TIP3    H243095   0.448   0.653   3.118  0.9688  0.5851  0.4370
 7202TIP3   OH243096   6.706   1.513   2.677  1.0243  0.7322 -0.0618
 7202TIP3    H143097   6.762   1.579   2.637 -0.5902  1.1191 -1.8255
 7202TIP3    H243098   6.619   1.554   2.680  0.0702 -1.1175 -0.8201
 7203TIP3   OH243099   0.133   5.309   4.103  0.3518 -0.0739 -0.5064
 7203TIP3    H143100   0.220   5.296   4.066  0.1417  0.9425 -1.4302
 7203TIP3    H243101   0.149   5.351   4.188  0.8339 -2.3272  0.5860
 7204TIP3   OH243102   3.152   1.879   5.297  0.3881  0.1639 -0.2924
 7204TIP3    H143103   3.109   1.853   5.379  0.3529 -2.8398 -1.1514
 7204TIP3    H243104   3.218   1.811   5.282  1.7144  1.7089 -1.8098
 7205TIP3   OH243105   0.713   6.420  12.603  0.2006 -0.1225 -0.5196
 7205TIP3    H143106   0.738   6.438  12.694  2.3830 -3.1465 -0.3880
 7205TIP3    H243107   0.774   6.473  12.551  0.1117  0.2617 -0.2428
 7206TIP3   OH243108   2.633   6.440  11.933 -0.5863  0.0321  0.7584
 7206TIP3    H143109   2.619   6.345  11.936 -1.1600  0.0905  0.1709
 7206TIP3    H243110   2.704   6.456  11.995 -0.8523 -0.7108  1.2606
 7207TIP3   OH243111   3.566   2.447   5.839 -0.8119  0.0652  0.4457
 7207TIP3    H143112   3.651   2.423   5.804  0.8955  0.9981  3.5020
 7207TIP3    H243113   3.519   2.365   5.849  0.9863 -0.8926  1.5135
 7208TIP3   OH243114   3.029   3.458   0.270  0.4994  0.4621 -0.2966
 7208TIP3    H143115   3.067   3.488   0.352  1.7008 -0.4815 -0.4771
 7208TIP3    H243116   2.960   3.397   0.295 -0.5195  1.7176  0.0286
 7209TIP3   OH243117   0.215   4.720   0.705 -0.3357 -0.2045 -0.5379
 7209TIP3    H143118   0.180   4.807   0.690  0.9171  0.0358 -2.5288
 7209TIP3    H243119   0.300   4.720   0.660  1.2065 -1.4594  2.0881
 7210TIP3   OH243120   2.629   5.486   4.974  0.2958  0.0816  0.2436
 7210TIP3    H143121   2.711   5.524   5.007  0.9829  0.0094 -1.2969
 7210TIP3    H243122   2.636   5.493   4.879 -1.3451 -0.2658  0.0697
 7211TIP3   OH243123   6.475   2.807   5.062 -0.3640  0.2224  0.2600
 7211TIP3    H143124   6.383   2.832   5.069 -0.1966  1.1834 -0.7127
 7211TIP3    H243125   6.516   2.879   5.014  0.9003 -0.1853  0.6780
 7212TIP3   OH243126   1.573   3.289   0.789 -0.0909  0.1591  1.3335
 7212TIP3    H143127   1.625   3.299   0.709  1.3250  1.1973  2.3309
 7212TIP3    H243128   1.550   3.197   0.792  0.8342 -0.1199  0.3283
 7213TIP3   OH243129   2.540   4.444  12.188 -0.0518  0.4954 -0.4003
 7213TIP3    H143130   2.605   4.421  12.254  0.3781 -1.0357 -1.3095
 7213TIP3    H243131   2.460   4.463  12.238  0.7367  1.2009  0.6428
 7214TIP3   OH243132   1.889   0.809  14.961 -0.1437 -0.0410 -0.3380
 7214TIP3    H143133   1.979   0.823  14.992  0.3607  1.9799 -2.4519
 7214TIP3    H243134   1.874   0.715  14.973  1.1850  0.0209  2.6430
 7215TIP3   OH243135   6.552   4.854   3.653 -0.0179 -0.3042 -0.0555
 7215TIP3    H143136   6.568   4.900   3.570  0.1997 -0.2842 -0.0044
 7215TIP3    H243137   6.551   4.762   3.629 -0.3381 -0.2790 -0.1402
 7216TIP3   OH243138   4.619   0.956  13.301  0.2326  0.2753  0.1123
 7216TIP3    H143139   4.589   1.045  13.320 -0.5649 -0.0729  0.5365
 7216TIP3    H243140   4.592   0.905  13.377  0.2173 -0.4326 -0.3590
 7217TIP3   OH243141   4.935   4.224  12.160  0.1952 -0.5800  0.3188
 7217TIP3    H143142   4.977   4.140  12.179 -0.5685 -0.8408  0.8902
 7217TIP3    H243143   4.862   4.229  12.222  0.5744  0.7707  0.6896
 7218TIP3   OH243144   3.566   0.293   1.464  0.7251 -0.3324 -0.6338
 7218TIP3    H143145   3.478   0.314   1.432  1.2320 -0.8874 -2.4832
 7218TIP3    H243146   3.551   0.229   1.533 -0.4614  1.6597  1.0890
 7219TIP3   OH243147   5.699   3.738   2.977 -0.1091 -0.1395  0.0432
 7219TIP3    H143148   5.607   3.763   2.987 -0.3939 -1.1655  0.0880
 7219TIP3    H243149   5.697   3.661   2.920  0.8538  0.7763 -1.3030
 7220TIP3   OH243150   5.792   3.979  14.550  0.2882  0.3605 -0.6864
 7220TIP3    H143151   5.850   3.920  14.502  0.9560  1.8893 -1.8158
 7220TIP3    H243152   5.708   3.973  14.504  0.0603 -0.4264 -0.1925
 7221TIP3   OH243153   5.677   0.515  11.937 -0.1190  0.6634  0.0163
 7221TIP3    H143154   5.618   0.586  11.962  0.7094  1.0278  1.0381
 7221TIP3    H243155   5.751   0.559  11.895  1.3070  0.6783  2.3384
 7222TIP3   OH243156   5.600   2.913  15.075 -0.2673 -0.1726  0.1257
 7222TIP3    H143157   5.581   2.956  14.992 -1.2554 -2.1492 -0.7467
 7222TIP3    H243158   5.693   2.893  15.071 -0.3267 -0.3545 -0.5831
 7223TIP3   OH243159   4.591   1.659  15.172 -0.4284  0.2010 -0.7592
 7223TIP3    H143160   4.669   1.695  15.129 -0.4017  1.1830  0.0830
 7223TIP3    H243161   4.519   1.713  15.140 -0.6533 -0.1686 -0.8860
 7224TIP3   OH243162   3.148   3.006   2.291 -0.2285  0.5793 -0.1354
 7224TIP3    H143163   3.109   3.050   2.215  0.9601  0.7545 -0.6656
 7224TIP3    H243164   3.165   3.077   2.353  0.1584  0.6565 -0.3211
 7225TIP3   OH243165   4.786   3.153   5.537 -0.3339 -0.1589  0.5007
 7225TIP3    H143166   4.730   3.219   5.496 -0.9000 -0.5569  0.6212
 7225TIP3    H243167   4.777   3.169   5.631  1.9540  1.5796  0.5173
 7226TIP3   OH243168   2.472   2.489   1.015  0.1735  0.3046  0.4606
 7226TIP3    H143169   2.433   2.567   1.056 -1.3189 -0.8026  1.2625
 7226TIP3    H243170   2.426   2.482   0.931  1.2414  0.9933 -0.2043
 7227TIP3   OH243171   5.408   2.626   3.170 -0.1750  0.4951 -0.0090
 7227TIP3    H143172   5.385   2.701   3.115 -1.9650 -0.3151 -0.4286
 7227TIP3    H243173   5.324   2.588   3.197  0.6721 -1.1967  0.4352
 7228TIP3   OH243174   1.252   6.296   0.431 -0.1806 -0.1244 -0.1352
 7228TIP3    H143175   1.218   6.256   0.512 -0.0574  0.6664  0.3166
 7228TIP3    H243176   1.336   6.333   0.456 -1.3404  2.5643  0.1288
 7229TIP3   OH243177   1.841   1.209  15.999 -0.1065 -0.1685  0.2397
 7229TIP3    H143178   1.872   1.287  15.952 -1.6925 -0.4781 -1.4057
 7229TIP3    H243179   1.771   1.241  16.055  0.8042 -0.0491  1.3375
 7230TIP3   OH243180   1.080   1.163  12.046 -0.3121  0.1314 -0.5032
 7230TIP3    H143181   1.054   1.090  12.101  1.2851 -0.9521 -1.1116
 7230TIP3    H243182   1.017   1.164  11.974 -0.3324 -0.6960 -0.5051
 7231TIP3   OH243183   4.109   0.740   3.414 -0.2122  0.5389  0.6820
 7231TIP3    H143184   4.202   0.751   3.393 -0.6583  1.1391 -1.1819
 7231TIP3    H243185   4.089   0.812   3.473  1.1023 -1.1978  3.4545
 7232TIP3   OH243186   3.378   0.345   0.507  0.3845 -0.0740  0.5429
 7232TIP3    H143187   3.444   0.375   0.569  1.0568  0.5933 -0.4533
 7232TIP3    H243188   3.424   0.279   0.454  0.0278 -0.1597  0.3345
 7233TIP3   OH243189   1.267   6.182   4.729  0.0358 -0.0464  0.1903
 7233TIP3    H143190   1.236   6.270   4.752  0.8955  0.7039 -1.3414
 7233TIP3    H243191   1.190   6.139   4.691 -0.5198 -0.1568  1.3993
 7234TIP3   OH243192   1.966   2.477  14.249  0.2794  0.4515  0.2643
 7234TIP3    H143193   2.011   2.558  14.274  0.8984  0.5697 -1.1290
 7234TIP3    H243194   1.952   2.486  14.155 -2.0750  0.1106  0.5003
 7235TIP3   OH243195   6.035   6.265   4.979  0.6996  0.1071  0.8084
 7235TIP3    H143196   6.063   6.219   5.059  1.2296 -3.3399 -1.1653
 7235TIP3    H243197   6.114   6.268   4.925 -0.4359 -1.0551 -1.0240
 7236TIP3   OH243198   2.026   4.264  13.815  0.2847  0.5276 -0.1989
 7236TIP3    H143199   2.095   4.218  13.769  0.2519  0.6147 -0.3368
 7236TIP3    H243200   2.072   4.319  13.878  0.3117  0.0912  0.1686
 7237TIP3   OH243201   0.023   1.243  11.139  0.0348 -0.0411 -0.2043
 7237TIP3    H143202  -0.069   1.225  11.116 -0.1312 -1.5215  1.4280
 7237TIP3    H243203   0.027   1.338  11.146 -2.0347 -0.0257  2.0591
 7238TIP3   OH243204   0.129   4.276   4.639 -0.1149  0.1821 -0.3918
 7238TIP3    H143205   0.215   4.314   4.658 -0.8535  2.0844 -0.5696
 7238TIP3    H243206   0.067   4.348   4.656 -1.6145 -0.9584 -0.8265
 7239TIP3   OH243207   6.432   0.161   4.087  0.0351  0.2881 -0.1531
 7239TIP3    H143208   6.488   0.196   4.156  0.2066 -1.2375  0.5068
 7239TIP3    H243209   6.360   0.118   4.134 -0.5912  0.4424 -0.9561
 7240TIP3   OH243210   2.502   4.911  17.017 -0.4950  0.3852  0.2946
 7240TIP3    H143211   2.494   5.004  16.997 -0.7799  0.4606  0.7413
 7240TIP3    H243212   2.596   4.892  17.010 -0.5006  0.5781 -0.3413
 7241TIP3   OH243213   4.723   1.844   2.844 -0.6347  0.6794 -0.1226
 7241TIP3    H143214   4.689   1.765   2.803 -1.2370 -0.0858  1.7572
 7241TIP3    H243215   4.666   1.915   2.813 -0.3127  0.3623 -1.5272
 7242TIP3   OH243216   5.855   3.320   4.070 -0.9861  0.2124 -0.2778
 7242TIP3    H143217   5.851   3.327   3.975  0.0632 -1.0179 -0.4364
 7242TIP3    H243218   5.940   3.280   4.088 -1.4604 -0.2186  1.1392
 7243TIP3   OH243219   4.205   4.675   1.453  0.2169 -0.0486 -0.2099
 7243TIP3    H143220   4.151   4.609   1.497  1.8193 -1.9992 -0.9943
 7243TIP3    H243221   4.229   4.634   1.370  3.7618  0.2184  0.5462
 7244TIP3   OH243222   2.975   4.723  12.680  0.1778 -0.5572 -0.2112
 7244TIP3    H143223   3.051   4.698  12.732  1.5099 -1.4444 -2.4435
 7244TIP3    H243224   2.978   4.818  12.677  0.6112 -0.5374  0.5259
 7245TIP3   OH243225   6.270   3.601  13.819 -0.2493  0.1444  0.0232
 7245TIP3    H143226   6.215   3.677  13.837  0.6892  0.7008  0.6155
 7245TIP3    H243227   6.291   3.566  13.906  0.8519  0.3217 -0.1650
 7246TIP3   OH243228   3.764   3.136  15.720 -0.2406 -0.3588 -0.6243
 7246TIP3    H143229   3.836   3.128  15.658 -0.3306 -1.8811 -0.5682
 7246TIP3    H243230   3.803   3.121  15.806 -0.9848 -4.1495 -0.7913
 7247TIP3   OH243231   1.463   5.738   3.386 -0.0785  0.4677 -0.1625
 7247TIP3    H143232   1.384   5.788   3.406  0.1649  1.1020 -0.7504
 7247TIP3    H243233   1.499   5.714   3.472 -1.1173 -0.1840  0.1081
 7248TIP3   OH243234   3.026   1.841   2.102 -0.6050  0.7016 -0.1728
 7248TIP3    H143235   3.037   1.882   2.187  2.1242  0.6858 -0.4294
 7248TIP3    H243236   3.034   1.747   2.119 -0.6617  0.6594 -0.3759
 7249TIP3   OH243237   4.920   2.560   3.370 -0.3557  0.3157  0.3262
 7249TIP3    H143238   4.865   2.611   3.429  0.2937 -0.1656  1.3612
 7249TIP3    H243239   4.934   2.477   3.415  0.6538  0.1723 -0.2313
 7250TIP3   OH243240   0.079   2.308  16.294  1.0045 -0.2023 -0.2795
 7250TIP3    H143241   0.024   2.288  16.369 -1.2263  1.7533 -1.2793
 7250TIP3    H243242   0.018   2.319  16.221  2.7608  1.4819 -1.6139
 7251TIP3   OH243243   2.030   2.904   5.791 -0.4574 -0.5335 -0.5340
 7251TIP3    H143244   2.076   2.936   5.713  1.5173 -0.2551  0.6757
 7251TIP3    H243245   2.019   2.981   5.846  0.1298 -1.0934  0.3868
 7252TIP3   OH243246   5.231   5.311  13.412 -0.1934 -0.3646 -0.0022
 7252TIP3    H143247   5.189   5.392  13.441 -0.5510 -0.3861 -0.4443
 7252TIP3    H243248   5.321   5.337  13.390 -0.1984 -0.1638  0.2142
 7253TIP3   OH243249   3.399   1.540   5.614 -0.7540  0.3883 -0.2158
 7253TIP3    H143250   3.367   1.530   5.524  2.4847  0.1770 -1.4765
 7253TIP3    H243251   3.357   1.469   5.663  0.4308 -2.0648 -2.5303
 7254TIP3   OH243252   2.010   0.338  11.197 -0.3787  0.0811 -0.4632
 7254TIP3    H143253   2.085   0.286  11.169  0.0014  0.5594 -0.3439
 7254TIP3    H243254   1.960   0.354  11.117 -1.6922 -2.2979 -0.2149
 7255TIP3   OH243255   1.182   2.253   4.529 -0.0492  0.0559 -0.1562
 7255TIP3    H143256   1.188   2.179   4.468 -0.5031 -0.1664  0.0662
 7255TIP3    H243257   1.181   2.213   4.616 -2.2133  0.1834 -0.0757
 7256TIP3   OH243258   1.228   2.709   2.391 -0.3483  0.0022 -0.0001
 7256TIP3    H143259   1.211   2.784   2.448 -0.6509  0.4533 -0.6691
 7256TIP3    H243260   1.141   2.673   2.372 -0.2463 -0.1655 -0.1533
 7257TIP3   OH243261   5.644   4.221   1.463 -0.5052 -0.3127 -0.8804
 7257TIP3    H143262   5.556   4.248   1.435 -1.4482 -0.0140  2.0549
 7257TIP3    H243263   5.655   4.261   1.549  1.0432 -3.3044  0.4644
 7258TIP3   OH243264   1.550   3.484  11.189 -0.8765  0.3627 -0.8130
 7258TIP3    H143265   1.466   3.475  11.234  0.4010 -1.6566  1.3131
 7258TIP3    H243266   1.614   3.494  11.258  0.9314 -0.5724 -2.2639
 7259TIP3   OH243267   2.499   6.162  11.260 -0.3850  0.4125  0.7378
 7259TIP3    H143268   2.456   6.109  11.327 -1.3480 -0.6996 -0.6856
 7259TIP3    H243269   2.540   6.098  11.202 -1.3271  1.2141 -0.8699
 7260TIP3   OH243270   2.343   0.384  12.049  0.1761 -0.4296  0.7012
 7260TIP3    H143271   2.278   0.386  11.978  1.2786  1.9836 -0.3386
 7260TIP3    H243272   2.303   0.435  12.119  1.7446  3.2272 -0.8408
 7261TIP3   OH243273   6.003   1.321  12.177  0.5242 -0.3070  0.1957
 7261TIP3    H143274   5.984   1.232  12.147 -1.1506 -0.1198  0.6112
 7261TIP3    H243275   6.023   1.370  12.097 -0.0593 -0.7037 -0.2017
 7262TIP3   OH243276   2.511   0.787  11.335 -0.1618 -0.0982 -0.0213
 7262TIP3    H143277   2.589   0.751  11.377  0.1419  0.3947 -0.1623
 7262TIP3    H243278   2.525   0.771  11.242 -0.0224  0.3880 -0.0857
 7263TIP3   OH243279   0.031   3.397  14.832  0.0673  0.2718 -0.5771
 7263TIP3    H143280   0.101   3.459  14.848 -0.2122  0.5022 -0.2319
 7263TIP3    H243281   0.073   3.325  14.785  0.4726  0.5366 -0.6257
 7264TIP3   OH243282   5.379   1.671   0.660 -0.5340  0.4935  0.4618
 7264TIP3    H143283   5.375   1.722   0.741  0.8004  1.2634  0.0775
 7264TIP3    H243284   5.451   1.609   0.674 -0.1658  0.7625 -0.1902
 7265TIP3   OH243285   3.933   3.880  12.247 -0.1612 -0.4628 -0.0413
 7265TIP3    H143286   3.888   3.907  12.327 -0.7448 -3.9620  1.0012
 7265TIP3    H243287   3.871   3.820  12.204  0.3661  0.8805 -2.8916
 7266TIP3   OH243288   2.714   4.160   0.345  0.1377  0.2492  0.7736
 7266TIP3    H143289   2.763   4.094   0.297 -1.1469  0.2782 -0.6353
 7266TIP3    H243290   2.737   4.144   0.437  0.8693 -1.2865  0.3562
 7267TIP3   OH243291   2.357   2.753   0.985  0.3515  0.3763  0.1877
 7267TIP3    H143292   2.307   2.739   1.066  3.0342 -0.1489  1.8873
 7267TIP3    H243293   2.379   2.846   0.986  0.0148  0.4631 -0.1908
 7268TIP3   OH243294   2.990   0.901   3.412  0.1992 -0.2076  0.5803
 7268TIP3    H143295   3.055   0.861   3.353  0.8265 -0.4344  1.4058
 7268TIP3    H243296   3.043   0.949   3.476 -0.5154  0.9285  0.3274
 7269TIP3   OH243297   5.985   6.411   3.316 -0.4344 -0.0524 -0.0142
 7269TIP3    H143298   5.957   6.451   3.399  0.8455  1.1612 -0.1278
 7269TIP3    H243299   5.937   6.459   3.249 -1.3195 -0.9015 -0.0095
 7270TIP3   OH243300   6.460   0.922  13.487  0.0799 -0.8432 -0.4612
 7270TIP3    H143301   6.506   1.000  13.455 -0.2500 -0.1361  0.7065
 7270TIP3    H243302   6.378   0.957  13.524  1.0629 -1.3671  2.4660
 7271TIP3   OH243303   2.802   3.832   4.581  0.0680 -0.1226  0.8559
 7271TIP3    H143304   2.871   3.877   4.532  0.3552  0.3534  1.6668
 7271TIP3    H243305   2.736   3.900   4.596 -0.1516 -0.3396  0.8733
 7272TIP3   OH243306   6.705   4.409  12.472 -0.3531  0.0755 -0.2985
 7272TIP3    H143307   6.631   4.468  12.456  1.4845  1.9323 -2.8190
 7272TIP3    H243308   6.735   4.431  12.560 -2.5905 -0.6047  0.7098
 7273TIP3   OH243309   2.342   3.898   3.949  0.3563  0.1595 -0.1700
 7273TIP3    H143310   2.278   3.942   3.892  0.7403  0.1720 -0.5995
 7273TIP3    H243311   2.385   3.969   3.996  0.9588  0.2585 -0.8454
 7274TIP3   OH243312   2.921   4.596   5.154 -0.4625  0.8408  0.0539
 7274TIP3    H143313   2.882   4.584   5.067  0.5010 -1.3570 -0.1393
 7274TIP3    H243314   2.989   4.662   5.140  0.1884 -0.0296 -1.0579
 7275TIP3   OH243315   5.297   1.285   5.816  1.2384 -0.1962  0.1866
 7275TIP3    H143316   5.338   1.304   5.732  1.2953  0.5493  0.3800
 7275TIP3    H243317   5.332   1.351   5.875  1.2910 -0.7859  0.8300
 7276TIP3   OH243318   3.516   2.263  16.726  0.2320 -0.4734 -0.3260
 7276TIP3    H143319   3.435   2.217  16.702  1.0637 -0.7982 -2.8353
 7276TIP3    H243320   3.513   2.269  16.822 -2.0267 -1.8037 -0.2419
 7277TIP3   OH243321   3.296   3.985  15.666 -0.0105  0.2239 -0.0197
 7277TIP3    H143322   3.265   4.003  15.577  0.0140 -1.3316 -0.3660
 7277TIP3    H243323   3.301   4.072  15.707 -2.6272  0.7656 -0.6586
 7278TIP3   OH243324   5.159   5.618  15.849 -0.9245  0.1591  0.5680
 7278TIP3    H143325   5.210   5.698  15.836 -0.0108 -0.1087  2.1499
 7278TIP3    H243326   5.222   5.547  15.837 -1.8008 -0.3645 -1.1530
 7279TIP3   OH243327   0.358   3.814  14.924 -0.0241 -0.2781  0.8243
 7279TIP3    H143328   0.439   3.797  14.971 -0.0190 -1.1117  0.5324
 7279TIP3    H243329   0.338   3.906  14.943  1.1877  0.0500  0.5801
 7280TIP3   OH243330   4.187   4.358  13.189  0.0529 -0.3254  0.5836
 7280TIP3    H143331   4.224   4.445  13.172 -2.5508  0.6815 -0.5236
 7280TIP3    H243332   4.255   4.297  13.159  0.2730  1.3988 -3.0223
 7281TIP3   OH243333   5.444   5.612   1.461  0.0956  0.0919  0.2289
 7281TIP3    H143334   5.384   5.552   1.504 -0.5162  1.1327  0.8882
 7281TIP3    H243335   5.495   5.557   1.401 -1.9584 -0.7335 -0.8610
 7282TIP3   OH243336   3.420   1.891  10.736 -0.4333 -0.3168 -0.5027
 7282TIP3    H143337   3.360   1.933  10.797 -0.1187  0.1787 -0.5327
 7282TIP3    H243338   3.472   1.962  10.699  0.1572 -0.7340 -0.5015
 7283TIP3   OH243339   4.335   5.463  12.261  0.1678 -0.4580 -0.1519
 7283TIP3    H143340   4.266   5.498  12.318 -0.3381 -0.6627 -0.6275
 7283TIP3    H243341   4.321   5.369  12.263 -0.2340 -0.4285 -1.0807
 7284TIP3   OH243342   0.471   0.138  16.049 -0.0419 -0.1840  0.3621
 7284TIP3    H143343   0.416   0.210  16.018 -0.7964 -1.2653 -0.8756
 7284TIP3    H243344   0.548   0.140  15.991  0.5730  0.4234  1.1714
 7285TIP3   OH243345   1.283   3.155  12.127  0.2972  0.0887  0.1783
 7285TIP3    H143346   1.333   3.091  12.178  0.4354  0.2659  0.2660
 7285TIP3    H243347   1.254   3.107  12.050  0.6560  0.0001  0.0948
 7286TIP3   OH243348   0.554   3.887   3.194  0.1778  0.0912  0.2693
 7286TIP3    H143349   0.632   3.838   3.221 -0.3234 -0.8781  0.0256
 7286TIP3    H243350   0.583   3.977   3.185  1.3303 -0.3055 -0.0823
 7287TIP3   OH243351   3.577   4.754  12.099 -0.1128 -0.2982 -0.4037
 7287TIP3    H143352   3.599   4.763  12.191 -0.5735  0.7200 -0.3758
 7287TIP3    H243353   3.505   4.815  12.085 -1.8889 -2.3465 -0.8340
 7288TIP3   OH243354   4.580   0.841   0.538  1.0695  0.1165  0.1522
 7288TIP3    H143355   4.635   0.817   0.612  0.6943  0.6970  0.6212
 7288TIP3    H243356   4.490   0.836   0.571  0.9797  2.8917  0.5327
 7289TIP3   OH243357   2.646   6.773   1.804  0.0494  0.4594  0.6132
 7289TIP3    H143358   2.597   6.854   1.818  0.6947  1.2747 -1.4352
 7289TIP3    H243359   2.732   6.789   1.843  0.1391  0.7454  0.3078
 7290TIP3   OH243360   3.952   2.319  15.080 -0.4276 -1.0200 -0.3137
 7290TIP3    H143361   4.012   2.389  15.057 -1.2531 -0.3647 -0.5094
 7290TIP3    H243362   3.957   2.313  15.176 -0.2467 -0.7938 -0.3090
 7291TIP3   OH243363   1.473   1.276   4.918  0.1431  0.4033  0.0824
 7291TIP3    H143364   1.405   1.335   4.884  0.1291  0.2249 -0.1967
 7291TIP3    H243365   1.555   1.320   4.898  0.1186  0.5348  0.2626
 7292TIP3   OH243366   5.576   1.739  12.913  0.0176 -0.1862  0.4625
 7292TIP3    H143367   5.654   1.716  12.862 -1.5425  0.4272 -2.3731
 7292TIP3    H243368   5.509   1.678  12.883 -1.6092  1.7783 -0.0820
 7293TIP3   OH243369   3.394   6.796  13.715 -0.0841 -0.1799  0.5915
 7293TIP3    H143370   3.395   6.880  13.761  1.4768 -0.2088  0.6639
 7293TIP3    H243371   3.483   6.762  13.725  0.2169 -0.4039 -2.0072
 7294TIP3   OH243372   4.608   3.463  14.497 -0.2373  0.0374 -0.3163
 7294TIP3    H143373   4.665   3.535  14.526 -0.0967  0.9279 -2.5731
 7294TIP3    H243374   4.520   3.500  14.500 -0.2301  0.1120 -0.8522
 7295TIP3   OH243375   4.282   5.235   6.199  0.0487  0.1937 -0.0480
 7295TIP3    H143376   4.225   5.245   6.275  0.6745  1.2125  0.3068
 7295TIP3    H243377   4.365   5.204   6.235  0.3545  0.6948 -0.3099
 7296TIP3   OH243378   5.695   1.990  11.899 -0.3496  0.0850  0.6997
 7296TIP3    H143379   5.786   1.993  11.870 -0.6859  0.1014 -0.3956
 7296TIP3    H243380   5.670   1.898  11.888 -1.1657  0.5007 -1.3129
 7297TIP3   OH243381   5.699   3.420  15.427  0.4570  0.0746  0.4037
 7297TIP3    H143382   5.656   3.360  15.366 -0.1636  1.0576 -0.1457
 7297TIP3    H243383   5.714   3.368  15.506 -2.8844  0.0096  1.1043
 7298TIP3   OH243384   2.250   6.223   2.861 -0.9682  0.3250  0.2185
 7298TIP3    H143385   2.336   6.260   2.841 -0.8974  0.4333  0.7160
 7298TIP3    H243386   2.267   6.133   2.886 -1.0667  0.1645 -0.2739
 7299TIP3   OH243387   2.060   4.135  11.973 -0.1003 -0.4519 -0.6674
 7299TIP3    H143388   2.105   4.088  11.903  0.8532 -2.3734  1.0935
 7299TIP3    H243389   2.131   4.178  12.021 -0.7539  0.9791 -0.9386
 7300TIP3   OH243390   1.032   4.258  16.925  0.3207  0.1441 -0.2672
 7300TIP3    H143391   0.960   4.198  16.945  0.8919 -0.1591  1.0091
 7300TIP3    H243392   1.037   4.259  16.829 -1.0081 -0.2574 -0.3590
 7301TIP3   OH243393   3.729   2.178   2.896 -0.1157 -0.6656 -0.3003
 7301TIP3    H143394   3.769   2.252   2.851 -0.1462 -0.7167 -0.4134
 7301TIP3    H243395   3.767   2.101   2.854 -1.1599 -0.7268 -1.1898
 7302TIP3   OH243396   5.767   2.558   2.508  0.2093 -0.6335 -0.0104
 7302TIP3    H143397   5.685   2.516   2.534  0.5898 -1.1612  0.3714
 7302TIP3    H243398   5.835   2.510   2.557  0.5779  1.1517  1.3435
 7303TIP3   OH243399   3.916   5.553   0.968 -0.0422  0.2397 -0.6420
 7303TIP3    H143400   3.967   5.522   0.894 -0.1826 -0.9735 -0.2393
 7303TIP3    H243401   3.926   5.486   1.035 -0.9320  0.7132 -0.0065
 7304TIP3   OH243402   6.544   1.461  12.871  0.1876  0.0711 -0.5874
 7304TIP3    H143403   6.561   1.383  12.924 -0.2970  0.5206  0.2478
 7304TIP3    H243404   6.488   1.516  12.926  0.6393  1.0792 -1.1050
 7305TIP3   OH243405   3.266   4.442  13.154  0.7476 -0.0467 -0.2585
 7305TIP3    H143406   3.224   4.385  13.089  0.0859  1.4775 -1.2228
 7305TIP3    H243407   3.202   4.450  13.224  0.2324  0.6509 -0.7950
 7306TIP3   OH243408   6.356   4.813   0.766  0.0177  0.2241 -0.3764
 7306TIP3    H143409   6.399   4.816   0.852 -0.9948 -1.1659  0.2195
 7306TIP3    H243410   6.279   4.869   0.776  0.3330  0.7203 -0.6602
 7307TIP3   OH243411   4.560   1.588  10.829 -0.2712  0.5456  0.4083
 7307TIP3    H143412   4.634   1.639  10.863  0.4323  0.9729 -1.6286
 7307TIP3    H243413   4.569   1.593  10.734 -3.0023  0.7325  0.0612
 7308TIP3   OH243414   0.675   4.137   0.065 -0.8494  0.5828  0.6612
 7308TIP3    H143415   0.642   4.152  -0.024  0.6856  0.2377  0.0097
 7308TIP3    H243416   0.669   4.042   0.077  1.7975  0.2197 -0.2927
 7309TIP3   OH243417   1.566   2.939   0.296 -0.0737 -0.7476  0.1115
 7309TIP3    H143418   1.560   2.852   0.338 -1.1463 -0.4747  0.5800
 7309TIP3    H243419   1.503   2.992   0.345 -2.1167 -0.6394 -2.3999
 7310TIP3   OH243420   5.198   5.299   4.659  0.2915  0.5279 -0.0067
 7310TIP3    H143421   5.238   5.214   4.640  0.1243  0.5400 -0.4162
 7310TIP3    H243422   5.138   5.282   4.732  0.7558  0.4332  0.3621
 7311TIP3   OH243423   4.835   1.848  13.964  0.0719  0.1327  0.0715
 7311TIP3    H143424   4.825   1.857  14.059  0.8505 -1.0835  0.3020
 7311TIP3    H243425   4.910   1.903  13.942  0.3959 -0.2103  0.3037
 7312TIP3   OH243426   4.247   5.110  16.028 -0.0858 -0.4253 -0.2622
 7312TIP3    H143427   4.186   5.043  15.998 -0.2961  0.3015 -1.5288
 7312TIP3    H243428   4.300   5.130  15.951 -1.1872  2.1017 -0.4534
 7313TIP3   OH243429   3.749   0.585  11.863 -0.1588 -0.0516  0.2279
 7313TIP3    H143430   3.793   0.626  11.789 -1.4057 -1.6859 -1.5419
 7313TIP3    H243431   3.696   0.654  11.902 -0.2295  0.6464 -1.0509
 7314TIP3   OH243432   6.337   0.550  15.510 -0.1300 -0.3273 -0.0611
 7314TIP3    H143433   6.346   0.600  15.591 -1.0358 -0.3147  0.0379
 7314TIP3    H243434   6.365   0.461  15.533 -1.8938 -0.7082  0.6913
 7315TIP3   OH243435   2.649   5.056   5.489 -0.0897  0.0352  0.7920
 7315TIP3    H143436   2.638   5.021   5.577 -2.8018  3.4714  2.0629
 7315TIP3    H243437   2.726   5.112   5.495 -0.5734  0.6719  1.1724
 7316TIP3   OH243438   6.730   2.455  15.727  0.2875 -0.0937  0.0825
 7316TIP3    H143439   6.692   2.529  15.680  0.3887 -1.7473 -2.8225
 7316TIP3    H243440   6.655   2.408  15.763 -0.2677 -1.3069 -2.4597
 7317TIP3   OH243441   5.557   0.783  11.583  0.4018 -0.5070 -0.0101
 7317TIP3    H143442   5.532   0.691  11.593  0.2259 -0.4685 -0.0957
 7317TIP3    H243443   5.488   0.821  11.529 -1.1232  0.3636  2.4009
 7318TIP3   OH243444   2.906   5.638  15.278 -0.7016  0.2101 -0.2987
 7318TIP3    H143445   2.981   5.690  15.250 -0.6271  0.9063  1.1129
 7318TIP3    H243446   2.895   5.572  15.209  1.7029 -0.4284 -0.1604
 7319TIP3   OH243447   3.633   0.387   2.096 -0.0460  0.0311  0.0024
 7319TIP3    H143448   3.687   0.324   2.143 -0.2586  0.4547  0.8377
 7319TIP3    H243449   3.602   0.339   2.019  0.7758 -0.4959 -0.0138
 7320TIP3   OH243450   6.139   6.703  12.635 -0.5337 -0.1244  0.0113
 7320TIP3    H143451   6.187   6.728  12.714 -0.3984  0.1434 -0.1543
 7320TIP3    H243452   6.205   6.665  12.577 -0.6181 -0.2445 -0.0062
 7321TIP3   OH243453   4.596   1.184   4.112  0.5666  0.0071  0.6356
 7321TIP3    H143454   4.501   1.186   4.124  0.6842 -0.2812  1.7806
 7321TIP3    H243455   4.631   1.173   4.201  1.6804  0.3776  0.2619
 7322TIP3   OH243456   1.335   0.735   3.686 -0.1555 -0.5416  0.1017
 7322TIP3    H143457   1.278   0.793   3.737 -2.3653 -2.7890  0.3636
 7322TIP3    H243458   1.406   0.713   3.746 -0.9267 -0.5120  1.0509
 7323TIP3   OH243459   1.671   1.024  16.722 -0.2659  0.0513 -0.0167
 7323TIP3    H143460   1.642   1.029  16.631  1.6488 -1.4131 -0.7790
 7323TIP3    H243461   1.755   1.069  16.723 -0.2096 -0.0382  1.0250
 7324TIP3   OH243462   2.367   2.049  15.467  0.1741 -0.0588 -0.4438
 7324TIP3    H143463   2.379   2.078  15.557  1.2543  0.1999 -0.6524
 7324TIP3    H243464   2.329   2.124  15.422 -0.3851 -0.1954 -0.2000
 7325TIP3   OH243465   3.117   2.891   4.381 -0.2091 -0.6468  0.3113
 7325TIP3    H143466   3.135   2.984   4.367 -0.9625 -0.5195  0.1367
 7325TIP3    H243467   3.189   2.860   4.438 -0.3078  0.1903  0.9070
 7326TIP3   OH243468   6.383   3.950  15.742  0.5669  0.0745 -0.1695
 7326TIP3    H143469   6.335   4.008  15.683 -1.3427 -1.1978  0.0499
 7326TIP3    H243470   6.436   3.896  15.684 -1.2270 -1.1066 -0.8151
 7327TIP3   OH243471   4.190   4.799   5.127 -0.2438  0.3735  1.0277
 7327TIP3    H143472   4.251   4.776   5.197  0.2359  0.8193  0.7707
 7327TIP3    H243473   4.222   4.884   5.095  0.1410 -0.2684 -0.3824
 7328TIP3   OH243474   0.784   5.926  14.335 -0.1699 -0.3607  0.1438
 7328TIP3    H143475   0.748   5.992  14.394 -0.2144 -0.8832  0.7036
 7328TIP3    H243476   0.877   5.948  14.327 -0.0186 -0.6886  0.9491
 7329TIP3   OH243477   2.553   1.963  16.634 -0.2652  0.3372 -0.0340
 7329TIP3    H143478   2.561   1.977  16.539 -1.4114  1.6156  0.0386
 7329TIP3    H243479   2.567   2.049  16.673 -0.5318 -0.0408  0.9223
 7330TIP3   OH243480   4.225   4.437  14.423 -0.6171 -0.4869  0.3884
 7330TIP3    H143481   4.265   4.507  14.475  0.0539  0.5620 -1.4215
 7330TIP3    H243482   4.177   4.384  14.486  3.4315 -1.7498  2.7889
 7331TIP3   OH243483   4.513   6.131  13.241  0.4410  0.3654  0.4475
 7331TIP3    H143484   4.461   6.102  13.165 -0.4145 -0.3478  1.2814
 7331TIP3    H243485   4.451   6.128  13.314  1.4856  0.2244  1.3362
 7332TIP3   OH243486   3.770   6.507   4.845  0.7275  0.5166  0.2410
 7332TIP3    H143487   3.813   6.591   4.859  0.5947  1.0957 -2.2209
 7332TIP3    H243488   3.804   6.476   4.761  0.5931 -1.8060  0.9621
 7333TIP3   OH243489   4.840   0.148  12.665 -0.2661  0.5195  0.0613
 7333TIP3    H143490   4.807   0.145  12.754 -1.9900  0.6130 -0.5316
 7333TIP3    H243491   4.917   0.205  12.669 -0.4680  0.7088  1.4388
 7334TIP3   OH243492   2.254   2.288  15.070  0.0409 -0.2261 -0.0153
 7334TIP3    H143493   2.294   2.365  15.029  0.1007  0.4420  1.2511
 7334TIP3    H243494   2.217   2.239  14.997 -1.5912  1.9240 -0.7492
 7335TIP3   OH243495   1.097   5.699   0.882  0.3052  0.2769 -0.5649
 7335TIP3    H143496   1.192   5.700   0.893  0.6152  1.1914 -2.8793
 7335TIP3    H243497   1.074   5.606   0.884  1.2627  0.0321 -0.2079
 7336TIP3   OH243498   6.289   6.155   2.031  0.2488  0.3831  0.2140
 7336TIP3    H143499   6.296   6.187   1.941  1.0355  1.9097  0.7792
 7336TIP3    H243500   6.195   6.157   2.050 -0.0379 -0.9804 -0.8972
 7337TIP3   OH243501   1.992   1.313   4.585  0.0770 -0.2010 -0.2553
 7337TIP3    H143502   1.977   1.252   4.656 -0.1480  1.5423  1.2794
 7337TIP3    H243503   2.060   1.372   4.618  0.2006  0.4562 -1.6163
 7338TIP3   OH243504   1.610   2.063  15.801  0.1676 -0.5880 -0.4513
 7338TIP3    H143505   1.566   2.120  15.738 -0.7885 -1.5811 -0.7223
 7338TIP3    H243506   1.562   1.981  15.796  0.5997 -0.9610  0.9734
 7339TIP3   OH243507   5.263   2.367  12.058 -0.4527 -0.1735 -0.1265
 7339TIP3    H143508   5.226   2.281  12.078  0.5396 -0.6313 -0.1972
 7339TIP3    H243509   5.350   2.365  12.097 -0.2894  0.6758 -0.4278
 7340TIP3   OH243510   3.557   4.615  16.772  0.3110  0.6255  0.1141
 7340TIP3    H143511   3.571   4.707  16.798 -1.2549  0.7251  0.7240
 7340TIP3    H243512   3.608   4.605  16.692  0.8237  1.9156  0.2447
 7341TIP3   OH243513   6.730   3.053  15.261 -0.4789  0.1973  0.1963
 7341TIP3    H143514   6.648   3.086  15.227 -0.6300 -1.0709 -0.7352
 7341TIP3    H243515   6.729   3.076  15.354 -2.2941 -0.5748  0.4020
 7342TIP3   OH243516   5.978   1.247   3.757  0.6564 -1.0833 -0.0331
 7342TIP3    H143517   6.021   1.174   3.802 -0.3801  1.1071  5.3230
 7342TIP3    H243518   6.039   1.320   3.765  0.5725 -0.5949 -2.8991
 7343TIP3   OH243519   5.865   1.719  12.192 -0.7000 -0.4094 -0.0414
 7343TIP3    H143520   5.811   1.644  12.167  0.1743 -1.2775  0.6118
 7343TIP3    H243521   5.913   1.741  12.112 -2.1092  0.4917 -0.6833
 7344TIP3   OH243522   0.383   2.223   5.202  0.4229  0.2872 -0.5020
 7344TIP3    H143523   0.375   2.296   5.263  1.4745  0.1261 -0.1558
 7344TIP3    H243524   0.301   2.174   5.213  0.0124  1.0161 -0.2305
 7345TIP3   OH243525   4.340   1.808  14.253  0.0547  0.1602  0.0194
 7345TIP3    H143526   4.382   1.722  14.253  1.2390  0.7025 -0.8018
 7345TIP3    H243527   4.375   1.851  14.331  0.1259  0.1993 -0.0335
 7346TIP3   OH243528   2.914   2.852  16.385  0.1076 -0.1119 -0.1836
 7346TIP3    H143529   2.984   2.787  16.383 -0.5290 -0.8486  0.6090
 7346TIP3    H243530   2.937   2.910  16.458 -0.6194 -0.9858  0.7791
 7347TIP3   OH243531   1.972   5.049   5.650  0.6037 -0.8820 -0.4353
 7347TIP3    H143532   1.922   4.977   5.613  0.6153 -0.2936 -1.6275
 7347TIP3    H243533   1.930   5.066   5.734 -1.7453  0.1189 -1.7255
 7348TIP3   OH243534   5.788   0.973   2.507  0.1752 -0.4402  0.2580
 7348TIP3    H143535   5.840   1.021   2.443 -0.4366 -0.6508 -0.4198
 7348TIP3    H243536   5.709   1.027   2.519 -0.3032 -1.0257 -0.1576
 7349TIP3   OH243537   4.918   3.308  14.093  0.3967  0.0297  0.0687
 7349TIP3    H143538   4.866   3.228  14.085  0.7595 -0.5640  2.6043
 7349TIP3    H243539   4.867   3.363  14.153  1.5260  0.4647  0.6546
 7350TIP3   OH243540   4.855   0.146   5.841 -0.4645 -0.4877 -0.0482
 7350TIP3    H143541   4.899   0.148   5.926 -0.0685 -0.0560 -0.2629
 7350TIP3    H243542   4.780   0.087   5.855 -2.3547  2.0965  1.5569
 7351TIP3   OH243543   5.183   5.079   5.961 -0.2181 -0.1340 -0.7471
 7351TIP3    H143544   5.202   5.030   5.881  0.2462  1.1857 -1.4750
 7351TIP3    H243545   5.265   5.077   6.011 -0.0652  0.2499 -0.9775
 7352TIP3   OH243546   6.148   0.665  13.310 -0.0757 -0.5216 -0.2468
 7352TIP3    H143547   6.110   0.593  13.259 -1.7607 -1.0921  1.6731
 7352TIP3    H243548   6.072   0.713  13.343  1.0143  1.8351 -0.9726
 7353TIP3   OH243549   1.652   3.555   2.151  0.1105  0.6913 -0.1444
 7353TIP3    H143550   1.743   3.584   2.155  0.2787  0.1770 -0.2251
 7353TIP3    H243551   1.613   3.608   2.082 -0.1438  2.2573  1.1451
 7354TIP3   OH243552   1.659   4.735  11.477 -0.4858 -0.4137  0.0680
 7354TIP3    H143553   1.691   4.758  11.564 -1.1675 -0.8815  0.4463
 7354TIP3    H243554   1.565   4.751  11.481 -0.5322 -0.5206 -0.5558
 7355TIP3   OH243555   6.577   5.536  11.732  0.0204  0.5496  0.1595
 7355TIP3    H143556   6.511   5.473  11.703 -0.5009  1.8339 -1.6687
 7355TIP3    H243557   6.660   5.501  11.699  0.2429 -0.7802  1.9766
 7356TIP3   OH243558   6.667   5.413  16.556  0.6197  0.1351  0.4717
 7356TIP3    H143559   6.703   5.334  16.516 -0.1088 -0.3418  0.7352
 7356TIP3    H243560   6.738   5.477  16.552  1.7781 -1.0185  1.6936
 7357TIP3   OH243561   0.152   5.455   2.964 -0.3403 -0.4462  0.9359
 7357TIP3    H143562   0.241   5.420   2.967  0.0647  0.6059  2.6125
 7357TIP3    H243563   0.106   5.399   2.902  1.7616 -0.3488 -0.8327
 7358TIP3   OH243564   6.418   1.585  15.521  0.2650 -0.0729 -0.4656
 7358TIP3    H143565   6.324   1.601  15.518  0.2184 -0.3289 -3.2499
 7358TIP3    H243566   6.427   1.490  15.512  0.7712  0.0086 -0.9340
 7359TIP3   OH243567   4.671   6.569   2.417  0.0416 -0.6247  0.5545
 7359TIP3    H143568   4.697   6.644   2.364 -0.7246 -0.2481  0.7061
 7359TIP3    H243569   4.583   6.547   2.387  0.1663 -1.3204  0.6718
 7360TIP3   OH243570   6.554   1.183  15.365  0.1071  0.6937 -0.0008
 7360TIP3    H143571   6.545   1.257  15.425  0.9826  1.2527 -0.5257
 7360TIP3    H243572   6.481   1.191  15.304  1.2876  2.3548 -1.3049
 7361TIP3   OH243573   6.430   0.270  16.238 -0.3171 -0.1427  0.0958
 7361TIP3    H143574   6.380   0.347  16.266 -0.4729  0.4853 -1.7664
 7361TIP3    H243575   6.398   0.253  16.150 -0.1618 -2.2800  0.4197
 7362TIP3   OH243576   4.277   5.854  17.194  0.1152 -0.5012  0.1886
 7362TIP3    H143577   4.293   5.935  17.146 -0.6199  0.1038  0.9296
 7362TIP3    H243578   4.344   5.855  17.263 -0.2163 -0.2665  0.5080
 7363TIP3   OH243579   2.737   3.811  14.156 -0.2827  0.1399 -0.3517
 7363TIP3    H143580   2.708   3.900  14.139 -1.4755  0.5188  2.9126
 7363TIP3    H243581   2.658   3.758  14.144 -0.1959 -0.0949  0.0745
 7364TIP3   OH243582   2.850   1.266   0.881 -0.0094  0.2694 -0.5424
 7364TIP3    H143583   2.814   1.247   0.795  0.5150 -1.4202 -0.4272
 7364TIP3    H243584   2.791   1.223   0.942 -0.2330  1.2364 -0.0561
 7365TIP3   OH243585   6.458   2.677   1.572 -0.1746  0.7368 -0.6404
 7365TIP3    H143586   6.418   2.676   1.659 -0.0207 -0.2258 -0.5768
 7365TIP3    H243587   6.550   2.655   1.589 -0.5597 -1.5763 -1.2377
 7366TIP3   OH243588   2.611   5.190   1.016 -0.1116 -0.1330 -0.0167
 7366TIP3    H143589   2.681   5.245   1.050  0.1230 -0.1746 -0.4254
 7366TIP3    H243590   2.598   5.123   1.084  0.0453  0.0414  0.1867
 7367TIP3   OH243591   2.406   2.774   0.460 -0.0447 -0.4794 -0.2516
 7367TIP3    H143592   2.346   2.703   0.484 -0.1271 -0.8148 -1.4077
 7367TIP3    H243593   2.366   2.852   0.497  0.0964 -1.0277  1.1278
 7368TIP3   OH243594   1.051   5.835  12.296  0.2258 -0.6459 -0.6770
 7368TIP3    H143595   0.966   5.839  12.340  0.4127 -1.0452 -0.2784
 7368TIP3    H243596   1.094   5.917  12.320 -0.9278  0.6595 -2.7204
 7369TIP3   OH243597   3.489   4.161  12.704 -0.2221  0.1578 -0.2203
 7369TIP3    H143598   3.451   4.248  12.718 -1.0134 -0.0753 -0.8650
 7369TIP3    H243599   3.577   4.179  12.670 -0.2886  0.7091 -0.1057
 7370TIP3   OH243600   3.805   3.077   0.779  0.0681  1.0105 -0.2292
 7370TIP3    H143601   3.736   3.081   0.845 -0.0612  2.3491 -0.4202
 7370TIP3    H243602   3.873   3.022   0.818  0.5982  2.8515  1.6110
 7371TIP3   OH243603   6.145   2.520  11.246  0.0519  0.2123  0.4909
 7371TIP3    H143604   6.153   2.480  11.160 -0.2953 -0.9946  0.9888
 7371TIP3    H243605   6.136   2.614  11.229 -2.0208 -0.1867 -0.9046
 7372TIP3   OH243606   2.066   3.798   0.620 -0.5095  0.4730  0.0031
 7372TIP3    H143607   1.996   3.864   0.625 -0.6486  0.3738 -0.4698
 7372TIP3    H243608   2.020   3.715   0.632 -0.5128  0.3923 -0.5360
 7373TIP3   OH243609   4.437   4.060  15.205 -0.4986  0.4972 -0.6202
 7373TIP3    H143610   4.420   4.119  15.279 -1.6018  0.8736 -1.1370
 7373TIP3    H243611   4.385   3.982  15.225  1.7677 -0.8072  0.5736
 7374TIP3   OH243612   3.177   1.585  13.957  0.1078 -0.5252 -0.6815
 7374TIP3    H143613   3.218   1.500  13.941 -1.7996 -1.2137 -2.1953
 7374TIP3    H243614   3.127   1.603  13.878 -0.6159  1.3882  0.1594
 7375TIP3   OH243615   4.516   6.524  14.790  0.1354  0.6294  0.1317
 7375TIP3    H143616   4.439   6.530  14.847  0.0969 -0.8660  0.2854
 7375TIP3    H243617   4.560   6.608  14.799 -0.6428  0.9334  1.2562
 7376TIP3   OH243618   5.116   2.616  12.997 -0.3095  1.4025  0.3407
 7376TIP3    H143619   5.090   2.582  13.082  0.2225  0.1257  0.0159
 7376TIP3    H243620   5.070   2.700  12.990 -0.9437  1.1864  1.5561
 7377TIP3   OH243621   0.543   5.843   0.725 -0.0210  0.4296  0.1379
 7377TIP3    H143622   0.488   5.797   0.790 -0.6007  0.9795  0.0501
 7377TIP3    H243623   0.624   5.792   0.722 -0.6439 -0.5861  0.0447
 7378TIP3   OH243624   4.429   6.018  13.017 -0.1674  0.3826  0.2924
 7378TIP3    H143625   4.488   6.004  12.943 -1.1726 -2.5624 -0.0599
 7378TIP3    H243626   4.343   6.033  12.977 -0.1648  2.1378  0.8519
 7379TIP3   OH243627   0.957   4.500   0.308 -0.6687  0.0246 -0.0567
 7379TIP3    H143628   1.028   4.441   0.283 -0.8311  0.1428 -0.8104
 7379TIP3    H243629   1.000   4.584   0.325 -0.5943  0.0173 -0.2141
 7380TIP3   OH243630   0.218   0.118   6.082 -0.4265  0.4385 -0.5607
 7380TIP3    H143631   0.171   0.174   6.143  1.1722 -0.2918  1.4355
 7380TIP3    H243632   0.310   0.144   6.091 -0.0570 -0.1381 -2.2175
 7381TIP3   OH243633   4.962   4.947  16.476 -0.0844 -0.4064 -0.5418
 7381TIP3    H143634   5.041   4.983  16.435  0.2840 -0.4345  0.1384
 7381TIP3    H243635   4.901   5.020  16.478  1.4845  1.0484  3.1066
 7382TIP3   OH243636   2.329   3.957  14.848 -0.0223 -0.2350 -0.5407
 7382TIP3    H143637   2.336   3.914  14.934  2.7797  0.5709 -0.2464
 7382TIP3    H243638   2.279   3.895  14.795  0.6689 -2.1607  0.8923
 7383TIP3   OH243639   5.635   5.860   4.009 -0.3631 -0.0132  0.2940
 7383TIP3    H143640   5.690   5.928   3.971 -1.6690  1.4118  0.8394
 7383TIP3    H243641   5.611   5.895   4.095 -3.0012 -0.0278 -0.3471
 7384TIP3   OH243642   0.896   4.746  16.432  0.2609  0.1780 -0.4814
 7384TIP3    H143643   0.823   4.729  16.373  1.1999 -0.5011 -1.4892
 7384TIP3    H243644   0.923   4.836  16.413 -0.5848  0.5851  0.2120
 7385TIP3   OH243645   0.891   0.160  12.541  0.1224 -0.1736  0.1644
 7385TIP3    H143646   0.935   0.230  12.589  0.1611  0.1425 -0.3291
 7385TIP3    H243647   0.873   0.094  12.608  1.4723 -0.3801  0.3402
 7386TIP3   OH243648   3.864   5.445  12.321 -0.2527 -0.1650  0.1272
 7386TIP3    H143649   3.815   5.375  12.364 -0.8595 -0.1103 -0.4825
 7386TIP3    H243650   3.803   5.518  12.315 -0.4735 -0.4717 -1.6670
 7387TIP3   OH243651   6.118   6.484  16.556 -0.1877  0.1401 -0.1384
 7387TIP3    H143652   6.170   6.558  16.587  0.1015  0.1217 -0.5684
 7387TIP3    H243653   6.097   6.505  16.466 -0.0055 -0.3528 -0.2991
 7388TIP3   OH243654   3.480   0.102  11.085  0.3529  0.6603 -0.1007
 7388TIP3    H143655   3.487   0.126  11.178 -1.0538  0.0610  0.1932
 7388TIP3    H243656   3.534   0.024  11.076 -0.6529 -0.1415  0.5769
 7389TIP3   OH243657   0.724   4.016  13.085  0.3145 -0.0257 -0.1622
 7389TIP3    H143658   0.642   4.065  13.090 -0.6993 -1.7433  0.8961
 7389TIP3    H243659   0.779   4.054  13.154  0.2144  0.7590 -0.5037
 7390TIP3   OH243660   0.473   1.070   1.562  0.0964 -0.5000  0.2115
 7390TIP3    H143661   0.485   1.062   1.468  0.6513 -0.6549  0.2903
 7390TIP3    H243662   0.389   1.027   1.579 -0.5111  0.4487 -0.3384
 7391TIP3   OH243663   1.358   4.677  15.376  0.1115 -0.4378 -0.5726
 7391TIP3    H143664   1.317   4.591  15.372 -1.1623  0.2050 -2.3894
 7391TIP3    H243665   1.426   4.675  15.309 -0.8750  0.4014 -1.6378
 7392TIP3   OH243666   4.393   1.231   4.435  0.3614 -0.1685  0.2986
 7392TIP3    H143667   4.415   1.214   4.526  1.8981  0.3117  0.0492
 7392TIP3    H243668   4.308   1.274   4.438  0.4844  0.0198  1.5144
 7393TIP3   OH243669   5.918   5.018   1.486  0.2403  0.2322 -0.1875
 7393TIP3    H143670   5.852   4.949   1.475  0.4971  0.1483 -1.2650
 7393TIP3    H243671   5.984   5.000   1.419  1.1171  0.6120  0.5483
 7394TIP3   OH243672   2.766   2.016   4.014 -0.1671  0.1859  0.0547
 7394TIP3    H143673   2.841   2.040   4.068  0.2151 -0.4948 -0.1687
 7394TIP3    H243674   2.724   2.099   3.993 -0.9981  0.4317  2.3685
 7395TIP3   OH243675   2.897   6.585   3.256  0.0233  0.1800 -0.0333
 7395TIP3    H143676   2.821   6.570   3.312 -0.9066  0.0749 -1.2779
 7395TIP3    H243677   2.966   6.530   3.294 -0.4658  0.3634  1.1836
 7396TIP3   OH243678   0.790   2.257   2.173 -0.0052 -0.7131 -0.4775
 7396TIP3    H143679   0.738   2.188   2.213 -1.0919 -0.2828 -1.1046
 7396TIP3    H243680   0.817   2.221   2.089 -1.9688  0.1697 -1.5513
 7397TIP3   OH243681   6.676   2.620  16.885  0.3345  0.5509  0.3798
 7397TIP3    H143682   6.739   2.627  16.813  0.8428  1.7120  0.9065
 7397TIP3    H243683   6.591   2.639  16.845  0.7175  2.0982  0.2110
 7398TIP3   OH243684   0.817   2.182   6.336 -0.4960 -0.0231  0.2724
 7398TIP3    H143685   0.854   2.101   6.371 -0.1124 -0.1975 -0.5263
 7398TIP3    H243686   0.769   2.155   6.258  1.5112  0.7679 -1.3389
 7399TIP3   OH243687   5.663   2.969  11.249 -0.1894  0.1247 -0.6888
 7399TIP3    H143688   5.617   3.052  11.231 -0.0312  0.2429 -0.5504
 7399TIP3    H243689   5.693   2.978  11.339  0.5590  0.2660 -0.9426
 7400TIP3   OH243690   2.443   1.799  16.342 -0.1371  0.0693  0.5170
 7400TIP3    H143691   2.489   1.735  16.288  0.9613  1.6858 -0.5736
 7400TIP3    H243692   2.511   1.862  16.367 -1.1947  0.8938  1.4187
 7401TIP3   OH243693   4.719   1.506  11.660  0.0552 -0.3491 -0.4341
 7401TIP3    H143694   4.743   1.598  11.670  0.4430 -0.4912  0.0028
 7401TIP3    H243695   4.636   1.508  11.612  0.8582  0.1594 -1.8335
 7402TIP3   OH243696   3.245   2.997   3.406  0.3237 -0.3062  0.2622
 7402TIP3    H143697   3.330   3.038   3.424  0.2387 -0.3568  0.7944
 7402TIP3    H243698   3.228   3.016   3.314 -0.0779  1.5315  0.6699
 7403TIP3   OH243699   2.406   3.662  15.746 -0.8090  0.5490 -0.2958
 7403TIP3    H143700   2.440   3.656  15.835  0.0605  0.9755 -0.5830
 7403TIP3    H243701   2.322   3.618  15.749 -0.4287 -0.1437  0.5526
 7404TIP3   OH243702   2.947   6.668  16.748  0.1675 -0.2785  1.0451
 7404TIP3    H143703   2.988   6.718  16.677  0.0729  0.2911  1.3875
 7404TIP3    H243704   2.974   6.713  16.828  0.0165 -0.7334  1.3576
 7405TIP3   OH243705   3.663   0.789   4.548  0.2950  0.0174 -0.7860
 7405TIP3    H143706   3.682   0.703   4.586 -1.0815  0.4294  1.0188
 7405TIP3    H243707   3.572   0.805   4.571 -0.2106  0.9599 -3.1878
 7406TIP3   OH243708   1.361   1.218  10.971  0.0483  0.2197 -0.1864
 7406TIP3    H143709   1.337   1.149  10.909 -0.4092  1.1954 -1.1178
 7406TIP3    H243710   1.319   1.297  10.937 -0.2540  0.7767  1.4006
 7407TIP3   OH243711   2.360   4.982   5.458  0.1317 -0.0118  0.2969
 7407TIP3    H143712   2.437   5.027   5.423  0.4436  1.9010  3.0532
 7407TIP3    H243713   2.286   5.021   5.411  0.7039 -0.6439 -1.1795
 7408TIP3   OH243714   0.389   5.265   4.036  0.0694  0.1747 -0.0192
 7408TIP3    H143715   0.436   5.211   4.100 -1.4559 -1.6498 -0.3406
 7408TIP3    H243716   0.385   5.209   3.958 -2.8131  0.1273  0.0818
 7409TIP3   OH243717   6.796   3.183   5.315 -0.5780 -0.0189 -0.1106
 7409TIP3    H143718   6.755   3.103   5.281 -0.1451 -0.4497  0.3467
 7409TIP3    H243719   6.835   3.155   5.398 -1.9579  1.0828  0.9671
 7410TIP3   OH243720   5.224   4.452  10.625  0.3622  0.5060 -0.4649
 7410TIP3    H143721   5.199   4.474  10.535 -0.3842  0.7294 -0.2169
 7410TIP3    H243722   5.153   4.396  10.656  1.1728 -0.4935 -0.3747
 7411TIP3   OH243723   6.513   4.384  12.154 -0.7971  0.0015 -0.1569
 7411TIP3    H143724   6.429   4.423  12.178 -1.2021 -0.7120 -0.4042
 7411TIP3    H243725   6.524   4.311  12.215  1.4369  2.2826  2.4353
 7412TIP3   OH243726   3.863   6.106   3.201 -0.1092 -0.5699 -0.8607
 7412TIP3    H143727   3.803   6.158   3.254 -0.4358  1.2340 -2.8761
 7412TIP3    H243728   3.839   6.016   3.220 -2.0222  0.0583 -0.0163
 7413TIP3   OH243729   0.430   1.120   5.665 -0.0913  0.2319  0.7416
 7413TIP3    H143730   0.459   1.149   5.751 -0.3259 -1.1867  1.3234
 7413TIP3    H243731   0.350   1.069   5.682  0.1964 -0.5855 -0.2382
 7414TIP3   OH243732   2.096   2.315   6.049  0.1096 -0.0729  0.3733
 7414TIP3    H143733   2.110   2.409   6.042  2.7026 -0.3951 -0.0172
 7414TIP3    H243734   2.183   2.279   6.068 -0.9939 -2.2999  1.7119
 7415TIP3   OH243735   2.581   2.151  13.982 -0.3569 -0.3727 -0.7468
 7415TIP3    H143736   2.636   2.151  13.904 -1.5437  1.1858 -1.6407
 7415TIP3    H243737   2.518   2.080  13.967 -0.0596 -0.6179 -0.8301
 7416TIP3   OH243738   5.280   2.259   1.663 -0.4897  0.0220  0.0566
 7416TIP3    H143739   5.303   2.335   1.716  0.3366 -0.2813  0.1459
 7416TIP3    H243740   5.256   2.191   1.726  2.7945 -1.1175  0.2498
 7417TIP3   OH243741   5.116   1.594   2.053  0.2814  0.1341 -0.1769
 7417TIP3    H143742   5.181   1.548   2.000  0.4857 -0.4808  0.5931
 7417TIP3    H243743   5.156   1.678   2.073 -0.5883  1.2380 -2.6458
 7418TIP3   OH243744   4.881   2.464  12.453  0.1128  0.1536 -0.3025
 7418TIP3    H143745   4.936   2.423  12.520  0.6685 -1.2765 -1.5640
 7418TIP3    H243746   4.919   2.435  12.370 -0.8093  1.5309 -1.2511
 7419TIP3   OH243747   5.927   3.166  11.418  0.1472  0.0260 -0.5979
 7419TIP3    H143748   5.883   3.224  11.481  1.5597 -0.5325  1.0076
 7419TIP3    H243749   5.927   3.080  11.462  0.8073 -0.4765 -1.5632
 7420TIP3   OH243750   1.273   0.977   5.205  0.3318 -0.5396 -0.2568
 7420TIP3    H143751   1.236   0.991   5.293 -1.6446 -1.6566 -0.8426
 7420TIP3    H243752   1.344   0.914   5.219  0.7843  0.1471  0.6655
 7421TIP3   OH243753   0.810   5.689   2.933 -0.5013 -0.2590  0.0691
 7421TIP3    H143754   0.730   5.644   2.905 -1.6319  1.1586  0.7876
 7421TIP3    H243755   0.847   5.724   2.853 -0.0847 -1.6920 -0.3846
 7422TIP3   OH243756   1.027   6.188   2.807 -0.1176  0.3711 -0.3194
 7422TIP3    H143757   1.107   6.161   2.852  0.7031  3.5937  0.4031
 7422TIP3    H243758   0.966   6.116   2.821  0.6718  0.3119  4.4258
 7423TIP3   OH243759   3.279   5.329   0.134 -0.4079  0.2643 -0.0926
 7423TIP3    H143760   3.223   5.296   0.204  0.1333  0.3323  0.3718
 7423TIP3    H243761   3.282   5.424   0.148 -1.3842  0.4524 -1.0047
 7424TIP3   OH243762   1.108   3.405  11.775 -0.4014  0.1097  0.1957
 7424TIP3    H143763   1.029   3.456  11.755 -0.0087  0.2849 -0.9849
 7424TIP3    H243764   1.097   3.378  11.865 -2.0159 -0.2269 -0.0866
 7425TIP3   OH243765   4.324   2.783   0.463  0.1735 -0.6610  0.0609
 7425TIP3    H143766   4.332   2.710   0.401 -1.2093 -0.4675 -0.3851
 7425TIP3    H243767   4.288   2.855   0.410 -1.8676 -0.7445  1.2084
 7426TIP3   OH243768   3.397   3.489  12.043 -0.2398  0.3217 -0.4921
 7426TIP3    H143769   3.341   3.564  12.061  0.1142  0.6915 -0.9077
 7426TIP3    H243770   3.459   3.520  11.977 -0.4367 -0.4923 -1.0820
 7427TIP3   OH243771   4.850   0.221  16.245  0.4288 -0.5600 -0.2084
 7427TIP3    H143772   4.874   0.154  16.309 -2.7193 -0.5910  1.1315
 7427TIP3    H243773   4.831   0.172  16.165  2.8582 -0.6732 -0.7975
 7428TIP3   OH243774   1.550   0.538  12.048 -0.5643 -0.0916 -0.0875
 7428TIP3    H143775   1.540   0.548  11.953 -3.8481 -0.0292  0.1406
 7428TIP3    H243776   1.573   0.625  12.079 -2.0055  0.5252 -0.6450
 7429TIP3   OH243777   1.259   0.451  15.803 -0.3019 -0.1774 -0.1938
 7429TIP3    H143778   1.244   0.370  15.851 -0.9761 -0.0196 -0.1241
 7429TIP3    H243779   1.207   0.517  15.849 -0.2292  0.1687 -0.5939
 7430TIP3   OH243780   6.576   0.032   1.727  0.3698  0.1064 -0.2030
 7430TIP3    H143781   6.601  -0.048   1.681  0.9278  1.2721 -2.0277
 7430TIP3    H243782   6.510   0.073   1.670 -1.0297  0.2457  1.4337
 7431TIP3   OH243783   6.218   0.992  11.190 -0.7327 -0.2775  0.1602
 7431TIP3    H143784   6.148   1.041  11.232  0.5995  1.3842  0.5393
 7431TIP3    H243785   6.192   0.900  11.199 -1.6635  0.1455  2.4791
 7432TIP3   OH243786   6.218   1.846  13.280 -0.1976 -0.9700 -0.5081
 7432TIP3    H143787   6.231   1.917  13.218 -0.3521 -0.3598  0.1491
 7432TIP3    H243788   6.186   1.773  13.226  0.2082 -0.6357 -1.2236
 7433TIP3   OH243789   2.999   5.745   5.849  0.7788 -0.2401 -0.0148
 7433TIP3    H143790   2.925   5.721   5.793  1.7524 -4.4174  0.1820
 7433TIP3    H243791   2.959   5.770   5.933 -0.4636 -0.3875 -0.5490
 7434TIP3   OH243792   6.485   3.658   4.064  0.1299  0.2061  0.4076
 7434TIP3    H143793   6.546   3.732   4.074  1.0993 -0.1113 -2.3615
 7434TIP3    H243794   6.441   3.675   3.981 -0.5259 -1.7192  0.3287
 7435TIP3   OH243795   5.639   1.217  13.212 -0.2469 -0.2195 -0.3439
 7435TIP3    H143796   5.569   1.262  13.164  0.9524  1.9024 -0.2367
 7435TIP3    H243797   5.613   1.226  13.304 -0.7632 -1.1339 -0.3896
 7436TIP3   OH243798   2.389   1.065  13.384  0.0624 -0.0638  0.5090
 7436TIP3    H143799   2.480   1.037  13.393 -0.4507 -1.7441  0.7408
 7436TIP3    H243800   2.338   0.995  13.424 -1.3766  0.5484 -0.1849
 7437TIP3   OH243801   2.937   0.931  15.869  0.1196 -1.0602  0.4464
 7437TIP3    H143802   2.887   1.013  15.869 -0.1902 -1.2452  0.4917
 7437TIP3    H243803   2.884   0.871  15.816  1.3543 -0.6420 -1.3446
 7438TIP3   OH243804   0.737   3.264  15.840  0.1841  0.8464  0.2013
 7438TIP3    H143805   0.768   3.225  15.922  0.6257 -0.8292 -0.7158
 7438TIP3    H243806   0.648   3.232  15.830 -0.6045  2.6501  0.9608
 7439TIP3   OH243807   5.254   6.713   5.296 -0.1264  0.3472 -0.4487
 7439TIP3    H143808   5.337   6.667   5.306 -0.1418  0.5087  0.5205
 7439TIP3    H243809   5.191   6.659   5.345 -0.0422  1.6358  1.1493
 7440TIP3   OH243810   5.730   3.284  13.279  0.3643  0.4869  0.3628
 7440TIP3    H143811   5.785   3.322  13.210  0.6294 -1.0152 -0.2980
 7440TIP3    H243812   5.789   3.228  13.329 -0.5371 -1.3381 -0.4994
 7441TIP3   OH243813   2.785   5.312   4.287  0.7495 -0.5541  0.4099
 7441TIP3    H143814   2.728   5.334   4.360  1.9169  0.7970  0.9598
 7441TIP3    H243815   2.861   5.369   4.298  0.3720  0.7020 -2.6105
 7442TIP3   OH243816   1.675   1.997   0.087  0.1460  0.0218  0.7941
 7442TIP3    H143817   1.742   2.048   0.042  0.8481 -0.4816  1.2509
 7442TIP3    H243818   1.634   2.059   0.147 -0.6249  0.6331 -0.3279
 7443TIP3   OH243819   3.210   1.008   6.241 -0.0000  0.1745  0.2976
 7443TIP3    H143820   3.119   0.981   6.255 -0.3201  1.4302  0.8490
 7443TIP3    H243821   3.259   0.967   6.312  0.2114 -1.9301 -0.9790
 7444TIP3   OH243822   6.415   2.374  13.967  0.1929 -0.3844 -0.0158
 7444TIP3    H143823   6.445   2.287  13.992 -1.8764 -0.6141  1.9915
 7444TIP3    H243824   6.354   2.360  13.895  1.3469 -0.3671 -1.0163
 7445TIP3   OH243825   4.402   1.884  12.071  0.0603 -0.3473  0.4395
 7445TIP3    H143826   4.398   1.815  12.006  0.0386 -1.2469  1.3650
 7445TIP3    H243827   4.344   1.854  12.142  1.3560 -0.2158  1.6049
 7446TIP3   OH243828   4.913   0.405  12.966  0.0120  1.3522 -0.3046
 7446TIP3    H143829   4.947   0.437  13.050  0.3739  1.8099 -0.6217
 7446TIP3    H243830   4.934   0.311  12.966  0.3077  1.4180 -0.0255
 7447TIP3   OH243831   0.050   6.643  11.622 -0.0211  0.2950 -0.3153
 7447TIP3    H143832  -0.003   6.713  11.584  0.6538 -0.3408 -2.6246
 7447TIP3    H243833  -0.006   6.565  11.619  0.1355  0.1790 -0.2861
 7448TIP3   OH243834   3.621   0.087   4.001 -0.0525  0.2153  0.4699
 7448TIP3    H143835   3.553   0.110   3.937 -1.9152  1.1018  2.6627
 7448TIP3    H243836   3.579   0.025   4.059  1.7961 -1.0109  0.5652
 7449TIP3   OH243837   1.440   3.435   0.447  0.0324 -0.2923 -0.3793
 7449TIP3    H143838   1.384   3.392   0.383 -0.4148  1.3631 -1.1401
 7449TIP3    H243839   1.392   3.427   0.530 -0.1926 -0.9385 -0.5641
 7450TIP3   OH243840   3.256   3.301   0.903  0.4302 -0.2084  0.3408
 7450TIP3    H143841   3.206   3.220   0.896  1.0595 -0.8878  2.7327
 7450TIP3    H243842   3.191   3.370   0.887 -1.2546 -1.0876  2.6998
 7451TIP3   OH243843   4.652   4.054  14.066 -0.2007 -0.2620  0.1210
 7451TIP3    H143844   4.580   4.035  14.128 -0.7217  1.9051  0.2635
 7451TIP3    H243845   4.608   4.065  13.982  0.1481 -0.3238 -0.0680
 7452TIP3   OH243846   4.940   0.423   4.325 -0.1153 -0.1504 -0.4144
 7452TIP3    H143847   5.019   0.380   4.293  0.5286 -0.2045  1.1369
 7452TIP3    H243848   4.912   0.370   4.399 -0.5433  0.8866  0.1925
 7453TIP3   OH243849   6.528   3.685   4.589  0.0704  0.1954 -0.0241
 7453TIP3    H143850   6.557   3.771   4.559 -0.2299  0.9340  1.6495
 7453TIP3    H243851   6.597   3.657   4.650  0.2120 -0.7958 -0.6372
 7454TIP3   OH243852   6.531   6.439   4.075  0.0733  0.2330  0.4056
 7454TIP3    H143853   6.621   6.425   4.105  0.6599 -0.1514 -1.4226
 7454TIP3    H243854   6.512   6.363   4.020 -1.3256  0.4028  0.6133
 7455TIP3   OH243855   0.303   2.845   5.986  0.3630 -0.5622  0.1004
 7455TIP3    H143856   0.230   2.798   5.944  0.4681  1.5592 -2.7875
 7455TIP3    H243857   0.260   2.912   6.039  0.1660  0.1989 -0.9918
 7456TIP3   OH243858   4.777   0.749  14.804 -0.1780 -0.1244  0.1812
 7456TIP3    H143859   4.755   0.814  14.737 -0.1846  1.1930  1.4264
 7456TIP3    H243860   4.767   0.795  14.887  4.1539 -0.3316  1.0319
 7457TIP3   OH243861   4.783   6.128  16.964 -0.5209  0.1992 -0.2072
 7457TIP3    H143862   4.875   6.127  16.939 -0.7882  0.1851 -1.2162
 7457TIP3    H243863   4.755   6.037  16.961 -0.3472  0.0897  0.9903
 7458TIP3   OH243864   3.510   2.958   4.312 -0.5343 -0.6430 -0.0636
 7458TIP3    H143865   3.587   2.960   4.369 -0.2917 -0.7419 -0.3888
 7458TIP3    H243866   3.439   2.932   4.371 -0.1088 -1.7261 -0.0001
 7459TIP3   OH243867   2.099   6.208  13.854  0.0498 -0.3641  0.0788
 7459TIP3    H143868   2.034   6.201  13.784  0.3022 -1.6358 -0.0439
 7459TIP3    H243869   2.119   6.118  13.878 -0.3001  0.0436  2.0625
 7460TIP3   OH243870   3.376   1.917   2.477 -0.2333  0.3035  0.0312
 7460TIP3    H143871   3.465   1.953   2.481 -0.6866  1.8953 -2.1279
 7460TIP3    H243872   3.387   1.824   2.495  1.8008  0.5651  0.3833
 7461TIP3   OH243873   5.321   2.169   6.177 -0.3434  0.2099  0.1938
 7461TIP3    H143874   5.401   2.158   6.126 -0.1146 -0.0328  0.6061
 7461TIP3    H243875   5.348   2.158   6.268 -0.5834  1.5600  0.4548
 7462TIP3   OH243876   5.896   5.968   0.338  0.0340  0.1257  0.0590
 7462TIP3    H143877   5.910   6.063   0.333  0.4488  0.1311  0.9919
 7462TIP3    H243878   5.923   5.945   0.427 -2.5601 -0.4549  0.7621
 7463TIP3   OH243879   4.700   1.794  16.625 -0.1862  0.3280 -0.7609
 7463TIP3    H143880   4.759   1.767  16.695 -2.0494  0.0922  0.8056
 7463TIP3    H243881   4.713   1.729  16.556  1.1685  0.1397 -0.3456
 7464TIP3   OH243882   1.016   0.037  14.502 -0.2690 -0.0393 -0.1004
 7464TIP3    H143883   1.078   0.100  14.538 -0.1223 -1.9259  3.3741
 7464TIP3    H243884   0.945   0.033  14.566 -1.1934 -2.0201 -1.1413
 7465TIP3   OH243885   6.597   6.359  16.034 -0.2631  0.4687  0.0582
 7465TIP3    H143886   6.667   6.407  16.079 -0.0940  1.8497 -1.5593
 7465TIP3    H243887   6.640   6.280  16.002  0.0551  0.3488  0.7663
 7466TIP3   OH243888   5.526   2.446  14.953 -0.2590 -0.1196  0.9563
 7466TIP3    H143889   5.620   2.434  14.965 -0.7479 -1.5415  4.7563
 7466TIP3    H243890   5.508   2.532  14.991 -0.3829  0.7413 -0.9692
 7467TIP3   OH243891   5.348   3.308   0.540  0.2890  0.3561  0.2599
 7467TIP3    H143892   5.253   3.295   0.547  0.5572 -1.1484  1.6078
 7467TIP3    H243893   5.376   3.328   0.629  1.5982 -2.1232  0.4781
 7468TIP3   OH243894   2.429   0.875   4.273  0.3234 -0.4298  0.1302
 7468TIP3    H143895   2.443   0.946   4.336 -1.3129  0.9630 -0.9662
 7468TIP3    H243896   2.387   0.806   4.323 -0.0652  0.2692  0.7886
 7469TIP3   OH243897   2.081   3.229   2.524  0.3892 -0.2463  0.6362
 7469TIP3    H143898   2.164   3.183   2.511 -0.9761 -2.2860 -1.7640
 7469TIP3    H243899   2.029   3.169   2.578 -0.0078  0.4060  0.9920
 7470TIP3   OH243900   2.080   1.970   0.486  0.9841  0.1810  0.8435
 7470TIP3    H143901   2.063   1.932   0.400  0.8680 -1.3148  1.4887
 7470TIP3    H243902   2.028   1.916   0.546  1.6870  0.6871  1.9365
 7471TIP3   OH243903   5.359   0.920   2.022 -0.3446  0.3810  0.7228
 7471TIP3    H143904   5.335   0.832   1.991 -1.7667  1.7122 -2.4339
 7471TIP3    H243905   5.331   0.921   2.114 -0.6221 -2.3216  0.7641
 7472TIP3   OH243906   1.976   0.718   1.072  0.8558  0.4981  0.0879
 7472TIP3    H143907   2.030   0.792   1.100  0.3056  0.8063  0.3465
 7472TIP3    H243908   1.886   0.750   1.077  0.5295 -0.5317  1.2484
 7473TIP3   OH243909   3.840   2.355   0.344 -0.3792 -0.1539 -0.6716
 7473TIP3    H143910   3.770   2.396   0.293 -1.2545 -1.3215 -0.4518
 7473TIP3    H243911   3.837   2.263   0.318  1.4832 -0.1302 -1.0935
 7474TIP3   OH243912   1.318   4.317  16.598 -0.1040 -0.1002 -0.6453
 7474TIP3    H143913   1.258   4.390  16.609 -0.8345 -0.7341 -0.2679
 7474TIP3    H243914   1.405   4.356  16.599 -0.4933  0.8015 -0.8861
 7475TIP3   OH243915   0.396   3.141   3.079  0.9087 -0.3075  0.4840
 7475TIP3    H143916   0.434   3.146   3.167  1.8993 -0.8582  0.1048
 7475TIP3    H243917   0.414   3.226   3.040  0.3149 -0.0002  0.8657
 7476TIP3   OH243918   3.670   1.979  13.032  0.4322  0.2907 -0.0771
 7476TIP3    H143919   3.719   2.061  13.032  0.4969  0.3184  2.0540
 7476TIP3    H243920   3.662   1.956  13.125 -2.7472 -0.2088 -0.3542
 7477TIP3   OH243921   6.253   1.615  16.872 -0.1474 -0.4617  0.2797
 7477TIP3    H143922   6.223   1.705  16.857 -0.1092 -0.4608  0.2095
 7477TIP3    H243923   6.347   1.617  16.853 -0.3967 -0.8276 -1.0750
 7478TIP3   OH243924   1.775   1.010   0.975  0.4895 -0.2836  0.5460
 7478TIP3    H143925   1.706   1.076   0.982  1.5761  1.0650 -0.7266
 7478TIP3    H243926   1.732   0.935   0.933 -0.6410 -0.2347  1.5467
 7479TIP3   OH243927   6.404   0.490  14.630 -0.7356 -0.4799 -0.3826
 7479TIP3    H143928   6.369   0.577  14.651  0.3904 -0.2457  0.6390
 7479TIP3    H243929   6.395   0.482  14.536  0.6118  1.4229 -0.7281
 7480TIP3   OH243930   1.942   1.608   2.356 -0.8769 -0.0234  0.0864
 7480TIP3    H143931   1.851   1.601   2.384 -0.9975  0.4411 -0.1703
 7480TIP3    H243932   1.986   1.535   2.398 -1.3215 -0.1092  0.4095
 7481TIP3   OH243933   2.804   3.762   0.271  0.6511 -0.3915  0.2451
 7481TIP3    H143934   2.780   3.688   0.327  1.0030 -0.8907 -0.2478
 7481TIP3    H243935   2.866   3.813   0.324  0.6537 -0.6245  0.4692
 7482TIP3   OH243936   2.855   0.332  15.232  0.1582  0.2013 -0.2704
 7482TIP3    H143937   2.846   0.307  15.140 -1.8714 -0.3348  0.0290
 7482TIP3    H243938   2.770   0.368  15.256  0.8154  0.8230  1.2735
 7483TIP3   OH243939   0.825   6.009   0.021 -0.0452  0.2749  0.0350
 7483TIP3    H143940   0.743   5.972   0.054 -0.0924  0.2235 -0.1415
 7483TIP3    H243941   0.882   5.933   0.007 -0.7375  0.0994 -2.0089
 7484TIP3   OH243942   2.619   5.371   0.039 -0.5576  0.3986  0.6448
 7484TIP3    H143943   2.685   5.418   0.089 -1.1938  1.1435  0.8188
 7484TIP3    H243944   2.537   5.416   0.059 -1.1762 -0.6994  0.6896
 7485TIP3   OH243945   2.726   0.042  12.994  0.1401 -0.6041  0.4561
 7485TIP3    H143946   2.810   0.054  12.949  1.1526 -0.9591  2.1405
 7485TIP3    H243947   2.736  -0.043  13.039 -1.2527 -0.8061  0.4070
 7486TIP3   OH243948   2.873   1.111   3.306  0.4770  0.2258 -0.4901
 7486TIP3    H143949   2.795   1.075   3.263  0.4733  0.5774 -0.7882
 7486TIP3    H243950   2.905   1.040   3.362  0.1031 -0.0161 -0.5778
 7487TIP3   OH243951   4.352   3.215   4.674 -0.0243 -0.2345  0.0385
 7487TIP3    H143952   4.335   3.262   4.756 -0.3027  1.5733 -1.0023
 7487TIP3    H243953   4.447   3.225   4.660  0.0504 -0.6813  0.2118
 7488TIP3   OH243954   1.658   6.731   6.548 -0.0819 -0.2525 -0.0383
 7488TIP3    H143955   1.613   6.800   6.596  1.0478  0.0743  0.5794
 7488TIP3    H243956   1.641   6.652   6.598  1.6969  0.1973  1.3860
 7489TIP3   OH243957   4.657   5.985  15.308 -0.0779 -0.0044  0.5271
 7489TIP3    H143958   4.575   5.971  15.356 -0.0062  3.1273  1.7949
 7489TIP3    H243959   4.724   5.946  15.364 -0.4277 -0.2256  0.8041
 7490TIP3   OH243960   6.587   2.138  16.948 -0.0771 -0.9378  0.1875
 7490TIP3    H143961   6.590   2.159  16.854 -1.7534 -1.2319  0.0520
 7490TIP3    H243962   6.528   2.204  16.985 -0.1391 -1.3821  0.8865
 7491TIP3   OH243963   0.685   3.343  13.651 -0.3425  0.4584 -0.1076
 7491TIP3    H143964   0.659   3.426  13.613  2.4457  0.5443 -2.1116
 7491TIP3    H243965   0.721   3.293  13.578  1.9692 -0.8135  1.7510
 7492TIP3   OH243966   4.967   2.518  15.313 -0.5978 -0.5709 -0.2627
 7492TIP3    H143967   4.949   2.561  15.229 -1.1769  0.0942  0.1942
 7492TIP3    H243968   5.008   2.435  15.289  1.3056  0.5650 -1.1636
 7493TIP3   OH243969   6.244   5.885  10.949 -0.2059  0.2897 -0.1171
 7493TIP3    H143970   6.169   5.908  10.895 -0.5805  0.4754  0.4715
 7493TIP3    H243971   6.318   5.884  10.889 -0.7179 -0.1603 -0.7603
 7494TIP3   OH243972   0.507   3.459   1.819  0.2609  0.4897 -0.2646
 7494TIP3    H143973   0.572   3.505   1.766  0.4097  0.3149 -0.2370
 7494TIP3    H243974   0.496   3.374   1.775  0.3176  0.3794 -0.0696
 7495TIP3   OH243975   6.809   4.672   2.913  0.4641 -0.2749  0.2327
 7495TIP3    H143976   6.848   4.597   2.869  0.7054  1.2095 -2.2727
 7495TIP3    H243977   6.881   4.734   2.924 -0.7561  2.2945 -3.9777
 7496TIP3   OH243978   1.356   6.068   1.737 -0.4255 -0.0288  0.5207
 7496TIP3    H143979   1.273   6.116   1.735 -0.7817 -0.5731  1.4080
 7496TIP3    H243980   1.421   6.130   1.704 -1.2067  0.3574 -0.3215
 7497TIP3   OH243981   1.386   3.637  14.049 -0.5272  0.2324  0.2213
 7497TIP3    H143982   1.419   3.614  14.136 -2.3635  1.4888  1.3384
 7497TIP3    H243983   1.464   3.644  13.994  0.6614 -0.8842  1.6668
 7498TIP3   OH243984   2.739   0.916  11.543  0.0337  0.1832  0.1923
 7498TIP3    H143985   2.691   0.848  11.591  0.4773  0.8315  1.6071
 7498TIP3    H243986   2.671   0.973  11.507 -0.2990  0.0132  0.5463
 7499TIP3   OH243987   2.729   1.180  16.442  0.6493 -0.6638  0.0183
 7499TIP3    H143988   2.778   1.242  16.496  1.6152 -0.7478 -0.7262
 7499TIP3    H243989   2.768   1.095  16.462 -1.4856 -1.2945  1.9818
 7500TIP3   OH243990   3.727   0.064   4.838 -0.3153  0.1761 -0.0089
 7500TIP3    H143991   3.701  -0.002   4.773 -0.6703 -0.1009  0.4106
 7500TIP3    H243992   3.817   0.039   4.862 -1.3852 -1.8745  2.2211
 7501TIP3   OH243993   1.285   1.658   6.487  0.0897  0.1450 -0.2433
 7501TIP3    H143994   1.349   1.725   6.465  1.1233 -0.0273  2.0001
 7501TIP3    H243995   1.260   1.676   6.578  1.1330 -2.9689  0.8065
 7502TIP3   OH243996   2.056   1.871  13.559 -0.2206  0.0378 -0.6867
 7502TIP3    H143997   2.019   1.783  13.559  0.1023 -0.1025 -0.1704
 7502TIP3    H243998   1.980   1.929  13.556 -0.6612 -0.2032  2.5018
 7503TIP3   OH243999   4.661   6.024   0.679  0.1211  0.2681  0.1033
 7503TIP3    H144000   4.706   6.108   0.675  1.7651 -0.4214  2.2182
 7503TIP3    H244001   4.691   5.985   0.761  0.7992 -3.1407 -1.5806
 7504TIP3   OH244002   1.631   3.248  11.664 -0.2011 -0.2924 -0.3863
 7504TIP3    H144003   1.623   3.326  11.719  0.4877 -0.8152  0.4759
 7504TIP3    H244004   1.686   3.276  11.591  0.2682 -0.0339  0.0568
 7505TIP3   OH244005   0.899   3.936   4.772  0.2857  0.2756 -0.1511
 7505TIP3    H144006   0.942   4.014   4.737  0.2831  0.1959 -0.3356
 7505TIP3    H244007   0.845   3.969   4.844  0.6438  0.3748  0.0731
 7506TIP3   OH244008   5.044   0.745  12.488 -0.1173  0.0685  0.5122
 7506TIP3    H144009   5.054   0.650  12.480  0.3309  0.1115  0.5636
 7506TIP3    H244010   5.019   0.759  12.579  0.9004  0.0879  0.7932
 7507TIP3   OH244011   4.564   3.674  10.496 -0.0911  0.0094 -0.1716
 7507TIP3    H144012   4.509   3.605  10.533  0.2083 -1.5712 -2.4862
 7507TIP3    H244013   4.594   3.638  10.413  1.6901  2.1904 -0.5427
 7508TIP3   OH244014   3.498   5.560  15.535 -0.3663 -0.8424 -0.5153
 7508TIP3    H144015   3.460   5.511  15.608 -0.2463 -0.4872 -0.2121
 7508TIP3    H244016   3.534   5.639  15.575 -0.5299 -0.5213 -0.9980
 7509TIP3   OH244017   6.717   2.160   6.411 -0.4368 -0.0494 -0.1536
 7509TIP3    H144018   6.675   2.239   6.377 -0.0344 -0.1192 -0.8289
 7509TIP3    H244019   6.772   2.129   6.339 -1.0580 -1.2982 -0.1328
 7510TIP3   OH244020   5.423   0.768  14.302 -0.4347  0.0943 -0.4145
 7510TIP3    H144021   5.494   0.705  14.302  0.3753  0.9779  0.6545
 7510TIP3    H244022   5.359   0.732  14.240 -0.6052 -2.4191  1.0960
 7511TIP3   OH244023   5.200   4.249   5.155 -0.1206 -0.1243  0.5169
 7511TIP3    H144024   5.282   4.239   5.205  1.7932 -0.1818 -2.3834
 7511TIP3    H244025   5.179   4.161   5.125  0.1246  0.2093 -0.6978
 7512TIP3   OH244026   5.201   4.166  14.972 -0.4196 -0.1089  0.0953
 7512TIP3    H144027   5.264   4.143  15.040 -0.7531  0.8130  0.7292
 7512TIP3    H244028   5.120   4.122  14.998 -0.3351 -0.4058 -0.1384
 7513TIP3   OH244029   6.492   3.997   3.835  0.4211 -0.1682 -0.2383
 7513TIP3    H144030   6.508   4.076   3.887 -0.1954 -0.1029 -0.1387
 7513TIP3    H244031   6.466   4.030   3.748 -1.0783 -0.2155  0.1561
 7514TIP3   OH244032   1.223   4.150   1.693 -0.0011  0.0577  0.2396
 7514TIP3    H144033   1.165   4.179   1.622  0.7924 -0.8955 -0.8317
 7514TIP3    H244034   1.304   4.199   1.679  0.9368 -1.6976 -0.8890
 7515TIP3   OH244035   6.358   0.787   1.673  0.1700 -0.7187  0.1028
 7515TIP3    H144036   6.438   0.733   1.668 -0.3835 -1.6282  0.7049
 7515TIP3    H244037   6.367   0.834   1.755 -0.0795 -1.1111  0.3592
 7516TIP3   OH244038   4.711   1.740   0.055  0.0634  0.3763  0.1199
 7516TIP3    H144039   4.645   1.741   0.125  1.5232 -0.4244  1.5602
 7516TIP3    H244040   4.667   1.782  -0.019 -2.0545 -0.1124  1.0219
 7517TIP3   OH244041   0.511   5.299  12.942 -0.1769  0.5189 -0.0639
 7517TIP3    H144042   0.507   5.236  12.869  1.4436 -0.0005  0.2484
 7517TIP3    H244043   0.548   5.378  12.902 -3.0528  1.6624 -0.6608
 7518TIP3   OH244044   6.716   4.671   0.626  0.5000  0.6607  0.0582
 7518TIP3    H144045   6.656   4.687   0.554  0.4200 -1.2934 -0.3755
 7518TIP3    H244046   6.794   4.723   0.604 -0.6221  2.4360  0.1333
 7519TIP3   OH244047   4.553   3.813  16.306 -0.3931 -0.5210 -0.3292
 7519TIP3    H144048   4.567   3.787  16.215  0.9258 -0.1584 -0.2564
 7519TIP3    H244049   4.635   3.856  16.331 -0.7915 -0.4893  0.9855
 7520TIP3   OH244050   4.404   5.229  12.728  0.2933  0.3321  0.6240
 7520TIP3    H144051   4.478   5.195  12.677  0.2395  0.8909  0.1656
 7520TIP3    H244052   4.329   5.177  12.699  0.6138 -0.6872  1.5701
 7521TIP3   OH244053   4.201   1.973   6.137 -0.5880  0.2835  0.7041
 7521TIP3    H144054   4.229   2.048   6.190 -0.5916  0.4101  0.5303
 7521TIP3    H244055   4.162   1.912   6.199 -0.0981  0.1924  0.9231
 7522TIP3   OH244056   2.691   3.465   0.777  0.6505  0.3007  0.0675
 7522TIP3    H144057   2.642   3.514   0.843 -1.5787 -0.4964 -0.8905
 7522TIP3    H244058   2.672   3.511   0.695  0.3405 -0.8327 -0.5179
 7523TIP3   OH244059   4.197   3.395  16.632 -0.8422  0.5328 -0.4622
 7523TIP3    H144060   4.153   3.328  16.580 -0.7503  0.5059 -0.5062
 7523TIP3    H244061   4.280   3.411  16.587  0.8154 -1.9000  1.4474
 7524TIP3   OH244062   2.167   5.851  13.401  0.4475  0.4396 -0.1484
 7524TIP3    H144063   2.187   5.863  13.494  0.5355 -0.2224 -0.0759
 7524TIP3    H244064   2.081   5.809  13.400  0.1409  1.0641 -0.3899
 7525TIP3   OH244065   4.706   4.404  15.855  0.1878 -0.2145  0.0842
 7525TIP3    H144066   4.729   4.354  15.777  0.2106 -0.8339  0.4839
 7525TIP3    H244067   4.756   4.485  15.847  1.5372 -0.9991  0.2957
 7526TIP3   OH244068   1.680   3.366  16.192  0.4493 -0.3721 -0.1162
 7526TIP3    H144069   1.774   3.347  16.192  0.5151 -0.1126  1.3244
 7526TIP3    H244070   1.652   3.343  16.103  1.7806 -0.8879 -0.4369
 7527TIP3   OH244071   3.279   5.390  14.440 -0.0737 -0.1378  0.5978
 7527TIP3    H144072   3.192   5.359  14.465 -0.3956  0.9149  0.8747
 7527TIP3    H244073   3.339   5.322  14.470 -0.7178 -0.3406  1.4676
 7528TIP3   OH244074   0.399   0.205  11.255 -0.5172  0.4138  0.1777
 7528TIP3    H144075   0.378   0.209  11.161 -0.8466 -0.0875  0.2235
 7528TIP3    H244076   0.424   0.294  11.278  0.8474  0.2874 -0.6863
 7529TIP3   OH244077   4.665   3.516   4.058 -0.3219 -0.3283 -0.4478
 7529TIP3    H144078   4.634   3.596   4.016  0.6992  1.0742  1.3464
 7529TIP3    H244079   4.678   3.540   4.149 -0.6806 -2.7592  0.3149
 7530TIP3   OH244080   2.282   6.374   0.433  0.1362 -0.3698  0.2710
 7530TIP3    H144081   2.377   6.373   0.425  0.1503 -2.0206  0.2155
 7530TIP3    H244082   2.262   6.304   0.496 -0.9611  1.0526  1.5974
 7531TIP3   OH244083   6.056   0.483   2.428  0.4962 -0.2208 -0.2021
 7531TIP3    H144084   6.111   0.550   2.467  1.4997 -0.7319 -0.7078
 7531TIP3    H244085   6.113   0.407   2.418  0.0175 -0.4305 -1.7305
 7532TIP3   OH244086   2.205   6.020  11.177 -0.1207 -0.2983  0.3950
 7532TIP3    H144087   2.233   6.031  11.086 -3.6458  0.0580 -0.7916
 7532TIP3    H244088   2.263   5.952  11.211  0.4097 -1.5236 -2.5790
 7533TIP3   OH244089   2.226   2.640   4.934 -0.6809 -0.8117 -0.0994
 7533TIP3    H144090   2.294   2.611   4.995 -0.8388 -0.2027  0.3748
 7533TIP3    H244091   2.154   2.669   4.990 -0.6004  0.3206 -0.5435
 7534TIP3   OH244092   3.560   2.448   2.450  0.0310  0.4286  0.1945
 7534TIP3    H144093   3.522   2.473   2.366 -1.0572 -0.3433  0.4313
 7534TIP3    H244094   3.505   2.376   2.481  2.1158 -1.2576  0.2203
 7535TIP3   OH244095   5.303   4.749   5.107  0.5436 -0.2606  0.1920
 7535TIP3    H144096   5.372   4.795   5.059  0.0860 -1.2047 -1.4345
 7535TIP3    H244097   5.349   4.682   5.157  0.7256 -3.6397 -3.9657
 7536TIP3   OH244098   2.818   3.413   1.714 -0.3300  0.2414  0.3792
 7536TIP3    H144099   2.745   3.473   1.722 -0.2811  0.4973 -0.8982
 7536TIP3    H244100   2.782   3.328   1.738 -1.0815  0.3483 -0.3463
 7537TIP3   OH244101   1.539   1.727   1.483 -0.2588 -0.2655  0.1303
 7537TIP3    H144102   1.608   1.767   1.536  0.1069  2.4087 -2.1680
 7537TIP3    H244103   1.586   1.673   1.420 -0.6954 -3.4196  2.2523
 7538TIP3   OH244104   4.007   1.872  14.741 -0.3811 -0.4227 -0.1186
 7538TIP3    H144105   3.983   1.780  14.742 -0.7075 -0.3481  1.0510
 7538TIP3    H244106   4.097   1.874  14.711 -0.5644 -1.0669 -0.7222
 7539TIP3   OH244107   4.140   2.522   3.089 -0.4748  0.1583  0.6175
 7539TIP3    H144108   4.081   2.594   3.112 -1.6845 -0.5411 -0.1557
 7539TIP3    H244109   4.150   2.471   3.170 -0.2553  0.7371  0.9603
 7540TIP3   OH244110   6.657   2.886   3.641  0.0994  0.0319 -0.4269
 7540TIP3    H144111   6.685   2.959   3.697 -0.4843  0.5716 -0.8281
 7540TIP3    H244112   6.738   2.843   3.615  0.5774  1.4373 -1.3863
 7541TIP3   OH244113   6.644   1.742  14.531  0.3272  0.2451 -0.6834
 7541TIP3    H144114   6.626   1.811  14.467 -1.4513  1.2960  0.8295
 7541TIP3    H244115   6.623   1.782  14.616  1.7738 -1.3639  0.4952
 7542TIP3   OH244116   6.178   1.147  13.828 -0.7683 -0.6828  0.2581
 7542TIP3    H144117   6.241   1.211  13.862 -0.7800  0.3039 -1.4872
 7542TIP3    H244118   6.107   1.199  13.792 -0.9382 -1.6717 -0.9115
 7543TIP3   OH244119   5.630   3.372  13.709 -0.5501  0.2705  0.5712
 7543TIP3    H144120   5.581   3.417  13.640  0.0000  0.6564  0.4214
 7543TIP3    H244121   5.595   3.283  13.710 -1.9994  0.8175  1.2010
 7544TIP3   OH244122   1.942   5.338   3.241 -0.5863 -0.1675  0.5870
 7544TIP3    H144123   1.974   5.278   3.174 -0.2133 -0.2296  0.8137
 7544TIP3    H244124   1.887   5.400   3.194 -0.5652 -0.3863  0.2703
 7545TIP3   OH244125   1.027   5.462  12.164 -0.4087 -0.0642  0.0319
 7545TIP3    H144126   0.983   5.546  12.156 -1.4039 -0.5234  0.4808
 7545TIP3    H244127   0.975   5.414  12.229  0.2905 -0.9204 -0.0272
 7546TIP3   OH244128   6.747   3.724  13.304  0.0794  0.3709  0.6024
 7546TIP3    H144129   6.741   3.816  13.329  2.1956  1.0649 -1.1712
 7546TIP3    H244130   6.804   3.685  13.370  0.8436  0.8422  0.2438
 7547TIP3   OH244131   2.624   6.097  14.025  0.3426  1.3243  0.3921
 7547TIP3    H144132   2.676   6.151  13.966 -0.3355 -1.3285 -2.9273
 7547TIP3    H244133   2.677   6.018  14.038 -1.2020  0.2003  0.0724
 7548TIP3   OH244134   0.813   6.010  11.155 -0.4730  0.3972  0.1442
 7548TIP3    H144135   0.905   6.033  11.141 -0.1355 -0.5303  0.7832
 7548TIP3    H244136   0.789   6.055  11.236  0.0977 -1.1434  1.2235
 7549TIP3   OH244137   2.887   5.740   2.556 -0.0971  0.6653  0.3063
 7549TIP3    H144138   2.853   5.765   2.470 -0.5777 -0.6499  0.0968
 7549TIP3    H244139   2.956   5.804   2.573 -1.4833  2.3357 -0.0313
 7550TIP3   OH244140   6.453   6.223  14.828 -0.3057  0.2738 -0.1471
 7550TIP3    H144141   6.436   6.306  14.783 -0.1930  0.9502  1.0054
 7550TIP3    H244142   6.539   6.196  14.797  0.0303  1.0344  0.0792
 7551TIP3   OH244143   4.214   0.315  15.743 -0.5003 -0.2472  0.2676
 7551TIP3    H144144   4.266   0.330  15.822  1.1838  0.7945 -0.9612
 7551TIP3    H244145   4.273   0.338  15.671 -2.8195  1.5069 -1.2261
 7552TIP3   OH244146   5.157   1.319   2.924 -0.1492 -0.0564 -0.0541
 7552TIP3    H144147   5.191   1.335   3.012 -0.3550  1.4890 -0.2241
 7552TIP3    H244148   5.089   1.386   2.912 -0.9791 -1.0263 -0.9393
 7553TIP3   OH244149   0.440   5.011  13.053  0.4707 -0.3391  0.0233
 7553TIP3    H144150   0.376   5.068  13.009 -0.8297 -1.4440  0.4297
 7553TIP3    H244151   0.452   4.938  12.993  1.8554  0.1482 -0.3271
 7554TIP3   OH244152   5.527   1.951   5.830 -0.5455 -0.1813  0.1251
 7554TIP3    H144153   5.550   1.870   5.874  0.9682  0.1332 -0.0410
 7554TIP3    H244154   5.546   2.020   5.894 -1.4535  0.0764  0.1316
 7555TIP3   OH244155   1.753   0.451   3.332 -0.3325  0.1161  0.5099
 7555TIP3    H144156   1.712   0.464   3.418  0.2307 -0.6244  0.9019
 7555TIP3    H244157   1.703   0.380   3.293  0.4192 -0.6394  0.8977
 7556TIP3   OH244158   0.558   3.734  15.104  0.4834  0.2353 -0.3973
 7556TIP3    H144159   0.476   3.708  15.147 -0.3229 -0.6165 -2.3231
 7556TIP3    H244160   0.624   3.677  15.142  0.0508  0.4335  0.6717
 7557TIP3   OH244161   3.256   6.734   1.007  0.0426 -0.2021  0.0085
 7557TIP3    H144162   3.251   6.780   1.091 -3.0237  0.0336 -0.1680
 7557TIP3    H244163   3.209   6.792   0.946  1.3392 -0.8378 -1.6626
 7558TIP3   OH244164   2.232   2.112  16.372  0.1316 -0.3641 -0.2324
 7558TIP3    H144165   2.226   2.207  16.366 -0.1576 -0.4057 -0.6659
 7558TIP3    H244166   2.198   2.091  16.459  0.7203 -0.0288  0.0778
 7559TIP3   OH244167   2.905   5.492  15.047  0.0963  0.1949  0.1517
 7559TIP3    H144168   2.946   5.408  15.068  3.2662  0.9423 -2.2489
 7559TIP3    H244169   2.850   5.473  14.970 -2.2160 -0.2901  1.8236
 7560TIP3   OH244170   6.776   4.671   4.156  0.2822 -0.0049  0.1708
 7560TIP3    H144171   6.758   4.672   4.062  1.4228 -1.3580 -0.0891
 7560TIP3    H244172   6.856   4.722   4.165 -0.0570  0.4831  0.4834
 7561TIP3   OH244173   4.093   0.864  13.225 -0.0945 -0.1223 -0.3072
 7561TIP3    H144174   4.103   0.864  13.320 -0.0334 -2.2997 -0.2515
 7561TIP3    H244175   4.166   0.917  13.193  1.6517 -1.7448  0.7763
 7562TIP3   OH244176   2.395   3.372   1.304 -0.0174 -0.1489  0.0310
 7562TIP3    H144177   2.305   3.393   1.280 -0.7095 -0.2787  2.2967
 7562TIP3    H244178   2.443   3.371   1.221 -2.0766 -0.0150 -1.2067
 7563TIP3   OH244179   2.227   0.522  16.742 -0.2139 -0.2246  0.5748
 7563TIP3    H144180   2.143   0.554  16.710 -0.2709 -1.0511 -0.1449
 7563TIP3    H244181   2.250   0.582  16.813  0.4302  2.4254 -1.6425
 7564TIP3   OH244182   2.703   1.539   0.757  0.2381 -0.6896 -0.4315
 7564TIP3    H144183   2.741   1.454   0.735 -0.6556 -1.0110 -0.8006
 7564TIP3    H244184   2.610   1.529   0.736 -0.2764 -0.3113  1.4418
 7565TIP3   OH244185   2.626   6.482   4.036  0.2418 -0.6337 -0.2679
 7565TIP3    H144186   2.657   6.414   3.976  0.3252 -0.6019 -0.2595
 7565TIP3    H244187   2.576   6.541   3.980 -0.3731 -1.0486 -0.1678
 7566TIP3   OH244188   2.574   0.732  15.527 -0.4705  0.0108 -0.3492
 7566TIP3    H144189   2.558   0.659  15.586 -0.3895  1.1663  1.1561
 7566TIP3    H244190   2.495   0.786  15.533 -1.0128 -0.4734 -2.3033
 7567TIP3   OH244191   6.502   5.230  16.744  0.0884  0.1328  0.2931
 7567TIP3    H144192   6.486   5.156  16.686  0.0557  0.7224 -0.4689
 7567TIP3    H244193   6.584   5.268  16.712  0.1727  0.3487  0.7600
 7568TIP3   OH244194   0.210   4.770   2.869 -0.1194  0.1106 -0.0664
 7568TIP3    H144195   0.239   4.796   2.782 -0.9572  0.1980 -0.3276
 7568TIP3    H244196   0.283   4.720   2.905 -0.0579 -0.5819 -1.1097
 7569TIP3   OH244197   0.650   4.213  14.101  0.3081 -0.1398 -0.3814
 7569TIP3    H144198   0.665   4.301  14.065  0.6956  0.9162  2.1308
 7569TIP3    H244199   0.556   4.210  14.119  0.4350  0.1586  0.3898
 7570TIP3   OH244200   2.502   6.594  12.249  0.7474  0.3883 -0.3072
 7570TIP3    H144201   2.443   6.568  12.178  0.8989  1.0960 -0.6985
 7570TIP3    H244202   2.557   6.662  12.211 -0.7061  2.4744  1.1311
 7571TIP3   OH244203   6.522   4.335   3.327  0.4277 -0.0048  0.1632
 7571TIP3    H144204   6.587   4.388   3.281  0.3044  1.2242  1.3550
 7571TIP3    H244205   6.466   4.398   3.372 -0.0630 -1.1274  1.1867
 7572TIP3   OH244206   0.609   2.976   2.248  0.6855 -0.0453  0.4178
 7572TIP3    H144207   0.583   2.997   2.159  0.2258  1.0129  0.7823
 7572TIP3    H244208   0.694   2.932   2.239  0.3452 -0.5112 -0.5674
 7573TIP3   OH244209   1.296   5.404   5.600  0.0617 -0.3709  0.0684
 7573TIP3    H144210   1.243   5.481   5.621  0.9810 -0.2433  2.1297
 7573TIP3    H244211   1.235   5.345   5.555 -1.0753  0.9081 -0.1295
 7574TIP3   OH244212   4.009   6.448   0.924 -0.1314  0.2338  0.3043
 7574TIP3    H144213   3.945   6.519   0.912 -2.0883 -1.3824  0.6450
 7574TIP3    H244214   4.047   6.436   0.837  1.0518  2.3494  0.4509
 7575TIP3   OH244215   3.602   0.791   3.285 -0.0719 -0.0915 -0.3746
 7575TIP3    H144216   3.673   0.780   3.349 -0.4759 -0.6555 -0.0165
 7575TIP3    H244217   3.606   0.711   3.232 -0.1752  0.0686 -0.6248
 7576TIP3   OH244218   6.202   3.310  13.688 -0.0165 -0.1147  0.0712
 7576TIP3    H144219   6.107   3.318  13.681  0.2259  3.4538 -1.3941
 7576TIP3    H244220   6.230   3.395  13.723  2.6727 -0.9778  0.2437
 7577TIP3   OH244221   3.909   4.455  12.354 -0.4077  0.0272 -1.0347
 7577TIP3    H144222   3.888   4.365  12.328  1.0225 -0.5144 -0.4104
 7577TIP3    H244223   3.998   4.469  12.323 -0.1749  0.8087 -0.0762
 7578TIP3   OH244224   3.382   0.884   1.530  0.4215  0.3668  0.6288
 7578TIP3    H144225   3.439   0.853   1.461 -0.6499 -0.1612 -0.0361
 7578TIP3    H244226   3.403   0.977   1.538 -1.8882  1.4001 -2.9674
 7579TIP3   OH244227   1.345   3.805   6.300 -0.8180 -0.0747  0.4930
 7579TIP3    H144228   1.382   3.720   6.325  1.9821  0.9129  0.1414
 7579TIP3    H244229   1.315   3.793   6.210 -1.3692 -0.9450  0.7897
 7580TIP3   OH244230   6.671   2.159  15.668  0.3371 -0.1588  0.0441
 7580TIP3    H144231   6.761   2.130  15.686 -0.3722 -1.7442  1.2035
 7580TIP3    H244232   6.657   2.137  15.576  0.0694 -3.0600  0.6822
 7581TIP3   OH244233   0.001   0.387   2.515  0.0353 -0.2552  0.0674
 7581TIP3    H144234   0.031   0.475   2.493  0.4015 -0.2656  0.5039
 7581TIP3    H244235  -0.065   0.367   2.449  0.8868 -0.1731 -0.8178
 7582TIP3   OH244236   5.802   2.895  12.626 -0.7227  0.0461 -0.5366
 7582TIP3    H144237   5.745   2.861  12.695 -1.9781  1.8872 -0.6019
 7582TIP3    H244238   5.868   2.947  12.673 -1.8901  1.7431 -0.6700
 7583TIP3   OH244239   5.282   2.728   2.297  0.4851 -0.0691 -0.3010
 7583TIP3    H144240   5.285   2.753   2.205  1.7280 -0.1310 -0.2915
 7583TIP3    H244241   5.360   2.675   2.311 -0.1027 -0.7400  0.6034
 7584TIP3   OH244242   0.645   5.468   3.592  0.4084 -0.2102  0.2730
 7584TIP3    H144243   0.713   5.524   3.630 -0.2234  0.6181  0.2216
 7584TIP3    H244244   0.580   5.530   3.558  1.1874 -0.8548 -2.6834
 7585TIP3   OH244245   4.982   5.122  16.178  0.1669  1.0257  0.2789
 7585TIP3    H144246   5.035   5.043  16.176 -0.3322  0.6803 -2.1394
 7585TIP3    H244247   5.020   5.178  16.111 -0.5186  2.1550  0.8021
 7586TIP3   OH244248   0.617   5.545  13.648  0.0937 -0.1412 -0.3563
 7586TIP3    H144249   0.568   5.609  13.700  0.3508 -0.0063 -0.2753
 7586TIP3    H244250   0.558   5.521  13.576  0.1520  0.5070 -0.6274
 7587TIP3   OH244251   3.084   6.196  14.499  0.4066 -0.1332  0.0228
 7587TIP3    H144252   3.000   6.154  14.485  0.5885 -0.6377  0.4040
 7587TIP3    H244253   3.131   6.185  14.416  0.2077 -0.1115 -0.0927
 7588TIP3   OH244254   5.560   0.417   6.085 -0.1468 -0.7359 -0.3875
 7588TIP3    H144255   5.629   0.370   6.131  0.3807  0.5832  0.2108
 7588TIP3    H244256   5.505   0.348   6.048  0.3268 -1.8202  0.8506
 7589TIP3   OH244257   4.453   5.634   3.535 -0.8493 -0.4352  0.0197
 7589TIP3    H144258   4.537   5.608   3.572 -0.1713  1.6154  0.0263
 7589TIP3    H244259   4.427   5.559   3.481  1.3964 -0.7992 -0.6619
 7590TIP3   OH244260   6.658   1.663  12.720  0.3343 -0.4977 -0.4880
 7590TIP3    H144261   6.641   1.586  12.775 -0.7569  0.9103  1.2515
 7590TIP3    H244262   6.571   1.694  12.694  0.6409  1.0465  0.1978
 7591TIP3   OH244263   0.855   6.030   4.015 -0.3723 -0.5393  0.4150
 7591TIP3    H144264   0.926   5.984   3.969 -0.5696  1.4991 -2.1766
 7591TIP3    H244265   0.896   6.110   4.047 -1.0051 -0.4283  0.9595
 7592TIP3   OH244266   0.260   3.556   3.878  0.6590  0.2651 -0.0833
 7592TIP3    H144267   0.299   3.636   3.913  0.6928  0.6467 -0.9635
 7592TIP3    H244268   0.313   3.535   3.801  0.0882 -0.0837 -0.3902
 7593TIP3   OH244269   3.656   0.528  14.950 -0.0881 -0.8917 -0.5571
 7593TIP3    H144270   3.577   0.494  14.909  0.8944 -1.9748 -1.6611
 7593TIP3    H244271   3.700   0.577  14.880 -0.0947  0.2922  0.2347
 7594TIP3   OH244272   5.235   3.987   4.405 -0.1783 -0.1910  0.4318
 7594TIP3    H144273   5.198   4.023   4.485  0.1571 -0.9252  0.9289
 7594TIP3    H244274   5.159   3.974   4.347 -0.6108 -0.8921  1.1269
 7595TIP3   OH244275   1.018   1.043   1.327 -0.4090 -0.5070  0.1061
 7595TIP3    H144276   1.055   0.973   1.380 -0.6968 -1.2534 -0.6595
 7595TIP3    H244277   0.951   1.082   1.382  2.1040  1.5800  1.9523
 7596TIP3   OH244278   2.791   4.783   4.693  0.1109  0.1728 -0.0765
 7596TIP3    H144279   2.775   4.849   4.760  0.7767 -2.2832  2.7669
 7596TIP3    H244280   2.826   4.708   4.742  0.9057 -1.7351 -3.2688
 7597TIP3   OH244281   3.473   3.984   1.645  0.0459 -0.1897  0.4561
 7597TIP3    H144282   3.492   4.004   1.553 -0.0748  1.0953  0.6956
 7597TIP3    H244283   3.458   3.889   1.646  1.5993 -0.4973 -0.5786
 7598TIP3   OH244284   5.350   2.898  14.465 -0.1554  0.2513  0.9471
 7598TIP3    H144285   5.326   2.805  14.464  0.5404  0.0313 -1.1372
 7598TIP3    H244286   5.292   2.938  14.400  1.5185  0.6709 -0.3641
 7599TIP3   OH244287   4.092   5.399  15.413 -0.3124  0.2787  0.5745
 7599TIP3    H144288   4.074   5.308  15.438  0.1029 -0.5122 -1.7353
 7599TIP3    H244289   4.187   5.402  15.404 -0.0928  1.5824  2.6578
 7600TIP3   OH244290   6.192   2.766   4.108  0.2306  0.1641  0.0761
 7600TIP3    H144291   6.160   2.854   4.088  1.2507  0.7233  0.7885
 7600TIP3    H244292   6.267   2.781   4.166  2.0052 -1.0433 -1.7709
 7601TIP3   OH244293   1.352   6.751  16.515 -0.0028 -0.3697  0.1247
 7601TIP3    H144294   1.367   6.739  16.609 -0.5599 -1.3436  0.1080
 7601TIP3    H244295   1.272   6.804  16.511 -0.6243 -1.2813  0.2113
 7602TIP3   OH244296   1.403   4.275  15.462  0.5698 -0.3558 -0.9659
 7602TIP3    H144297   1.475   4.337  15.474 -0.5795  1.0180 -0.7574
 7602TIP3    H244298   1.384   4.278  15.368 -1.4239  2.0367 -0.6125
 7603TIP3   OH244299   2.951   3.470   3.351 -0.2090  0.2106 -0.0331
 7603TIP3    H144300   2.875   3.486   3.407 -0.2034  0.2716 -0.0426
 7603TIP3    H244301   2.914   3.447   3.266 -0.2191  1.2174 -0.3117
 7604TIP3   OH244302   1.544   2.095  14.668 -0.0136  0.1016  0.0461
 7604TIP3    H144303   1.535   2.025  14.732  1.4212 -0.1149  0.0504
 7604TIP3    H244304   1.466   2.088  14.613 -1.6707  0.7377  2.1629
 7605TIP3   OH244305   3.662   5.957  11.365 -0.0543 -0.1885  0.3378
 7605TIP3    H144306   3.704   6.004  11.293 -0.1919 -0.5917 -0.0100
 7605TIP3    H244307   3.570   5.949  11.339 -0.5051  1.2399  1.3828
 7606TIP3   OH244308   0.640   2.591  14.299  0.3137  0.5106  0.0632
 7606TIP3    H144309   0.671   2.572  14.210 -1.3109 -1.7055 -0.1079
 7606TIP3    H244310   0.683   2.525  14.353 -0.8965  0.0006  0.4387
 7607TIP3   OH244311   0.964   5.153  13.225  0.3240  0.2313  0.2494
 7607TIP3    H144312   1.054   5.168  13.197  0.3935  0.5544  0.6381
 7607TIP3    H244313   0.955   5.058  13.228  1.9168 -0.0068  4.0499
 7608TIP3   OH244314   1.056   0.903  14.132 -0.3941 -0.0295  0.2967
 7608TIP3    H144315   0.990   0.970  14.112  0.8939  0.7303 -1.8256
 7608TIP3    H244316   1.018   0.822  14.100 -1.1647  0.0011  1.0937
 7609TIP3   OH244317   5.057   6.133  16.883 -0.3881  0.0082 -0.3542
 7609TIP3    H144318   5.080   6.101  16.796  0.4510  1.8659 -0.8858
 7609TIP3    H244319   5.136   6.176  16.914 -0.8528 -0.1462  1.1034
 7610TIP3   OH244320   5.884   5.751   6.356 -0.0824 -0.3779 -0.4523
 7610TIP3    H144321   5.803   5.743   6.306  0.3430  0.5678 -1.3231
 7610TIP3    H244322   5.903   5.845   6.356 -0.3044 -0.2743  1.8949
 7611TIP3   OH244323   3.625   5.983   1.708  0.2084  0.2356  0.3607
 7611TIP3    H144324   3.541   5.940   1.727 -0.5740  1.3223 -0.4954
 7611TIP3    H244325   3.601   6.071   1.680  1.7354  1.0072  1.3374
 7612TIP3   OH244326   2.394   3.986   2.966 -0.2052 -0.0822 -0.1980
 7612TIP3    H144327   2.354   4.057   3.016 -0.7569 -0.1799 -0.4969
 7612TIP3    H244328   2.413   3.919   3.032  0.8109  0.5481  0.1673
 7613TIP3   OH244329   3.651   2.475   5.108 -0.3029  0.4571  0.2836
 7613TIP3    H144330   3.665   2.521   5.191 -0.3910  1.1807 -0.1011
 7613TIP3    H244331   3.574   2.516   5.070 -1.0662 -0.7618  0.4502
 7614TIP3   OH244332   4.932   4.690  15.440  0.6428  0.4833 -0.1517
 7614TIP3    H144333   5.017   4.647  15.442  0.3421 -0.1109  0.2161
 7614TIP3    H244334   4.890   4.658  15.360  0.1662 -0.4184  0.4486
 7615TIP3   OH244335   0.309   2.959   5.436 -0.2260  0.0651  0.2899
 7615TIP3    H144336   0.243   3.023   5.463 -2.2463 -1.2830 -1.1462
 7615TIP3    H244337   0.316   2.899   5.510  0.9765  1.3462  1.2638
 7616TIP3   OH244338   4.441   1.951  11.379  0.9200  0.9060  0.4599
 7616TIP3    H144339   4.357   1.921  11.345  1.8765  0.9947 -2.2103
 7616TIP3    H244340   4.481   1.873  11.417 -0.0156  0.6947  1.0486
 7617TIP3   OH244341   1.181   3.436  14.648  0.2157  0.1410  0.0153
 7617TIP3    H144342   1.192   3.415  14.555 -1.4952 -1.0101  0.0226
 7617TIP3    H244343   1.087   3.426  14.663  0.5274 -0.1460  1.9869
 7618TIP3   OH244344   2.249   2.764  16.118 -0.1065 -0.2915 -0.6728
 7618TIP3    H144345   2.332   2.801  16.087  1.2724 -2.0232  0.7581
 7618TIP3    H244346   2.271   2.722  16.201 -2.3152 -1.2907 -0.5288
 7619TIP3   OH244347   0.218   5.426   1.353  0.1050  0.1242 -0.1103
 7619TIP3    H144348   0.270   5.350   1.325 -0.0453 -0.4500  1.0899
 7619TIP3    H244349   0.142   5.426   1.296  1.7865  1.4996 -2.5113
 7620TIP3   OH244350   3.708   3.281  14.424 -0.7010 -0.5876 -0.3781
 7620TIP3    H144351   3.738   3.235  14.345  1.9833  0.9396 -0.3935
 7620TIP3    H244352   3.789   3.312  14.466 -2.1423  0.4080  1.8995
 7621TIP3   OH244353   5.993   6.076   5.671  0.4213 -0.3210  0.6741
 7621TIP3    H144354   6.012   6.037   5.586 -1.4967 -1.1500  0.5674
 7621TIP3    H244355   6.060   6.143   5.682  1.1785 -0.7100 -1.1312
 7622TIP3   OH244356   6.265   3.791   1.080 -0.4852 -0.2753  0.3978
 7622TIP3    H144357   6.318   3.858   1.035 -0.6291 -0.1145  0.4651
 7622TIP3    H244358   6.176   3.827   1.079 -0.5688 -0.4840  0.4033
 7623TIP3   OH244359   0.190   1.533  11.374  0.0329 -0.5730 -0.3849
 7623TIP3    H144360   0.210   1.530  11.468 -0.5935  0.6281 -0.1906
 7623TIP3    H244361   0.249   1.469  11.335  0.8931 -0.4979  0.7303
 7624TIP3   OH244362   4.685   5.226   6.506 -0.7844  0.0832  0.4451
 7624TIP3    H144363   4.744   5.292   6.541 -0.8067  1.4942 -1.9461
 7624TIP3    H244364   4.743   5.161   6.466 -0.7562  1.1548 -1.3619
 7625TIP3   OH244365   0.988   2.777   4.832 -0.0951  0.5657  0.2696
 7625TIP3    H144366   1.051   2.732   4.888  0.8970 -0.1917 -1.3687
 7625TIP3    H244367   0.964   2.856   4.881  1.0811  0.1711  1.5363
 7626TIP3   OH244368   4.407   1.915   5.448 -0.6332 -0.1248 -0.1123
 7626TIP3    H144369   4.440   1.999   5.478  2.6999 -1.9951  2.1459
 7626TIP3    H244370   4.338   1.893   5.511 -2.0015  1.1126 -1.1183
 7627TIP3   OH244371   4.256   1.336   2.093  0.2009  0.0424 -0.1604
 7627TIP3    H144372   4.343   1.301   2.116  0.6219  1.0512 -0.1688
 7627TIP3    H244373   4.208   1.336   2.175  1.3743  2.7101  0.6400
 7628TIP3   OH244374   2.539   1.682  13.876  0.1455 -0.2413 -0.7433
 7628TIP3    H144375   2.612   1.710  13.930  1.3494 -1.3099 -1.7358
 7628TIP3    H244376   2.509   1.762  13.832 -0.3359  0.4852  0.8593
 7629TIP3   OH244377   2.743   3.691  13.861  0.1500 -0.1722 -0.7925
 7629TIP3    H144378   2.756   3.785  13.863  0.1694 -0.1747 -0.7953
 7629TIP3    H244379   2.705   3.674  13.774 -0.3311 -0.1093 -0.5960
 7630TIP3   OH244380   3.925   2.460   5.354  0.1119 -0.1209  0.2074
 7630TIP3    H144381   3.943   2.425   5.267  0.2717 -1.9957  0.9583
 7630TIP3    H244382   3.850   2.518   5.341 -0.4002 -1.0219 -1.0396
 7631TIP3   OH244383   0.595   4.775  16.794 -0.5530 -0.5770  0.3310
 7631TIP3    H144384   0.675   4.723  16.777  0.6517  0.9476  1.1423
 7631TIP3    H244385   0.626   4.865  16.800 -2.1982 -0.0625  1.7436
 7632TIP3   OH244386   0.778   0.901  16.826 -0.4882 -0.2936 -0.2119
 7632TIP3    H144387   0.844   0.872  16.888 -1.2601  1.6481  1.6403
 7632TIP3    H244388   0.696   0.863  16.856 -0.7409 -0.0128 -0.5249
 7633TIP3   OH244389   6.212   2.790   3.046  0.4593  0.0596 -0.0061
 7633TIP3    H144390   6.172   2.875   3.029  1.1522  0.5351  0.6463
 7633TIP3    H244391   6.301   2.799   3.012  0.3269 -0.6429 -0.5536
 7634TIP3   OH244392   6.737   1.532   3.608 -0.7262 -0.2801 -0.4573
 7634TIP3    H144393   6.780   1.471   3.548  1.8296 -0.1249  1.0318
 7634TIP3    H244394   6.681   1.477   3.662  1.1956 -1.3452  0.5635
 7635TIP3   OH244395   5.545   2.794   2.586 -0.3372  0.6014 -0.2521
 7635TIP3    H144396   5.632   2.814   2.620  0.5462  0.8684 -2.4637
 7635TIP3    H244397   5.562   2.748   2.504 -2.3143 -0.3640 -0.1741
 7636TIP3   OH244398   6.331   2.977   2.189 -0.8754  0.5161 -0.4826
 7636TIP3    H144399   6.377   3.016   2.115 -0.1221  1.4308  0.4413
 7636TIP3    H244400   6.303   2.891   2.158  0.8777  0.1957 -1.2920
 7637TIP3   OH244401   1.878   5.069  14.772  0.1495  0.1404 -0.3918
 7637TIP3    H144402   1.930   5.004  14.820 -1.9594 -1.1071  0.3614
 7637TIP3    H244403   1.941   5.133  14.741  1.9138 -0.3052  2.0186
 7638TIP3   OH244404   0.967   5.166   3.760 -0.3005  0.4421 -0.0799
 7638TIP3    H144405   0.887   5.120   3.736 -2.2236  3.6846 -0.5627
 7638TIP3    H244406   0.960   5.179   3.854 -0.8200  1.4298 -0.2384
 7639TIP3   OH244407   4.112   1.443  16.775 -0.0896  0.0984  0.2859
 7639TIP3    H144408   4.083   1.356  16.747  1.3511 -0.3690  0.1508
 7639TIP3    H244409   4.173   1.471  16.707 -0.6727  1.3139  0.2393
 7640TIP3   OH244410   4.746   0.249   4.756 -0.0424  0.3483  0.2240
 7640TIP3    H144411   4.680   0.319   4.759  0.5875  1.0300 -1.1144
 7640TIP3    H244412   4.751   0.218   4.846 -0.3652  2.0208  0.8602
 7641TIP3   OH244413   2.943   6.627   6.169 -0.0997 -0.3951 -0.8285
 7641TIP3    H144414   2.924   6.706   6.220  1.6515  0.7748 -1.8713
 7641TIP3    H244415   3.031   6.602   6.196  0.1390 -0.8117 -1.9534
 7642TIP3   OH244416   5.162   6.001  17.162 -0.5505 -0.7831  0.2739
 7642TIP3    H144417   5.085   5.954  17.129  0.1347 -1.4574 -0.3925
 7642TIP3    H244418   5.231   5.981  17.099 -0.1842  0.9744  0.0777
 7643TIP3   OH244419   3.168   4.446   1.862 -0.2959  0.1573  0.5237
 7643TIP3    H144420   3.204   4.436   1.950  0.4501  0.3798  0.2544
 7643TIP3    H244421   3.180   4.539   1.842 -0.7293  0.1643  0.3029
 7644TIP3   OH244422   3.036   1.911  15.107 -0.1414  0.4539 -0.2109
 7644TIP3    H144423   3.078   1.907  15.021  2.3826 -1.1558  0.9647
 7644TIP3    H244424   3.063   1.830  15.150 -1.4513  1.1527  2.0588
 7645TIP3   OH244425   3.850   6.442  16.611  0.0454  0.3565 -0.1544
 7645TIP3    H144426   3.928   6.461  16.559 -0.5010  0.8267 -0.8110
 7645TIP3    H244427   3.777   6.451  16.550 -0.4924 -0.6292  0.3148
 7646TIP3   OH244428   4.647   3.539   2.260 -0.2247  0.2183 -0.1119
 7646TIP3    H144429   4.689   3.535   2.345 -0.8233  0.9046  0.2267
 7646TIP3    H244430   4.576   3.603   2.271 -1.3870 -0.9440 -0.6416
 7647TIP3   OH244431   0.516   3.605   2.530  0.0609 -0.1556 -0.2340
 7647TIP3    H144432   0.576   3.568   2.466  0.4319 -0.8469  0.5048
 7647TIP3    H244433   0.435   3.554   2.520 -0.0801  0.1214 -0.5423
 7648TIP3   OH244434   4.229   3.679   2.028 -0.3285  0.2202  0.1081
 7648TIP3    H144435   4.273   3.612   2.080  0.8731 -0.1530 -1.3066
 7648TIP3    H244436   4.165   3.631   1.976 -0.9552  0.4767  0.6360
 7649TIP3   OH244437   2.574   5.110   5.985  0.4743  0.0616 -0.3406
 7649TIP3    H144438   2.495   5.056   5.993 -0.0210  0.6396 -1.1868
 7649TIP3    H244439   2.568   5.173   6.057 -1.3450  1.9631 -2.0279
 7650TIP3   OH244440   3.508   2.453  12.663  0.3817 -0.0822 -0.3792
 7650TIP3    H144441   3.525   2.366  12.629  2.1926 -0.5534  1.5173
 7650TIP3    H244442   3.515   2.444  12.758  0.5211  2.0996 -0.1224
 7651TIP3   OH244443   4.690   6.446  11.741 -0.3474 -0.0228  0.0054
 7651TIP3    H144444   4.723   6.432  11.830 -2.1980  1.5655  1.0382
 7651TIP3    H244445   4.610   6.393  11.737 -0.4353  0.1548 -0.6027
 7652TIP3   OH244446   2.274   2.482  12.284  0.5021  0.8274  0.4229
 7652TIP3    H144447   2.312   2.398  12.309  1.8593  1.7181  1.5530
 7652TIP3    H244448   2.183   2.462  12.263  1.5752 -1.4417 -2.6720
 7653TIP3   OH244449   4.410   6.448  17.016 -1.1528  0.2876 -0.1736
 7653TIP3    H144450   4.480   6.439  17.081 -2.9504 -1.3017  1.7001
 7653TIP3    H244451   4.409   6.363  16.970 -2.7651 -0.3306  0.9045
 7654TIP3   OH244452   2.076   0.921   2.714 -0.0320  0.4695  0.7747
 7654TIP3    H144453   2.146   0.910   2.777 -1.0005  0.1671  1.8322
 7654TIP3    H244454   1.996   0.903   2.763 -0.9663  2.1879 -0.0088
 7655TIP3   OH244455   1.407   1.822   0.763 -0.1368 -0.3531 -0.1282
 7655TIP3    H144456   1.443   1.777   0.687  1.4508 -1.0965  0.9986
 7655TIP3    H244457   1.363   1.899   0.727  2.6865  0.6958 -1.6897
 7656TIP3   OH244458   5.336   5.887  11.697  0.1988  0.2764  0.2055
 7656TIP3    H144459   5.295   5.966  11.661  0.4912  0.9255  1.2753
 7656TIP3    H244460   5.340   5.827  11.623 -1.2668  0.7658 -0.3085
 7657TIP3   OH244461   6.015   1.988  13.840  0.5179  0.2470  0.9409
 7657TIP3    H144462   5.974   2.074  13.848  2.1015  1.4937 -2.4986
 7657TIP3    H244463   6.069   1.994  13.761  2.3046 -3.2891  1.6798
 7658TIP3   OH244464   5.511   3.721   2.360 -0.4058 -0.7556 -0.1392
 7658TIP3    H144465   5.583   3.781   2.340 -1.0662 -0.1911 -0.8712
 7658TIP3    H244466   5.547   3.663   2.427 -0.0777  1.1091  1.3839
 7659TIP3   OH244467   4.005   0.228  13.599 -0.3508 -0.2323 -0.5569
 7659TIP3    H144468   4.057   0.153  13.571  1.4339 -0.0591  1.8977
 7659TIP3    H244469   3.922   0.190  13.629  0.3157 -1.1904  0.1386
 7660TIP3   OH244470   5.747   6.536  14.916 -0.3136  0.2502  0.0894
 7660TIP3    H144471   5.699   6.616  14.893 -1.4742 -0.9239 -1.8456
 7660TIP3    H244472   5.787   6.508  14.834  0.5991 -0.8294  0.8774
 7661TIP3   OH244473   6.628   1.815   4.186  0.6008  0.6991 -0.1435
 7661TIP3    H144474   6.664   1.831   4.099 -0.1061  0.1115 -0.5577
 7661TIP3    H244475   6.578   1.734   4.177  0.8395  0.4185  0.9135
 7662TIP3   OH244476   2.207   1.107  12.105  0.3995  0.6080  0.4534
 7662TIP3    H144477   2.298   1.131  12.089  0.7449 -0.6172  0.4806
 7662TIP3    H244478   2.212   1.021  12.145 -0.7640  0.7218  0.8771
 7663TIP3   OH244479   6.343   1.522  11.038  0.0001  0.4756 -0.6326
 7663TIP3    H144480   6.321   1.445  11.091  0.3411  1.5802  1.1919
 7663TIP3    H244481   6.271   1.529  10.975 -1.4758  0.1910  0.9321
 7664TIP3   OH244482   0.799   2.004   1.981  0.4470  0.0938  0.1293
 7664TIP3    H144483   0.818   1.940   1.912 -0.5571  0.2088 -0.2720
 7664TIP3    H244484   0.822   2.088   1.941  0.5188  0.0993  0.1828
 7665TIP3   OH244485   2.786   4.427  15.473  0.2546 -0.1906 -0.5458
 7665TIP3    H144486   2.792   4.443  15.567 -0.1757 -2.8573  0.0280
 7665TIP3    H244487   2.874   4.400  15.447  0.2567  0.0582 -0.7997
 7666TIP3   OH244488   6.685   1.586  17.010  0.0792  0.0741 -0.0552
 7666TIP3    H144489   6.779   1.570  16.996  0.0434  0.1114 -0.3404
 7666TIP3    H244490   6.672   1.677  16.982 -0.2153 -0.2137 -0.8897
 7667TIP3   OH244491   0.345   1.916   2.458 -0.0164 -0.0139 -0.1627
 7667TIP3    H144492   0.380   1.869   2.534 -1.3359  0.7174  0.9632
 7667TIP3    H244493   0.372   1.864   2.383 -0.3293 -1.8756  0.9459
 7668TIP3   OH244494   0.105   2.873  11.779  0.7359  0.0985  0.6380
 7668TIP3    H144495   0.124   2.856  11.871  2.0573  1.7580  0.7333
 7668TIP3    H244496   0.158   2.810  11.731 -0.1304 -0.9217  0.9917
 7669TIP3   OH244497   4.200   2.372  16.934 -0.3671 -0.0950  0.4753
 7669TIP3    H144498   4.269   2.325  16.981  1.1973 -1.6333 -2.9815
 7669TIP3    H244499   4.119   2.337  16.971  0.7500 -2.6814  0.7612
 7670TIP3   OH244500   2.143   6.637   4.876 -0.2095 -0.3169 -0.0897
 7670TIP3    H144501   2.062   6.661   4.920  0.3777 -1.1538  1.5651
 7670TIP3    H244502   2.132   6.544   4.854 -0.6698  0.2011 -2.1882
 7671TIP3   OH244503   2.542   2.379  17.164  0.0673  0.2001  0.6341
 7671TIP3    H144504   2.578   2.457  17.207 -0.8889  1.2297 -0.3651
 7671TIP3    H244505   2.451   2.401  17.146  0.2479 -0.4259 -1.3112
 7672TIP3   OH244506   5.825   0.438  12.988  0.3323  0.2440  0.1752
 7672TIP3    H144507   5.735   0.465  12.969  0.6349  1.0603 -0.1487
 7672TIP3    H244508   5.833   0.352  12.946 -0.6682 -0.4066  1.2704
 7673TIP3   OH244509   3.342   6.365  10.794 -0.2062  0.3735 -0.0360
 7673TIP3    H144510   3.280   6.309  10.748  0.3442 -1.2224  1.0391
 7673TIP3    H244511   3.302   6.379  10.880  1.4891 -1.9743  1.2564
 7674TIP3   OH244512   5.166   3.032  15.822  0.3571 -0.1134 -0.1554
 7674TIP3    H144513   5.206   2.947  15.803  0.3627  0.1359 -1.3546
 7674TIP3    H244514   5.115   3.052  15.743 -2.2350 -0.4609  1.3154
 7675TIP3   OH244515   3.101   1.600   2.248  0.1940 -0.8869 -0.1845
 7675TIP3    H144516   3.190   1.602   2.213 -0.2521 -0.2687 -1.3315
 7675TIP3    H244517   3.113   1.589   2.342  1.4569 -1.6212 -0.4014
 7676TIP3   OH244518   4.654   0.453   5.968 -0.1253 -0.0590 -0.2442
 7676TIP3    H144519   4.654   0.426   5.877  1.1819 -0.6005 -0.1053
 7676TIP3    H244520   4.608   0.383   6.015  0.2445 -0.3671 -0.3372
 7677TIP3   OH244521   4.584   4.980   5.712 -0.2487  0.7627  0.0004
 7677TIP3    H144522   4.643   4.964   5.638 -0.1282  0.5706  0.1361
 7677TIP3    H244523   4.509   4.923   5.695  0.1888  0.0279  0.4938
 7678TIP3   OH244524   2.682   2.966  12.161 -0.1507  0.2023  0.1737
 7678TIP3    H144525   2.605   2.939  12.111 -1.1973 -0.0404  1.8658
 7678TIP3    H244526   2.656   3.048  12.203  0.3450 -0.1003  1.0967
 7679TIP3   OH244527   5.231   1.498   1.813 -0.2525  0.1068  0.6490
 7679TIP3    H144528   5.230   1.575   1.756  0.2269  0.2244  0.7983
 7679TIP3    H244529   5.290   1.437   1.769  1.9189  1.0511  2.1222
 7680TIP3   OH244530   0.000   1.295   6.228  0.2290  0.1726  0.1282
 7680TIP3    H144531  -0.022   1.335   6.143  0.0702 -1.9245 -0.8814
 7680TIP3    H244532  -0.074   1.316   6.284 -0.5393  0.0630 -0.8066
 7681TIP3   OH244533   3.208   2.677   2.331  0.3444  0.1054 -0.2783
 7681TIP3    H144534   3.215   2.642   2.419 -1.2106  0.1095 -0.1240
 7681TIP3    H244535   3.294   2.662   2.292  0.9299 -0.2569  1.0914
 7682TIP3   OH244536   4.783   6.231  15.205  0.2106  0.7881 -0.0853
 7682TIP3    H144537   4.845   6.225  15.133 -0.9726  1.2509 -1.1756
 7682TIP3    H244538   4.759   6.141  15.225 -1.8052  0.7021 -2.4183
 7683TIP3   OH244539   4.211   3.062  14.247  0.8021  0.4185 -0.3319
 7683TIP3    H144540   4.306   3.065  14.244  0.9166 -0.7487  0.9807
 7683TIP3    H244541   4.191   3.021  14.332 -0.8364 -0.3430 -1.0461
 7684TIP3   OH244542   0.476   1.349   5.232 -0.1523  0.0173 -0.3829
 7684TIP3    H144543   0.388   1.335   5.198 -0.3517  0.5161 -0.0726
 7684TIP3    H244544   0.528   1.373   5.155 -0.1809 -0.7073 -0.6398
 7685TIP3   OH244545   2.942   3.222   2.236 -0.5629 -0.2607  0.1358
 7685TIP3    H144546   2.877   3.264   2.181 -0.8519 -1.1943 -0.2539
 7685TIP3    H244547   3.002   3.292   2.261 -0.7896  0.2914 -0.8411
 7686TIP3   OH244548   3.831   4.418  16.526 -0.3002  0.3268 -0.1252
 7686TIP3    H144549   3.766   4.487  16.509 -0.1167  0.2511 -1.1848
 7686TIP3    H244550   3.779   4.337  16.531 -0.3993  0.4017  0.0757
 7687TIP3   OH244551   5.305   3.971  16.915  0.4382  0.4457 -0.7060
 7687TIP3    H144552   5.282   3.897  16.860  1.2321 -0.1188 -0.3028
 7687TIP3    H244553   5.233   3.979  16.978 -0.3501  0.9432 -1.6513
 7688TIP3   OH244554   2.460   1.637  11.779 -0.1940  0.3417  0.0848
 7688TIP3    H144555   2.365   1.626  11.782 -0.1375 -0.4919 -0.6053
 7688TIP3    H244556   2.489   1.576  11.710  0.7877  0.9396 -0.0518
 7689TIP3   OH244557   3.904   2.767  14.399 -0.2910  0.2707 -0.2768
 7689TIP3    H144558   3.914   2.853  14.440 -1.1478 -0.1127  0.7605
 7689TIP3    H244559   3.853   2.716  14.461  0.9088 -1.2668 -0.4917
 7690TIP3   OH244560   3.788   3.817   3.919  0.5179 -0.1219 -0.2434
 7690TIP3    H144561   3.717   3.855   3.867  1.2380 -1.2010 -2.1235
 7690TIP3    H244562   3.746   3.788   4.000 -0.5432  2.1097  0.0710
 7691TIP3   OH244563   4.192   0.609  14.357 -0.0459  0.0945  0.4214
 7691TIP3    H144564   4.269   0.643  14.402  1.0359 -1.6766  0.0111
 7691TIP3    H244565   4.194   0.652  14.271  2.6882 -2.5395 -1.0263
 7692TIP3   OH244566   0.914   1.619   2.503  0.1223  0.3902 -0.0969
 7692TIP3    H144567   0.821   1.625   2.525 -0.0207 -0.8664 -0.3128
 7692TIP3    H244568   0.954   1.577   2.578  0.5732  1.1932  0.1171
 7693TIP3   OH244569   0.504   6.824   2.707 -0.4485 -0.4104  0.0687
 7693TIP3    H144570   0.543   6.837   2.620 -0.3173  0.0699  0.1960
 7693TIP3    H244571   0.464   6.908   2.728 -0.8058 -0.6392  0.3150
 7694TIP3   OH244572   1.265   1.768   2.853  0.0264 -0.4578 -0.2582
 7694TIP3    H144573   1.223   1.842   2.809 -1.5392 -1.0110  0.2463
 7694TIP3    H244574   1.281   1.799   2.942  0.2983 -0.3998 -0.3255
 7695TIP3   OH244575   1.488   1.645  15.961  0.2491 -0.1259  0.1283
 7695TIP3    H144576   1.494   1.559  15.918 -0.2194  0.6218 -1.5252
 7695TIP3    H244577   1.560   1.646  16.023 -0.9453 -2.5037  1.6897
 7696TIP3   OH244578   3.546   2.369  11.830 -0.0192  0.2770  0.0325
 7696TIP3    H144579   3.576   2.285  11.797 -0.2152  0.9559 -2.0894
 7696TIP3    H244580   3.451   2.361  11.833 -0.1514  0.7847 -1.4931
 7697TIP3   OH244581   0.019   4.737  15.694  0.0917  0.4599 -0.4709
 7697TIP3    H144582   0.108   4.706  15.679 -0.0547  0.4898 -1.5195
 7697TIP3    H244583   0.029   4.830  15.714  0.3088  0.4463 -0.5121
 7698TIP3   OH244584   4.055   3.522  14.194 -0.1964  0.2336 -0.2339
 7698TIP3    H144585   4.038   3.560  14.280  0.3084 -0.6711  0.2912
 7698TIP3    H244586   3.973   3.479  14.170  0.0668 -0.6705  0.4320
 7699TIP3   OH244587   1.636   3.001  13.276 -0.5858  0.7714  0.1191
 7699TIP3    H144588   1.623   2.907  13.265  0.4564  0.7052 -0.6974
 7699TIP3    H244589   1.624   3.016  13.369 -0.9257 -0.1342  0.2327
 7700TIP3   OH244590   2.529   1.850  15.309 -0.1265 -0.4455  0.4436
 7700TIP3    H144591   2.461   1.796  15.266 -1.5587  1.5414  0.0531
 7700TIP3    H244592   2.480   1.902  15.373  1.0516  0.9508  0.2441
 7701TIP3   OH244593   6.362   4.539   3.421  0.1688  0.1477  0.3777
 7701TIP3    H144594   6.268   4.553   3.427  0.3253  1.2991  0.4097
 7701TIP3    H244595   6.394   4.613   3.369  0.9289 -0.7847 -0.5136
 7702TIP3   OH244596   4.118   1.222  14.512  0.1087  0.2412 -0.0051
 7702TIP3    H144597   4.169   1.173  14.576 -0.6105  0.3064  0.6272
 7702TIP3    H244598   4.042   1.254  14.561  0.7375  2.3116 -0.2814
 7703TIP3   OH244599   1.946   6.230  13.059 -0.0944 -0.0734 -0.0621
 7703TIP3    H144600   2.028   6.275  13.041 -0.3340 -0.1513 -1.4339
 7703TIP3    H244601   1.969   6.162  13.123  1.2667 -1.2120 -1.6785
 7704TIP3   OH244602   5.846   1.355   1.074  0.4156  0.0803  0.5553
 7704TIP3    H144603   5.929   1.386   1.038  0.2563 -0.1800 -0.0612
 7704TIP3    H244604   5.790   1.433   1.077  0.3342  0.0493 -0.0588
 7705TIP3   OH244605   1.290   3.434   0.059  0.1153 -0.2595  0.0082
 7705TIP3    H144606   1.373   3.470   0.091  0.5018 -0.6559 -0.5177
 7705TIP3    H244607   1.254   3.504   0.005  0.5421 -0.3979 -0.4720
 7706TIP3   OH244608   2.243   0.636  14.225  0.2012  0.4016 -0.1820
 7706TIP3    H144609   2.230   0.693  14.149 -0.1625  1.6225  0.7483
 7706TIP3    H244610   2.267   0.696  14.296  3.1870 -0.9524  0.0965
 7707TIP3   OH244611   2.988   3.403  16.001  0.1246 -0.0184 -0.1265
 7707TIP3    H144612   3.080   3.386  15.983  0.0718  1.0262 -1.5629
 7707TIP3    H244613   2.956   3.322  16.041  1.7925 -0.1795  1.0067
 7708TIP3   OH244614   0.697   0.737  10.763 -0.1519 -0.1593  0.0253
 7708TIP3    H144615   0.754   0.710  10.690 -0.5459  0.6030 -0.5746
 7708TIP3    H244616   0.616   0.688  10.749 -0.8276  1.2005 -1.0019
 7709TIP3   OH244617   1.784   3.130  15.215 -0.3022 -0.2231 -0.2266
 7709TIP3    H144618   1.832   3.109  15.295 -1.4587  0.3688  0.6521
 7709TIP3    H244619   1.850   3.126  15.146  1.1547  1.1543  1.0113
 7710TIP3   OH244620   2.980   0.528  16.451  0.4976 -0.3244 -0.1632
 7710TIP3    H144621   2.895   0.525  16.494  0.4755 -0.6744 -0.2295
 7710TIP3    H244622   3.042   0.506  16.520  0.7356  1.9049  0.3908
 7711TIP3   OH244623   3.542   2.014   3.863 -0.2184  0.4881 -0.2118
 7711TIP3    H144624   3.530   2.068   3.941 -2.2508 -1.6383  1.0776
 7711TIP3    H244625   3.550   1.925   3.896  0.6847 -0.3032 -2.3759
 7712TIP3   OH244626   2.910   0.004   1.109 -0.2822  0.3764  0.4736
 7712TIP3    H144627   2.855   0.037   1.180 -0.5854  1.6508 -0.3288
 7712TIP3    H244628   2.905   0.071   1.041  0.8820 -0.2994 -0.3194
 7713TIP3   OH244629   2.331   2.343  13.324  0.3615 -0.1395 -0.1325
 7713TIP3    H144630   2.260   2.407  13.325 -0.3182 -0.7514 -2.5967
 7713TIP3    H244631   2.365   2.343  13.413 -1.0261  2.0577  0.4597
 7714TIP3   OH244632   4.640   2.371   3.827  0.0306 -0.0709 -0.2662
 7714TIP3    H144633   4.724   2.403   3.795  0.6118 -0.6475  0.6188
 7714TIP3    H244634   4.575   2.407   3.767  0.9757 -0.2424 -1.4143
 7715TIP3   OH244635   0.659   3.498   3.135  0.5143  0.6525 -0.1994
 7715TIP3    H144636   0.568   3.524   3.150  0.1696 -1.2339  1.4106
 7715TIP3    H244637   0.659   3.464   3.045 -0.9191 -1.2644  0.4553
 7716TIP3   OH244638   5.106   0.941  10.705 -0.2864  0.2479  0.0820
 7716TIP3    H144639   5.119   0.916  10.796 -0.8851  0.4175  0.2178
 7716TIP3    H244640   5.127   0.862  10.655 -0.6459 -0.0632  0.4141
 7717TIP3   OH244641   5.699   1.657  10.552  0.0721 -0.0854  0.0833
 7717TIP3    H144642   5.662   1.739  10.586 -0.1757 -0.0415 -0.2903
 7717TIP3    H244643   5.773   1.686  10.498  0.6076 -0.1678  0.7582
 7718TIP3   OH244644   5.139   3.180   0.867  0.0880  0.1027 -0.2496
 7718TIP3    H144645   5.059   3.140   0.831 -0.3254  0.8873 -0.2325
 7718TIP3    H244646   5.121   3.274   0.866  0.4694  0.2069  1.0772
 7719TIP3   OH244647   4.115   3.420  15.139 -0.2169 -0.1486 -0.0723
 7719TIP3    H144648   4.201   3.381  15.125 -0.7931 -1.3660 -0.3295
 7719TIP3    H244649   4.106   3.425  15.234 -0.6191 -1.8220  0.0120
 7720TIP3   OH244650   3.854   2.081   1.389  0.0297  0.1451 -0.1262
 7720TIP3    H144651   3.916   2.147   1.420  0.1852 -0.7787  1.6796
 7720TIP3    H244652   3.876   2.003   1.440 -2.1779 -0.3869  0.0894
 7721TIP3   OH244653   6.226   1.093  16.981 -0.1661  0.2308  0.0604
 7721TIP3    H144654   6.320   1.095  16.997  0.2071 -1.5518 -1.4052
 7721TIP3    H244655   6.215   1.023  16.915 -2.6961 -0.8547  1.4792
 7722TIP3   OH244656   1.446   3.853   3.330 -0.0631 -0.0174 -0.5984
 7722TIP3    H144657   1.404   3.782   3.281 -0.7340  0.3745 -0.5945
 7722TIP3    H244658   1.376   3.892   3.381  0.3088  0.6387 -0.5791
 7723TIP3   OH244659   6.773   6.229  10.973  0.6138  0.0452  0.2309
 7723TIP3    H144660   6.868   6.233  10.984  0.7951 -1.8685 -0.2946
 7723TIP3    H244661   6.755   6.283  10.896  1.3306  0.0834  0.0873
 7724TIP3   OH244662   6.051   3.377   1.702 -0.3124  0.3273  0.0425
 7724TIP3    H144663   6.058   3.307   1.767 -0.9405 -0.6374 -0.9085
 7724TIP3    H244664   6.028   3.333   1.621 -3.5241  1.8591 -0.0156
 7725TIP3   OH244665   5.018   2.572   5.152  0.7216  0.2489 -0.7504
 7725TIP3    H144666   5.111   2.565   5.132  1.0176  1.1881  0.2620
 7725TIP3    H244667   4.989   2.482   5.166  1.1965 -0.1576 -2.2333
 7726TIP3   OH244668   3.223   2.719   1.675  0.3063  0.2617 -0.3350
 7726TIP3    H144669   3.190   2.806   1.700 -1.0775 -0.6117  1.0601
 7726TIP3    H244670   3.272   2.689   1.751 -0.2117 -0.6378 -0.3398
 7727TIP3   OH244671   4.114   6.746  11.685  0.1675  0.3783  0.1726
 7727TIP3    H144672   4.092   6.820  11.629 -0.5558 -0.5606 -0.8416
 7727TIP3    H244673   4.182   6.699  11.636  0.3646  0.1735  0.6390
 7728TIP3   OH244674   3.607   2.590  11.701  0.2903 -0.8282 -0.5178
 7728TIP3    H144675   3.526   2.635  11.728  1.0985  1.1275 -1.1630
 7728TIP3    H244676   3.597   2.501  11.735 -1.6589 -0.3410  0.3534
 7729TIP3   OH244677   3.723   5.777  11.780  0.1114  0.3230  0.2609
 7729TIP3    H144678   3.640   5.749  11.817  1.5819 -1.5287  2.4743
 7729TIP3    H244679   3.711   5.773  11.685 -2.6544  1.3581  0.4924
 7730TIP3   OH244680   1.228   4.620   2.893  0.0910  0.4258  0.5026
 7730TIP3    H144681   1.276   4.541   2.918 -0.1059  0.4662  1.0215
 7730TIP3    H244682   1.241   4.680   2.967  1.1630  1.2991 -0.3639
 7731TIP3   OH244683   1.271   0.165   2.541  0.3281  0.1694 -0.1794
 7731TIP3    H144684   1.267   0.078   2.582  0.2848  0.4843  0.4938
 7731TIP3    H244685   1.199   0.166   2.479  0.8776 -0.6085 -0.8550
 7732TIP3   OH244686   2.409   5.736  10.874  0.8916 -0.4377 -0.2573
 7732TIP3    H144687   2.478   5.674  10.895  0.9338 -1.0533 -2.0645
 7732TIP3    H244688   2.327   5.687  10.883  0.9207 -0.7749 -1.6101
 7733TIP3   OH244689   4.930   1.849  15.201 -0.9319 -0.3849  0.1908
 7733TIP3    H144690   4.933   1.847  15.296  0.0932  0.0572  0.1807
 7733TIP3    H244691   4.977   1.929  15.177 -2.7663  0.5028 -0.6389
 7734TIP3   OH244692   2.248   5.213  15.049  0.3388 -0.0897  0.1285
 7734TIP3    H144693   2.171   5.264  15.074  0.7649  0.7880 -0.3094
 7734TIP3    H244694   2.241   5.132  15.100 -2.1202 -1.1043 -1.6400
 7735TIP3   OH244695   1.672   0.744   5.325 -0.2982  0.6626 -0.2088
 7735TIP3    H144696   1.679   0.695   5.407 -0.4068 -0.6806 -0.9742
 7735TIP3    H244697   1.581   0.733   5.298  0.0408  0.0647 -1.1225
 7736TIP3   OH244698   2.622   6.818  11.432  0.2825  0.2974  0.1000
 7736TIP3    H144699   2.715   6.838  11.422  0.2603  0.8297  0.8924
 7736TIP3    H244700   2.584   6.840  11.347  0.8871  0.0066 -0.2540
 7737TIP3   OH244701   6.591   4.853  11.011 -0.7148 -0.6922 -0.0987
 7737TIP3    H144702   6.505   4.884  11.038 -0.5114 -0.8051  0.7075
 7737TIP3    H244703   6.653   4.904  11.065 -0.2967 -0.9343 -0.3434
 7738TIP3   OH244704   2.816   1.388  13.063 -0.2203 -0.1637 -0.0223
 7738TIP3    H144705   2.846   1.445  13.134  0.3425 -0.0083 -0.3830
 7738TIP3    H244706   2.772   1.447  13.002  0.4730 -0.0916 -0.4580
 7739TIP3   OH244707   1.712   4.338  16.737  0.4262 -0.3337  0.0473
 7739TIP3    H144708   1.790   4.372  16.695 -0.1340 -1.2432 -1.8430
 7739TIP3    H244709   1.745   4.277  16.804  1.3481 -0.5718 -0.6028
 7740TIP3   OH244710   0.862   6.764  14.749  0.0189 -0.0996 -0.1101
 7740TIP3    H144711   0.907   6.767  14.833 -0.4247  1.2131  0.0998
 7740TIP3    H244712   0.837   6.672  14.738  0.0737 -0.2819  1.1881
 7741TIP3   OH244713   3.342   2.193  12.776 -0.2705  0.3173  0.1133
 7741TIP3    H144714   3.286   2.121  12.744  0.9899  0.2039 -1.9727
 7741TIP3    H244715   3.288   2.271  12.766 -0.6799 -0.0023 -0.2262
 7742TIP3   OH244716   0.303   5.916   1.304 -0.5948  0.1597  0.1093
 7742TIP3    H144717   0.280   5.826   1.278  0.8084 -0.6818  1.6396
 7742TIP3    H244718   0.284   5.968   1.226  0.2688 -1.7352 -1.4516
 7743TIP3   OH244719   3.102   0.299   4.539  0.3718  0.1509  0.0858
 7743TIP3    H144720   3.173   0.248   4.578  1.2106  1.6763  0.6464
 7743TIP3    H244721   3.081   0.365   4.605 -0.3908  0.7892 -0.7754
 7744TIP3   OH244722   0.325   5.289   1.753 -0.7326 -0.5651  0.1385
 7744TIP3    H144723   0.360   5.372   1.719 -2.2548 -0.1023 -0.3618
 7744TIP3    H244724   0.361   5.282   1.841  2.8916 -1.5120 -1.2037
 7745TIP3   OH244725   0.232   4.664  12.192  0.4760 -0.2789 -0.2917
 7745TIP3    H144726   0.248   4.570  12.196  1.8399 -0.0562  2.9095
 7745TIP3    H244727   0.257   4.690  12.104 -0.3607 -2.9292 -1.4044
 7746TIP3   OH244728   4.193   3.109  14.979  0.1067  0.3984  0.2557
 7746TIP3    H144729   4.120   3.140  14.924 -1.0302 -1.2750  0.7394
 7746TIP3    H244730   4.251   3.064  14.917 -0.3795 -0.1234  0.1660
 7747TIP3   OH244731   5.443   1.845   1.290  0.4219  0.5226 -0.7598
 7747TIP3    H144732   5.372   1.895   1.331  1.6342  2.8230 -1.3057
 7747TIP3    H244733   5.515   1.907   1.284  2.0424 -1.3443 -1.4986
 7748TIP3   OH244734   1.976   0.814  11.964 -0.4704 -0.1325 -0.0760
 7748TIP3    H144735   2.018   0.817  11.878 -0.7015 -0.3367 -0.1968
 7748TIP3    H244736   1.884   0.796  11.945 -0.7656  1.0603  0.1434
 7749TIP3   OH244737   3.011   2.873  11.265 -0.0509 -0.6911 -0.3769
 7749TIP3    H144738   3.013   2.824  11.183  0.5272 -2.4301  0.6173
 7749TIP3    H244739   2.921   2.863  11.297 -0.3309  0.1513 -0.8600
 7750TIP3   OH244740   1.551   5.335   6.179 -0.2956 -0.2433 -0.2082
 7750TIP3    H144741   1.580   5.334   6.270 -0.0267 -0.2890 -0.2923
 7750TIP3    H244742   1.567   5.424   6.149 -0.7746 -0.1167 -0.0881
 7751TIP3   OH244743   2.716   1.169  12.792  0.2882  0.2367  0.6275
 7751TIP3    H144744   2.760   1.198  12.712  2.5220 -2.3663  0.7664
 7751TIP3    H244745   2.636   1.125  12.761 -0.5117  1.9413  0.1281
 7752TIP3   OH244746   2.232   1.027  15.437 -1.4308 -0.5669 -0.3939
 7752TIP3    H144747   2.248   1.096  15.501 -0.2592 -2.0135  0.9508
 7752TIP3    H244748   2.232   1.072  15.353  2.1589  0.7687  0.1350
 7753TIP3   OH244749   0.486   1.955  10.664 -0.2584  0.2086 -0.4156
 7753TIP3    H144750   0.552   2.024  10.661 -1.3449  1.2521 -1.1748
 7753TIP3    H244751   0.461   1.951  10.756 -1.1370  1.7928 -0.5482
 7754TIP3   OH244752   0.399   2.771   4.809 -0.0860  0.2008  0.2155
 7754TIP3    H144753   0.470   2.811   4.858 -0.1910  0.2117  0.3588
 7754TIP3    H244754   0.383   2.688   4.853  0.8707 -0.5109 -0.7388
 7755TIP3   OH244755   4.381   5.960   5.483  0.1905 -0.3846  0.0659
 7755TIP3    H144756   4.400   6.004   5.400  2.2791 -0.7040  0.3237
 7755TIP3    H244757   4.404   6.024   5.550 -0.6591 -0.4411  0.4215
 7756TIP3   OH244758   1.505   0.397   2.944 -0.0925  0.1479 -0.4634
 7756TIP3    H144759   1.580   0.351   2.984  1.0673  1.3489 -1.1836
 7756TIP3    H244760   1.539   0.429   2.860 -2.0133 -0.9516 -1.7384
 7757TIP3   OH244761   2.294   6.101   3.282 -0.5404 -0.0602 -0.4309
 7757TIP3    H144762   2.227   6.077   3.218 -1.3992 -1.6666  0.9880
 7757TIP3    H244763   2.351   6.024   3.287 -0.2607  0.1955  0.4256
 7758TIP3   OH244764   0.420   6.408  12.355  0.2411  1.0552  0.3998
 7758TIP3    H144765   0.368   6.328  12.354  0.3418  0.9843  0.7455
 7758TIP3    H244766   0.413   6.441  12.444  0.8413  1.0057  0.4706
 7759TIP3   OH244767   0.781   3.183  11.324 -0.0144  0.2100  0.8113
 7759TIP3    H144768   0.737   3.102  11.301 -0.2092  0.6823 -0.5645
 7759TIP3    H244769   0.724   3.252  11.289  0.0748  0.9624  2.0651
 7760TIP3   OH244770   1.636   3.310  13.609 -0.2091 -0.0650  0.2217
 7760TIP3    H144771   1.722   3.310  13.652  0.0921  1.7316 -0.3087
 7760TIP3    H244772   1.610   3.218  13.608  1.7104 -0.6483  0.3892
 7761TIP3   OH244773   6.062   2.837  16.822  0.4057 -0.0163 -0.1858
 7761TIP3    H144774   5.978   2.840  16.868  0.0678 -1.2228 -0.6777
 7761TIP3    H244775   6.124   2.803  16.887 -0.2533 -2.5904 -0.7879
 7762TIP3   OH244776   2.772   0.082  12.389  0.3621  0.9352  0.3231
 7762TIP3    H144777   2.839   0.149  12.377  3.2418 -1.3498  2.1703
 7762TIP3    H244778   2.738   0.097  12.477  1.0090  0.0695  0.7393
 7763TIP3   OH244779   5.198   3.543  15.081  0.2712 -0.4069  0.3411
 7763TIP3    H144780   5.147   3.497  15.014  0.6675 -0.0509 -0.2088
 7763TIP3    H244781   5.138   3.549  15.156 -0.0555 -1.1243  0.1499
 7764TIP3   OH244782   3.725   6.529   3.923  0.5848 -0.4832 -0.2580
 7764TIP3    H144783   3.805   6.476   3.925 -0.4555 -2.1514 -0.8519
 7764TIP3    H244784   3.744   6.599   3.860  1.3132 -1.3155 -0.9881
 7765TIP3   OH244785   0.508   3.275  12.232  0.3199 -0.0088 -0.2870
 7765TIP3    H144786   0.552   3.235  12.308  0.1589 -1.6173 -0.9911
 7765TIP3    H244787   0.474   3.358  12.265  0.3494 -0.6154  1.3831
 7766TIP3   OH244788   5.483   6.678   2.582 -0.1147  0.2454  0.3310
 7766TIP3    H144789   5.397   6.676   2.540  0.1167  0.8244 -0.1799
 7766TIP3    H244790   5.524   6.759   2.552  0.1828  0.5371  1.4476
 7767TIP3   OH244791   1.377   4.751   4.476 -0.0311 -0.1842  0.0203
 7767TIP3    H144792   1.370   4.704   4.393  1.0402 -1.0553  0.4041
 7767TIP3    H244793   1.457   4.803   4.468  0.6503 -1.0743  0.8865
 7768TIP3   OH244794   3.483   2.386   0.585  0.4563 -0.3962 -0.0044
 7768TIP3    H144795   3.524   2.360   0.667 -1.1190  0.6957  1.2065
 7768TIP3    H244796   3.398   2.341   0.585  0.7881 -1.1025 -1.5029
 7769TIP3   OH244797   5.346   3.891   5.392  0.0257 -0.7225  0.5956
 7769TIP3    H144798   5.426   3.870   5.344  0.7102 -0.3552  1.5751
 7769TIP3    H244799   5.303   3.806   5.404  1.0307 -1.1200  1.4218
 7770TIP3   OH244800   3.825   0.723   3.429 -0.9700 -0.0020  0.2753
 7770TIP3    H144801   3.826   0.654   3.495 -0.1330  0.2933  0.5873
 7770TIP3    H244802   3.915   0.753   3.425 -1.1617  0.4912 -0.4776
 7771TIP3   OH244803   3.872   1.345   0.520  0.0930  0.1629 -0.4368
 7771TIP3    H144804   3.935   1.354   0.591  0.8260  0.5476 -1.1143
 7771TIP3    H244805   3.801   1.293   0.557  2.1785 -3.0056 -0.5376
 7772TIP3   OH244806   0.291   0.397   1.703 -0.0550 -0.5528 -0.5579
 7772TIP3    H144807   0.346   0.457   1.653 -0.8344 -0.3618 -1.2122
 7772TIP3    H244808   0.238   0.352   1.637 -1.8869  0.4951  0.1207
 7773TIP3   OH244809   5.964   0.269  11.746  0.8209 -0.0565 -0.0745
 7773TIP3    H144810   6.027   0.341  11.755 -0.0602  0.7184 -0.0131
 7773TIP3    H244811   5.975   0.219  11.827  1.4687 -0.0309 -0.1357
 7774TIP3   OH244812   6.749   3.447   4.478 -0.0092  0.0866 -0.3025
 7774TIP3    H144813   6.691   3.514   4.443 -1.8301 -1.4680 -0.4226
 7774TIP3    H244814   6.692   3.372   4.496  1.4936 -0.5673  2.2709
 7775TIP3   OH244815   0.538   3.026   5.792  0.0696  0.6477 -0.5724
 7775TIP3    H144816   0.543   2.959   5.724 -1.1523  0.7769 -0.8001
 7775TIP3    H244817   0.597   3.095   5.761  0.5672  0.1256 -0.8206
 7776TIP3   OH244818   3.809   6.377  11.875 -0.3774 -0.0412 -0.2641
 7776TIP3    H144819   3.848   6.462  11.855 -0.6876  1.3134  3.8417
 7776TIP3    H244820   3.880   6.314  11.864  0.6391  1.1599 -0.7748
 7777TIP3   OH244821   3.899   2.057   6.325 -0.3016  0.2132  0.6695
 7777TIP3    H144822   3.816   2.013   6.311  0.2629 -0.3591 -1.2826
 7777TIP3    H244823   3.884   2.146   6.293  0.1732 -0.2719 -0.9944
 7778TIP3   OH244824   1.301   3.922   3.534 -0.3086  0.4887  0.5524
 7778TIP3    H144825   1.333   3.954   3.618 -0.8759  2.0798  0.2004
 7778TIP3    H244826   1.257   3.997   3.494  0.2803 -0.1082 -1.3513
 7779TIP3   OH244827   4.989   0.866  11.577  0.9679  0.6450 -0.1774
 7779TIP3    H144828   4.931   0.829  11.509  1.8294 -0.6324 -0.2629
 7779TIP3    H244829   5.005   0.956  11.548 -0.9622  1.0577 -0.1371
 7780TIP3   OH244830   6.149   5.454  15.384 -0.2178  0.3317 -0.5255
 7780TIP3    H144831   6.105   5.487  15.462  2.1135 -1.2915  1.6132
 7780TIP3    H244832   6.236   5.494  15.386 -0.4523  1.1293 -2.9861
 7781TIP3   OH244833   3.304   3.755  14.269 -0.3022  0.0082  0.5047
 7781TIP3    H144834   3.335   3.665  14.266  0.3926  0.2445  0.5948
 7781TIP3    H244835   3.370   3.802  14.319  0.6028  1.0637 -1.5526
 7782TIP3   OH244836   4.966   0.722   3.964 -0.0460  0.4104 -0.0675
 7782TIP3    H144837   4.917   0.778   4.024  0.9309  1.0623  0.1425
 7782TIP3    H244838   5.050   0.707   4.008  0.5204  0.5444 -1.0735
 7783TIP3   OH244839   4.822   1.284   1.897 -0.1103 -0.3500 -0.3247
 7783TIP3    H144840   4.788   1.268   1.809 -2.4317 -2.0979  0.7884
 7783TIP3    H244841   4.879   1.209   1.915 -1.0783 -0.9617  0.2871
 7784TIP3   OH244842   4.750   1.158   0.472  0.1444 -0.1543  0.3320
 7784TIP3    H144843   4.716   1.166   0.383  1.3619 -1.6058 -0.3091
 7784TIP3    H244844   4.755   1.063   0.487 -0.5695  0.0558  2.1724
 7785TIP3   OH244845   6.654   1.271   0.387 -0.0589  0.1044 -0.0944
 7785TIP3    H144846   6.603   1.201   0.346  0.8866  0.0517 -1.2064
 7785TIP3    H244847   6.639   1.259   0.481 -2.5151  0.4147 -0.3662
 7786TIP3   OH244848   5.866   6.627   2.165  0.5922 -0.0955  0.4331
 7786TIP3    H144849   5.927   6.691   2.128  1.5618 -1.5957 -0.6582
 7786TIP3    H244850   5.814   6.677   2.228  1.1593  1.8028 -0.5472
 7787TIP3   OH244851   1.709   2.798   6.021  0.2089  0.0115  0.4224
 7787TIP3    H144852   1.726   2.888   6.048 -0.2428 -0.2274  1.5817
 7787TIP3    H244853   1.749   2.744   6.090 -0.4127 -0.6429  0.2889
 7788TIP3   OH244854   6.506   4.946  14.675  0.3232  0.3441 -0.2448
 7788TIP3    H144855   6.452   4.957  14.754 -1.2943  1.9452 -1.4687
 7788TIP3    H244856   6.565   5.022  14.676  0.6415  0.0983 -0.3190
 7789TIP3   OH244857   0.076   3.637  13.498 -0.3073  0.0504 -0.4502
 7789TIP3    H144858   0.051   3.642  13.590  1.1909  1.8364 -0.0621
 7789TIP3    H244859   0.171   3.649  13.499 -0.4822  2.4798 -2.3290
 7790TIP3   OH244860   0.887   0.955  14.361  0.0139 -0.0638 -0.0133
 7790TIP3    H144861   0.977   0.932  14.385 -0.1328 -0.2662  0.3561
 7790TIP3    H244862   0.858   0.883  14.305 -0.6958 -1.2111  1.7373
 7791TIP3   OH244863   3.022   6.464  13.137  0.0682  0.0516  0.2739
 7791TIP3    H144864   2.938   6.491  13.100  0.6859  0.5321 -0.8292
 7791TIP3    H244865   3.019   6.494  13.228 -1.0717 -0.2262  0.3383
 7792TIP3   OH244866   2.519   0.527  16.970 -0.1370 -0.0568  0.8281
 7792TIP3    H144867   2.530   0.622  16.976  1.9079 -0.1146 -0.9741
 7792TIP3    H244868   2.593   0.491  17.019  0.4832 -0.6723 -0.5303
 7793TIP3   OH244869   1.144   4.564  16.548 -0.0056  0.0711  0.3348
 7793TIP3    H144870   1.063   4.514  16.562  0.3658 -0.7025 -0.1626
 7793TIP3    H244871   1.138   4.593  16.457 -0.3823  1.2603  0.7284
 7794TIP3   OH244872   4.195   2.946   2.696 -0.5196 -0.0547  0.0878
 7794TIP3    H144873   4.210   2.931   2.789  1.7250  0.2153 -0.1942
 7794TIP3    H244874   4.138   3.023   2.694  1.1948  1.3313  1.2511
 7795TIP3   OH244875   1.741   3.188   2.884  0.0217  0.0589 -0.2607
 7795TIP3    H144876   1.783   3.265   2.924 -0.5818  0.8302 -1.0789
 7795TIP3    H244877   1.652   3.217   2.865 -0.0571 -0.6874 -1.0522
 7796TIP3   OH244878   3.328   0.458   3.773  0.1822 -0.4750  0.6729
 7796TIP3    H144879   3.297   0.512   3.700  1.6403 -0.2236  0.2140
 7796TIP3    H244880   3.255   0.458   3.835 -0.9837 -0.4935 -0.6673
 7797TIP3   OH244881   6.466   1.078   0.304 -0.4294 -0.9895  0.0075
 7797TIP3    H144882   6.453   1.132   0.226  0.1915 -2.6809 -1.3335
 7797TIP3    H244883   6.378   1.051   0.330 -0.5526 -1.5613 -0.9763
 7798TIP3   OH244884   1.764   6.711  10.948 -0.2401 -0.2265  0.2444
 7798TIP3    H144885   1.842   6.764  10.928 -0.0413 -0.4595  0.3857
 7798TIP3    H244886   1.691   6.772  10.942 -0.2009 -0.2992 -1.2579
 7799TIP3   OH244887   1.352   0.070  15.706 -0.1719 -0.4074  0.0442
 7799TIP3    H144888   1.424   0.007  15.694  0.7979  0.8178 -0.7854
 7799TIP3    H244889   1.293   0.052  15.633  1.1678  0.9989 -1.4505
 7800TIP3   OH244890   4.032   5.852  12.945  0.3954  0.2638  1.3064
 7800TIP3    H144891   4.107   5.910  12.933 -0.4776  1.0514 -0.7588
 7800TIP3    H244892   4.034   5.794  12.869 -1.4549  0.7633  0.8208
 7801TIP3   OH244893   2.535   1.200   0.913  0.2600  0.1226 -0.0605
 7801TIP3    H144894   2.512   1.292   0.922  2.9164  0.7474  1.6555
 7801TIP3    H244895   2.490   1.157   0.985 -1.5353 -0.1246 -1.2618
 7802TIP3   OH244896   5.542   6.015   1.782  0.1909 -0.5495  0.2832
 7802TIP3    H144897   5.468   6.023   1.842 -0.0418 -0.0774 -0.0590
 7802TIP3    H244898   5.617   5.998   1.838  0.0361  0.2283  0.7491
 7803TIP3   OH244899   4.071   1.315   2.339 -0.0931 -0.3434 -0.3992
 7803TIP3    H144900   3.976   1.329   2.336  0.1637  1.7073 -0.5660
 7803TIP3    H244901   4.103   1.382   2.400  1.3329 -0.3787 -1.0726
 7804TIP3   OH244902   6.252   5.194  14.017 -0.0438  0.1573 -0.2647
 7804TIP3    H144903   6.187   5.155  13.958 -0.4682 -0.0644  0.3347
 7804TIP3    H244904   6.232   5.288  14.015  0.6145  0.2940 -1.2694
 7805TIP3   OH244905   2.587   3.364  12.496 -0.3415  0.4019 -0.1150
 7805TIP3    H144906   2.519   3.384  12.561 -1.2758 -0.5622 -0.7425
 7805TIP3    H244907   2.633   3.288  12.532 -1.7040 -0.9701 -1.0908
 7806TIP3   OH244908   2.965   3.590   1.236 -0.2935  0.0150  0.3170
 7806TIP3    H144909   3.057   3.571   1.255 -0.5541 -0.6244  0.9682
 7806TIP3    H244910   2.920   3.580   1.320 -0.8869  0.8000  0.1046
 7807TIP3   OH244911   2.879   2.423  16.094 -0.1725 -0.3112 -0.1786
 7807TIP3    H144912   2.902   2.454  16.006  0.3125  0.4526  0.2064
 7807TIP3    H244913   2.792   2.459  16.110  0.5149  1.1998  0.3926
 7808TIP3   OH244914   0.407   3.653   5.725 -0.1830  0.1493  0.6895
 7808TIP3    H144915   0.461   3.626   5.650  0.6268 -0.2556  1.4083
 7808TIP3    H244916   0.412   3.580   5.786 -2.6878 -0.5280  0.2296
 7809TIP3   OH244917   6.778   5.768   0.368  0.1935 -1.0591  0.1857
 7809TIP3    H144918   6.782   5.699   0.433  0.2703  0.1705  1.5306
 7809TIP3    H244919   6.819   5.730   0.290 -0.3041 -2.7004  0.6894
 7810TIP3   OH244920   4.220   5.313   0.301  0.1181  0.1299  0.0429
 7810TIP3    H144921   4.188   5.223   0.307  2.3394 -0.6211  2.0559
 7810TIP3    H244922   4.155   5.365   0.350 -1.3336 -0.2562 -1.3819
 7811TIP3   OH244923   0.245   2.147   3.216 -0.4656  0.0412  0.1312
 7811TIP3    H144924   0.179   2.100   3.164 -1.1114 -1.9600  2.5526
 7811TIP3    H244925   0.323   2.091   3.211  0.6815  1.6655 -1.5171
 7812TIP3   OH244926   1.359   5.550  12.539 -0.1219 -0.3595  0.2535
 7812TIP3    H144927   1.421   5.506  12.597  0.5577 -0.1254 -0.2833
 7812TIP3    H244928   1.369   5.643  12.559 -0.3807 -0.3253  0.2326
 7813TIP3   OH244929   5.936   2.195  14.642 -0.2224  0.2958 -0.1315
 7813TIP3    H144930   5.939   2.287  14.668 -1.1950  0.4960 -0.6937
 7813TIP3    H244931   5.931   2.147  14.725  3.6078  0.5115  0.3895
 7814TIP3   OH244932   6.746   3.618  13.738 -0.6562  0.3419  0.7333
 7814TIP3    H144933   6.734   3.585  13.827 -0.9956 -0.1860  0.4938
 7814TIP3    H244934   6.767   3.541  13.686 -1.0735  0.5518  0.2387
 7815TIP3   OH244935   3.281   4.936  10.639  0.2683 -0.1737 -0.1208
 7815TIP3    H144936   3.230   4.982  10.706 -0.0171 -0.9119  0.1826
 7815TIP3    H244937   3.257   4.979  10.557 -0.6759 -0.3415  0.0474
 7816TIP3   OH244938   4.950   4.997  14.575 -0.2620  0.2879 -0.2736
 7816TIP3    H144939   4.931   5.040  14.659 -0.3627 -1.0434  0.4219
 7816TIP3    H244940   5.038   5.027  14.552  0.6169 -0.8635  1.3703
 7817TIP3   OH244941   3.157   1.840  15.462  0.0589  0.3165  0.3745
 7817TIP3    H144942   3.154   1.936  15.467 -0.3949  0.3004  0.4510
 7817TIP3    H244943   3.207   1.813  15.539 -1.5427  0.3940  1.4901
 7818TIP3   OH244944   2.554   3.616   3.088 -0.5159 -0.2511  0.2555
 7818TIP3    H144945   2.547   3.589   2.997 -0.5998 -3.4661  1.1102
 7818TIP3    H244946   2.638   3.582   3.118 -1.0817 -0.4399  1.7314
 7819TIP3   OH244947   1.578   1.908   6.801  0.0230 -0.5102  0.5442
 7819TIP3    H144948   1.672   1.892   6.800 -0.2753 -2.7109  1.3454
 7819TIP3    H244949   1.569   2.002   6.812  2.1243 -0.3377  1.1003
 7820TIP3   OH244950   5.618   4.262  15.097 -0.5309 -0.0871 -0.1112
 7820TIP3    H144951   5.659   4.312  15.027 -0.1146 -1.2468 -0.7166
 7820TIP3    H244952   5.616   4.322  15.171 -1.6987  1.4416 -1.3100
 7821TIP3   OH244953   2.426   3.188  14.570 -0.4080 -0.3828  0.2735
 7821TIP3    H144954   2.376   3.117  14.610 -0.1484 -0.2577  0.8336
 7821TIP3    H244955   2.409   3.180  14.476 -0.4658 -1.1224  0.3403
 7822TIP3   OH244956   3.224   2.909  13.157 -0.8042  0.1088 -0.0620
 7822TIP3    H144957   3.267   2.994  13.165 -2.5712  1.0371 -0.1351
 7822TIP3    H244958   3.247   2.879  13.069  0.1438  0.3104  0.1049
 7823TIP3   OH244959   0.663   1.254   2.317  0.5263 -0.4587 -0.0432
 7823TIP3    H144960   0.758   1.244   2.311  0.8250  2.3709 -1.5778
 7823TIP3    H244961   0.629   1.216   2.237  0.3759 -1.1488  0.3413
 7824TIP3   OH244962   6.763   1.290  12.702 -0.4083 -0.7179  0.4072
 7824TIP3    H144963   6.839   1.332  12.743 -0.3572  0.3656 -0.7399
 7824TIP3    H244964   6.729   1.231  12.769  0.0822  0.4898  1.7636
 7825TIP3   OH244965   1.231   4.578   2.592  0.0645  0.3703  0.1580
 7825TIP3    H144966   1.206   4.629   2.669  1.1359  0.2850  0.5866
 7825TIP3    H244967   1.326   4.569   2.600  0.0390 -0.6743 -0.5381
 7826TIP3   OH244968   2.719   1.252  13.315  0.3329  1.3393  0.2607
 7826TIP3    H144969   2.739   1.274  13.406 -0.5343  1.0870  0.5268
 7826TIP3    H244970   2.734   1.333  13.267 -0.5759  1.8757  0.8624
 7827TIP3   OH244971   2.687   6.765   1.288 -0.5585 -0.2756 -0.4543
 7827TIP3    H144972   2.623   6.836   1.288 -0.8587 -0.5135  1.0026
 7827TIP3    H244973   2.655   6.704   1.220 -0.9640  0.3794 -0.8623
 7828TIP3   OH244974   5.129   0.184   3.957  0.9628 -0.1560  0.4426
 7828TIP3    H144975   5.170   0.098   3.948  2.5489  0.5089  1.0688
 7828TIP3    H244976   5.145   0.227   3.874  1.6578  0.1472  0.7290
 7829TIP3   OH244977   1.381   2.777  13.826 -0.3892  0.4105 -0.5536
 7829TIP3    H144978   1.300   2.728  13.842 -1.0945  1.6012 -0.3876
 7829TIP3    H244979   1.406   2.810  13.912  1.0744 -1.0964 -0.3444
 7830TIP3   OH244980   1.801   3.219  16.428 -0.5302  0.6068  0.1177
 7830TIP3    H144981   1.750   3.182  16.356 -2.9999  2.2132  0.9171
 7830TIP3    H244982   1.743   3.283  16.468  2.3375  2.9778  0.8219
 7831TIP3   OH244983   3.614   2.585  16.831 -0.0066 -0.0775  0.1437
 7831TIP3    H144984   3.564   2.504  16.829  0.1948 -0.2557  1.3838
 7831TIP3    H244985   3.612   2.612  16.922 -0.5416  1.6266 -0.3367
 7832TIP3   OH244986   5.835   1.892  11.442  0.7039 -0.3699  0.5753
 7832TIP3    H144987   5.899   1.911  11.373 -1.0476  1.7103 -0.6067
 7832TIP3    H244988   5.824   1.975  11.489 -1.2417 -0.5962  0.6063
 7833TIP3   OH244989   4.910   0.393  11.173  0.2469  0.5128  0.0366
 7833TIP3    H144990   4.902   0.428  11.084 -2.5134  1.7147  0.6391
 7833TIP3    H244991   4.881   0.465  11.229  0.0649 -0.8568  1.7899
 7834TIP3   OH244992   4.726   2.557   5.492  0.3306 -0.3982  0.3474
 7834TIP3    H144993   4.638   2.559   5.532 -0.1396  1.4913 -0.6494
 7834TIP3    H244994   4.718   2.613   5.415  1.8797 -1.9340 -0.9928
 7835TIP3   OH244995   5.770   5.399   0.924  0.3250  0.1327 -0.1809
 7835TIP3    H144996   5.835   5.336   0.892  0.7715  1.4124 -1.9769
 7835TIP3    H244997   5.717   5.420   0.847  0.0181  1.7171  0.4235
 7836TIP3   OH244998   5.873   0.695  11.836  0.6468 -0.2632 -0.7669
 7836TIP3    H144999   5.903   0.685  11.745  0.5029 -1.2228 -0.7215
 7836TIP3    H245000   5.814   0.770  11.833 -1.5638 -1.9078 -2.0734
 7837TIP3   OH245001   5.836   2.388   1.805  0.0776 -0.0696 -0.3239
 7837TIP3    H145002   5.819   2.294   1.809  0.0217 -0.0290  0.3818
 7837TIP3    H245003   5.883   2.408   1.886 -0.4259  0.6209 -0.1968
 7838TIP3   OH245004   3.423   4.720   2.482  0.6864  0.0966  0.6550
 7838TIP3    H145005   3.339   4.714   2.527  0.0972  1.3267 -0.2263
 7838TIP3    H245006   3.488   4.734   2.551 -0.1049  1.1815  1.1970
 7839TIP3   OH245007   2.272   0.910   1.863 -0.1872 -0.2458 -0.3581
 7839TIP3    H145008   2.311   0.918   1.950 -0.4716 -1.0575 -0.1443
 7839TIP3    H245009   2.188   0.868   1.879 -0.9778  1.0826 -0.8589
 7840TIP3   OH245010   1.638   4.259   0.710  0.5819 -0.2105  0.5845
 7840TIP3    H145011   1.670   4.176   0.675  0.9056  1.2941 -3.2781
 7840TIP3    H245012   1.717   4.311   0.726  0.3562  0.2959  0.1271
 7841TIP3   OH245013   6.705   4.048  16.113 -0.7223 -0.1613 -0.3330
 7841TIP3    H145014   6.721   4.012  16.026 -2.6869 -2.1192  0.0387
 7841TIP3    H245015   6.792   4.054  16.153 -0.0276 -1.7950 -1.4908
 7842TIP3   OH245016   0.405   5.855  17.105  0.3040  0.3698  0.6877
 7842TIP3    H145017   0.317   5.817  17.102  0.3467  0.3003  0.2309
 7842TIP3    H245018   0.411   5.909  17.026  1.0766 -0.5406  0.0927
 7843TIP3   OH245019   2.200   2.487  15.921  0.0058  0.1354 -0.0788
 7843TIP3    H145020   2.197   2.578  15.951 -1.1866  0.0871 -0.0013
 7843TIP3    H245021   2.266   2.446  15.977 -0.1976  0.7071  0.6047
 7844TIP3   OH245022   2.909   5.143  13.865  0.8888 -0.1787 -0.1754
 7844TIP3    H145023   2.824   5.160  13.825  0.5529  1.1069  1.0095
 7844TIP3    H245024   2.919   5.048  13.860 -0.9103 -0.4278  0.2104
 7845TIP3   OH245025   3.032   4.831  13.510  0.0028  0.5405  0.0762
 7845TIP3    H145026   2.966   4.866  13.450  0.2414  0.3088 -0.3280
 7845TIP3    H245027   3.075   4.909  13.546 -1.8134  0.7639  1.8901
 7846TIP3   OH245028   1.166   0.254   1.081  0.0621  0.3187  0.3492
 7846TIP3    H145029   1.180   0.167   1.044 -1.4372  0.7157 -1.2724
 7846TIP3    H245030   1.238   0.307   1.047 -0.4699  0.3146 -0.8200
 7847TIP3   OH245031   4.537   5.899   0.472 -0.5816  0.5570  0.3954
 7847TIP3    H145032   4.582   5.946   0.402 -1.4527  0.8723  0.0362
 7847TIP3    H245033   4.579   5.929   0.553 -0.3156  1.0215  0.0863
 7848TIP3   OH245034   1.349   4.963  16.717 -0.1800 -0.4203 -0.0840
 7848TIP3    H145035   1.289   5.017  16.667 -0.6874 -0.0622  0.8969
 7848TIP3    H245036   1.310   4.875  16.715  0.5033 -0.7203 -1.4411
 7849TIP3   OH245037   4.294   5.033   0.579  0.0944 -0.0357 -0.0245
 7849TIP3    H145038   4.387   5.045   0.597  0.2505  1.0894 -1.4167
 7849TIP3    H245039   4.264   4.974   0.648  1.8668 -0.5630  0.3549
 7850TIP3   OH245040   2.207   4.162   3.784 -0.1113  0.6785 -0.2488
 7850TIP3    H145041   2.166   4.246   3.805 -0.0823  0.7960 -0.6628
 7850TIP3    H245042   2.300   4.176   3.804  0.0502  1.0471 -1.1974
 7851TIP3   OH245043   1.253   2.249  11.285  0.2269  0.1784  0.4101
 7851TIP3    H145044   1.234   2.202  11.204 -0.5084  0.5413  0.3667
 7851TIP3    H245045   1.248   2.182  11.353 -0.0753  0.0485  0.2610
 7852TIP3   OH245046   4.668   6.057  13.948  0.2027 -0.0350 -0.0115
 7852TIP3    H145047   4.711   6.036  14.031  0.8953 -1.3252 -0.6688
 7852TIP3    H245048   4.575   6.038  13.964  0.3663 -0.5257  0.4073
 7853TIP3   OH245049   5.296   1.241   4.913 -0.1003  0.3049  0.2296
 7853TIP3    H145050   5.221   1.298   4.923 -0.5080 -0.5086  2.2272
 7853TIP3    H245051   5.332   1.232   5.001  1.9929  0.1785 -0.5740
 7854TIP3   OH245052   6.805   5.639  14.031 -0.0910  0.2911  0.5219
 7854TIP3    H145053   6.796   5.559  13.980 -0.6409 -0.6325  1.9999
 7854TIP3    H245054   6.715   5.665  14.052  0.0310  1.7607 -0.5726
 7855TIP3   OH245055   5.321   5.651  13.889 -0.4355 -0.0654 -0.1054
 7855TIP3    H145056   5.375   5.579  13.856 -0.4850 -0.0150 -0.2986
 7855TIP3    H245057   5.364   5.730  13.856 -0.5860 -0.0218 -0.2009
 7856TIP3   OH245058   4.273   5.078  16.329 -0.3470 -0.1197 -0.4795
 7856TIP3    H145059   4.206   5.087  16.261  0.5537  0.7187 -1.2769
 7856TIP3    H245060   4.336   5.016  16.293  0.0198  0.1575 -0.3197
 7857TIP3   OH245061   1.944   3.001  13.613 -0.0183 -0.0845  0.0897
 7857TIP3    H145062   1.962   2.914  13.578 -1.6944  0.1703 -1.5879
 7857TIP3    H245063   2.026   3.049  13.604  0.7450 -1.2905  0.4552
 7858TIP3   OH245064   5.374   2.028  16.729 -0.0154 -0.6605 -0.8219
 7858TIP3    H145065   5.286   2.008  16.697  1.1153 -2.9262 -2.8737
 7858TIP3    H245066   5.417   2.071  16.655  0.5897  0.5789  0.2160
 7859TIP3   OH245067   1.971   2.434  10.606 -0.1125  0.3846  0.1343
 7859TIP3    H145068   2.000   2.511  10.656  0.6234  0.7253 -0.7670
 7859TIP3    H245069   1.877   2.429  10.621 -0.2085  1.6073  0.0345
 7860TIP3   OH245070   4.261   4.486  15.389  0.3224 -0.2255  0.0114
 7860TIP3    H145071   4.295   4.512  15.474 -1.5521 -0.3143  0.8346
 7860TIP3    H245072   4.283   4.393  15.381  1.6928  0.1015 -0.2355
 7861TIP3   OH245073   4.558   1.031   3.251 -0.2019 -0.1557 -0.3400
 7861TIP3    H145074   4.634   1.064   3.203  0.0019  1.9076  1.2533
 7861TIP3    H245075   4.487   1.033   3.187  0.1683  2.0661 -0.7674
 7862TIP3   OH245076   2.161   3.349   4.904 -0.1911  0.3514 -0.1204
 7862TIP3    H145077   2.068   3.362   4.922 -0.1588  1.6786 -0.7928
 7862TIP3    H245078   2.205   3.422   4.947  0.5657 -0.3377  0.3102
 7863TIP3   OH245079   5.752   1.822   2.609  0.4558 -0.0228 -0.6161
 7863TIP3    H145080   5.674   1.769   2.594  0.4709 -0.7694  1.5395
 7863TIP3    H245081   5.766   1.817   2.704  2.5788  0.8519 -0.8306
 7864TIP3   OH245082   6.102   4.322  16.043 -0.0241 -0.1167 -0.0777
 7864TIP3    H145083   6.132   4.231  16.039  1.0424  0.2289 -0.2522
 7864TIP3    H245084   6.134   4.361  15.961 -1.2899  0.1817 -0.4508
 7865TIP3   OH245085   0.446   6.762  14.797 -0.2215  0.2995 -0.0875
 7865TIP3    H145086   0.506   6.822  14.840  3.0894 -2.3551 -0.5692
 7865TIP3    H245087   0.427   6.695  14.863 -1.2026  0.1462 -0.5030
 7866TIP3   OH245088   1.396   3.148   1.079 -0.3766  0.3472 -0.1639
 7866TIP3    H145089   1.453   3.081   1.117  1.3036  1.9050  0.1706
 7866TIP3    H245090   1.416   3.147   0.986 -0.0662  0.6657 -0.0985
 7867TIP3   OH245091   1.342   0.434   3.647  0.2966  0.3850 -0.2077
 7867TIP3    H145092   1.321   0.507   3.706 -0.1180  1.5689 -1.7591
 7867TIP3    H245093   1.421   0.462   3.601  0.7633 -0.6376 -0.0541
 7868TIP3   OH245094   5.743   4.034   0.779 -0.5154  0.6700 -0.1690
 7868TIP3    H145095   5.827   4.053   0.738 -0.2687  0.4549  0.2258
 7868TIP3    H245096   5.679   4.081   0.726 -0.3683 -0.6893 -1.6193
 7869TIP3   OH245097   0.696   0.938   1.600  0.1527  0.0965 -0.1637
 7869TIP3    H145098   0.696   0.927   1.505  0.8211  0.1602 -0.1717
 7869TIP3    H245099   0.631   1.007   1.617 -2.7780 -2.4051 -0.2708
 7870TIP3   OH245100   3.696   0.350  13.281  0.5925  0.4178  0.1612
 7870TIP3    H145101   3.609   0.384  13.263  0.8139  0.8635 -0.0676
 7870TIP3    H245102   3.726   0.399  13.357  0.7106  0.3850  0.1367
 7871TIP3   OH245103   2.224   6.677  12.381 -0.1956  0.5303  0.8034
 7871TIP3    H145104   2.220   6.582  12.384 -1.0020  0.5615  1.0578
 7871TIP3    H245105   2.317   6.698  12.390  0.3311 -0.2870 -2.0397
 7872TIP3   OH245106   1.990   0.713  13.723  0.8863 -0.1178  0.1902
 7872TIP3    H145107   2.009   0.639  13.667  0.5482  0.4111 -0.6433
 7872TIP3    H245108   2.075   0.740  13.758  1.3968  0.7355 -1.6005
 7873TIP3   OH245109   3.932   0.858  15.462  0.1172 -0.0010 -0.0584
 7873TIP3    H145110   4.008   0.816  15.422  0.5924 -0.2663  1.0843
 7873TIP3    H245111   3.882   0.786  15.500  0.5605  0.3833  1.2950
 7874TIP3   OH245112   6.103   3.055   3.008 -0.2007  0.5067  0.3559
 7874TIP3    H145113   6.158   3.125   2.974 -1.0893  1.1716  0.2636
 7874TIP3    H245114   6.045   3.097   3.071 -2.0694  0.2669 -1.1108
 7875TIP3   OH245115   4.543   6.339  13.498  0.3368 -0.4415 -0.5814
 7875TIP3    H145116   4.554   6.379  13.412  2.1557  2.2797  0.7877
 7875TIP3    H245117   4.491   6.402  13.547  2.7189  0.0646  1.4740
 7876TIP3   OH245118   5.255   2.637  15.187 -0.1297 -0.3799  0.5482
 7876TIP3    H145119   5.281   2.597  15.270  0.3086  0.1118  0.6573
 7876TIP3    H245120   5.198   2.709  15.212  1.6112  1.0641  0.5934
 7877TIP3   OH245121   3.048   3.091   0.872  0.4475 -0.0886  0.3545
 7877TIP3    H145122   3.067   2.998   0.865  1.3257  0.1549 -0.6227
 7877TIP3    H245123   2.997   3.111   0.793 -0.9730 -0.0097  1.2438
 7878TIP3   OH245124   3.269   0.344   2.612  0.1466 -0.0641 -0.0964
 7878TIP3    H145125   3.205   0.289   2.656 -0.3923  0.4562 -0.2068
 7878TIP3    H245126   3.222   0.381   2.537  0.0708  1.5568  0.6947
 7879TIP3   OH245127   4.268   3.356  12.884  0.1908 -1.1056 -0.0255
 7879TIP3    H145128   4.291   3.281  12.939  0.1182  0.4529  2.3068
 7879TIP3    H245129   4.350   3.404  12.872 -0.2037 -0.1781  0.8046
 7880TIP3   OH245130   4.463   3.149   3.278 -0.6180  0.4389  0.4533
 7880TIP3    H145131   4.411   3.085   3.229  0.2608  0.4675 -0.5661
 7880TIP3    H245132   4.522   3.187   3.212 -0.1729  1.2999  1.3230
 7881TIP3   OH245133   4.801   0.508   0.324 -0.3904  0.0934 -0.0087
 7881TIP3    H145134   4.764   0.453   0.393 -2.3272  3.0706  1.5426
 7881TIP3    H245135   4.750   0.486   0.246 -0.8792 -0.5625  0.4832
 7882TIP3   OH245136   6.681   6.627   0.944 -0.3982  0.0405  0.1284
 7882TIP3    H145137   6.599   6.665   0.913 -0.7287 -0.9004 -0.1676
 7882TIP3    H245138   6.721   6.697   0.997 -0.6658  1.0401 -0.9453
 7883TIP3   OH245139   4.200   6.782  11.177  0.0637 -0.7044  0.0887
 7883TIP3    H145140   4.114   6.742  11.166  0.5522 -1.5077 -1.1410
 7883TIP3    H245141   4.219   6.823  11.092  0.7954 -0.3561  0.4079
 7884TIP3   OH245142   6.831   1.376  13.538 -0.4403 -0.3341 -0.1755
 7884TIP3    H145143   6.859   1.319  13.466 -0.0082  1.0124 -1.1211
 7884TIP3    H245144   6.897   1.362  13.606  0.4895  0.0910 -0.9626
 7885TIP3   OH245145   1.723   3.313  12.353  0.0189  0.0801 -0.4769
 7885TIP3    H145146   1.782   3.388  12.337 -1.0149  1.1025  0.3543
 7885TIP3    H245147   1.746   3.284  12.442 -1.4861  1.2455  0.3359
 7886TIP3   OH245148   6.557   5.251   4.966  0.1797 -0.2202 -0.2212
 7886TIP3    H145149   6.585   5.318   5.028  0.9308 -0.2873 -0.4730
 7886TIP3    H245150   6.465   5.235   4.987  0.3049  0.0751  0.5799
 7887TIP3   OH245151   5.758   4.100   2.006 -0.1724 -0.1743  0.4010
 7887TIP3    H145152   5.733   4.190   2.027 -0.9567 -0.2587 -0.1292
 7887TIP3    H245153   5.791   4.064   2.089  0.0015  0.5460  0.6497
 7888TIP3   OH245154   3.677   6.571  12.258 -0.7052 -0.0770 -0.6688
 7888TIP3    H145155   3.748   6.508  12.269  1.2569  2.1835  0.5000
 7888TIP3    H245156   3.598   6.523  12.285  0.9330 -1.5166  2.0264
 7889TIP3   OH245157   2.510   4.439  14.891 -0.4915  0.1435  0.0735
 7889TIP3    H145158   2.556   4.492  14.827 -1.5062 -1.4728 -2.1120
 7889TIP3    H245159   2.580   4.396  14.941  0.3112  1.8401  0.4922
 7890TIP3   OH245160   5.501   5.930  13.424  0.3725 -0.4027 -0.0189
 7890TIP3    H145161   5.536   5.845  13.450 -0.6206 -0.7282  0.2979
 7890TIP3    H245162   5.406   5.921  13.434  0.1947  0.4711 -0.7956
 7891TIP3   OH245163   5.238   6.516  12.350 -0.2824  0.5491 -1.0317
 7891TIP3    H145164   5.273   6.439  12.396 -0.4737 -0.4696 -2.5067
 7891TIP3    H245165   5.258   6.590  12.408 -0.1680 -0.6102  0.4703
 7892TIP3   OH245166   4.802   3.926  12.873 -0.2437 -0.2470 -0.1963
 7892TIP3    H145167   4.725   3.902  12.925  0.9594 -0.7330  1.4421
 7892TIP3    H245168   4.820   4.016  12.898 -0.2419 -0.1558 -0.5288
 7893TIP3   OH245169   5.675   2.489   5.142 -0.3731 -0.8258 -0.2223
 7893TIP3    H145170   5.623   2.475   5.221  0.9144  0.0414  0.8224
 7893TIP3    H245171   5.675   2.584   5.129  0.5375 -0.8430 -0.4665
 7894TIP3   OH245172   2.257   0.927   3.678 -0.5103 -0.3184 -0.4564
 7894TIP3    H145173   2.238   0.871   3.753  0.5050 -0.0196  0.0340
 7894TIP3    H245174   2.328   0.881   3.632 -0.8432 -0.2897 -0.9996
 7895TIP3   OH245175   5.000   5.304   0.796  0.0140  0.0868  0.1184
 7895TIP3    H145176   4.974   5.211   0.796  1.4713 -0.4045 -2.4927
 7895TIP3    H245177   4.933   5.348   0.744 -0.9155  0.6592  1.7102
 7896TIP3   OH245178   6.569   5.513   5.856  0.2326 -0.2038 -0.9201
 7896TIP3    H145179   6.597   5.514   5.947 -0.0544  0.9175 -0.8277
 7896TIP3    H245180   6.527   5.428   5.844  1.8692 -1.1243 -0.5179
 7897TIP3   OH245181   6.159   1.648  11.743  0.3958  0.7969  0.4171
 7897TIP3    H145182   6.232   1.589  11.760  0.0462  0.5134  0.9518
 7897TIP3    H245183   6.200   1.734  11.733  0.7741  0.6961  1.0445
 7898TIP3   OH245184   4.259   5.685  16.194 -0.0933 -0.1915  0.3538
 7898TIP3    H145185   4.342   5.717  16.232  0.1032  0.1791 -0.3730
 7898TIP3    H245186   4.273   5.591  16.182 -0.1511 -0.3144  1.1745
 7899TIP3   OH245187   6.724   3.541  14.002 -0.0035 -0.1085 -0.9571
 7899TIP3    H145188   6.649   3.519  14.058  0.8449 -0.2259  0.1745
 7899TIP3    H245189   6.778   3.462  14.001  2.1625  1.1293  1.6907
 7900TIP3   OH245190   4.069   2.627  13.450  0.2117 -0.3307  0.1070
 7900TIP3    H145191   4.133   2.654  13.385  0.6000 -0.2952  0.4952
 7900TIP3    H245192   4.086   2.683  13.526 -0.1516 -0.4513  0.2811
 7901TIP3   OH245193   4.989   4.031  12.479 -0.0205 -0.2585 -0.5241
 7901TIP3    H145194   5.068   4.017  12.428  0.6164 -1.9328  0.7990
 7901TIP3    H245195   4.967   3.944  12.513 -1.7586  0.3779  0.0976
 7902TIP3   OH245196   0.626   3.535  13.479 -0.4287 -0.6899  0.2300
 7902TIP3    H145197   0.646   3.624  13.452 -1.4376 -0.0857  1.3769
 7902TIP3    H245198   0.647   3.481  13.403  1.2746  0.3734 -0.1093
 7903TIP3   OH245199   5.714   2.221  14.270  0.3854  0.3189  0.3608
 7903TIP3    H145200   5.780   2.277  14.312  1.1824  0.6102 -1.1839
 7903TIP3    H245201   5.694   2.154  14.335  2.3383  0.1357  0.8269
 7904TIP3   OH245202   6.052   4.541   0.834  0.2590  0.2120 -0.3285
 7904TIP3    H145203   5.987   4.535   0.764  0.6144  1.3969 -0.7776
 7904TIP3    H245204   6.006   4.511   0.912  0.1667 -2.1780 -1.2216
 7905TIP3   OH245205   0.088   2.475  12.223  0.3012 -0.0623 -0.3245
 7905TIP3    H145206   0.043   2.539  12.168 -0.8408 -0.1090  0.5195
 7905TIP3    H245207   0.167   2.520  12.253  0.4107  0.3185 -1.1537
 7906TIP3   OH245208   2.528   3.374   1.049  0.1873 -0.2010  0.2000
 7906TIP3    H145209   2.566   3.307   0.994  0.9739  1.1519 -0.9797
 7906TIP3    H245210   2.602   3.410   1.098  0.0937  0.9294 -0.4494
 7907TIP3   OH245211   2.793   4.910   3.657  0.3344 -0.1932 -0.6630
 7907TIP3    H145212   2.860   4.932   3.722 -0.5980  0.5619  0.0677
 7907TIP3    H245213   2.824   4.952   3.576  1.5077 -1.1485 -0.7389
 7908TIP3   OH245214   0.951   4.820   4.070 -0.0094  0.0868  0.0936
 7908TIP3    H145215   0.920   4.781   3.988  0.4811 -1.4573  0.6123
 7908TIP3    H245216   1.021   4.880   4.043  0.1232 -0.3756 -0.6348
 7909TIP3   OH245217   2.669   0.980  13.330  0.4618  0.3988 -0.4770
 7909TIP3    H145218   2.682   1.073  13.313  3.1085  0.4564  1.2185
 7909TIP3    H245219   2.737   0.958  13.394 -0.2791 -2.6400 -0.5906
 7910TIP3   OH245220   4.269   0.143   0.457  0.3403  0.0093 -0.0916
 7910TIP3    H145221   4.224   0.079   0.403  0.9985 -0.0602 -0.5690
 7910TIP3    H245222   4.204   0.212   0.472 -1.1406 -1.7050  2.2274
 7911TIP3   OH245223   2.845   3.318  12.831  0.4442 -0.0584  0.5720
 7911TIP3    H145224   2.818   3.251  12.769  1.2979 -1.2864  1.4703
 7911TIP3    H245225   2.927   3.284  12.869 -0.0059  0.6575  2.2994
 7912TIP3   OH245226   0.329   5.303   4.540 -0.1051 -0.0511 -0.2973
 7912TIP3    H145227   0.390   5.325   4.469  1.1001  0.6922  0.9339
 7912TIP3    H245228   0.254   5.264   4.495  0.6223  0.3960 -1.9856
 7913TIP3   OH245229   0.270   1.445   2.424  0.3475 -0.5370 -0.4906
 7913TIP3    H145230   0.321   1.401   2.356 -1.0492 -2.0245 -0.6261
 7913TIP3    H245231   0.181   1.413   2.411  0.0220 -0.7712  1.9702
 7914TIP3   OH245232   1.813   3.801   3.630 -0.1794 -0.7436 -0.0923
 7914TIP3    H145233   1.893   3.813   3.580  0.9441  1.8794  2.0526
 7914TIP3    H245234   1.778   3.717   3.601  1.7738 -0.6367 -3.1797
 7915TIP3   OH245235   4.661   1.810   1.113  0.3266 -0.2673 -0.0567
 7915TIP3    H145236   4.589   1.783   1.170 -1.4281  2.1041 -0.9981
 7915TIP3    H245237   4.635   1.779   1.026  0.2009  0.9975 -0.4790
 7916TIP3   OH245238   4.757   5.451  16.966  0.0439 -0.4514  0.1569
 7916TIP3    H145239   4.768   5.377  16.906  1.0103 -2.7960  2.9839
 7916TIP3    H245240   4.665   5.447  16.990 -0.8581  1.7216 -2.4486
 7917TIP3   OH245241   0.381   0.061   1.488 -0.1251 -0.7829  0.9047
 7917TIP3    H145242   0.318   0.125   1.523 -0.9450 -1.5041  0.7792
 7917TIP3    H245243   0.460   0.113   1.470 -0.0582 -0.1889  2.7341
 7918TIP3   OH245244   5.899   4.729  15.501  0.4972 -0.5043 -0.6030
 7918TIP3    H145245   5.946   4.667  15.446 -0.6111 -0.0333 -2.1668
 7918TIP3    H245246   5.919   4.815  15.461 -2.0772 -0.3369 -1.7140
 7919TIP3   OH245247   6.012   6.232  11.615  0.2126 -0.0055  0.0673
 7919TIP3    H145248   6.071   6.157  11.615  0.1433 -0.0614 -0.1465
 7919TIP3    H245249   6.012   6.263  11.705  0.3144 -0.2065  0.1366
 7920TIP3   OH245250   5.162   2.024   4.093 -0.2716  0.4198  0.2245
 7920TIP3    H145251   5.110   1.971   4.032  0.6274  0.7098 -0.8028
 7920TIP3    H245252   5.226   1.962   4.129 -0.4470  0.3801  0.4769
 7921TIP3   OH245253   5.505   4.351  13.068  0.2454 -0.3444  0.0116
 7921TIP3    H145254   5.462   4.371  13.151  0.0573 -0.5317 -0.0376
 7921TIP3    H245255   5.572   4.287  13.090 -0.9859 -1.7786 -0.2296
 7922TIP3   OH245256   2.945   2.175   4.204 -0.0210 -0.1204  0.3581
 7922TIP3    H145257   2.890   2.249   4.179  0.7810  0.7433  1.1000
 7922TIP3    H245258   3.011   2.169   4.135 -0.9764 -1.1232 -0.5043
 7923TIP3   OH245259   0.148   1.258   1.088 -0.5768  0.0963 -0.0471
 7923TIP3    H145260   0.227   1.262   1.143  0.5943 -0.2447 -1.6158
 7923TIP3    H245261   0.087   1.205   1.138 -0.2473  1.3182  1.7187
 7924TIP3   OH245262   1.448   5.396  10.487  0.5350 -0.2599 -0.1550
 7924TIP3    H145263   1.369   5.342  10.493 -0.1697  0.9132  2.6118
 7924TIP3    H245264   1.496   5.360  10.413 -1.8646 -1.9812 -0.9888
 7925TIP3   OH245265   5.884   5.398   5.394  0.1530  0.4928  0.2168
 7925TIP3    H145266   5.831   5.386   5.315 -0.6994 -0.0148  0.8464
 7925TIP3    H245267   5.833   5.459   5.448 -0.7331 -1.4186  1.6279
 7926TIP3   OH245268   2.915   3.643  16.102  0.3079  0.6366  0.5984
 7926TIP3    H145269   2.911   3.709  16.033 -1.1364 -0.3992 -0.3699
 7926TIP3    H245270   2.942   3.563  16.057  1.0956  0.3291  1.5765
 7927TIP3   OH245271   3.159   0.136   0.809 -0.2866  0.2517 -0.2142
 7927TIP3    H145272   3.114   0.191   0.873  0.3244  0.6818 -0.1410
 7927TIP3    H245273   3.144   0.178   0.725  1.2474  1.2882 -0.0133
 7928TIP3   OH245274   4.908   5.662   0.432 -0.0816  0.1732 -0.1499
 7928TIP3    H145275   4.890   5.686   0.523  0.9397  0.6082 -0.0491
 7928TIP3    H245276   4.823   5.635   0.397 -0.7758  1.4132  0.5140
 7929TIP3   OH245277   4.625   2.536  12.320 -0.3609 -0.2050  0.6185
 7929TIP3    H145278   4.697   2.545  12.258 -0.2566 -3.8982 -0.0350
 7929TIP3    H245279   4.551   2.579  12.278  0.4389 -0.0251 -0.6545
 7930TIP3   OH245280   0.681   3.953  16.415 -0.0048  0.2861  0.0041
 7930TIP3    H145281   0.708   4.044  16.429  1.4498  0.0044 -0.8458
 7930TIP3    H245282   0.607   3.959  16.355  1.2094  0.8360 -1.4765
 7931TIP3   OH245283   0.511   6.225  12.140  0.1480  0.6339  0.6214
 7931TIP3    H145284   0.552   6.183  12.216 -0.7579  0.9088  1.2840
 7931TIP3    H245285   0.419   6.236  12.165 -0.5381 -0.6638 -1.1196
 7932TIP3   OH245286   5.619   4.330  12.472 -0.8815 -0.1046 -0.1809
 7932TIP3    H145287   5.544   4.279  12.442 -2.1568  0.5054  1.8172
 7932TIP3    H245288   5.594   4.363  12.558  0.9139  1.7650 -0.2797
 7933TIP3   OH245289   5.031   5.264  11.167 -0.5289 -0.3690 -0.1518
 7933TIP3    H145290   5.086   5.308  11.232 -3.8853  0.8569  2.1273
 7933TIP3    H245291   4.994   5.336  11.115  0.4575 -1.2034 -2.0917
 7934TIP3   OH245292   1.081   0.278   6.121  0.5799 -0.2877 -0.2318
 7934TIP3    H145293   1.039   0.363   6.136 -1.0160 -0.7633 -1.6063
 7934TIP3    H245294   1.175   0.295   6.130  0.2968  1.6154 -0.4579
 7935TIP3   OH245295   3.992   4.066  15.554 -0.4619  0.3336  0.1588
 7935TIP3    H145296   4.053   4.138  15.573 -1.3370  1.3151 -0.6684
 7935TIP3    H245297   3.986   4.018  15.636  1.6791 -0.0010  0.1881
 7936TIP3   OH245298   3.674   3.610  13.038 -0.4245 -0.2426 -0.0459
 7936TIP3    H145299   3.691   3.704  13.047 -1.5910 -0.0481  0.2052
 7936TIP3    H245300   3.688   3.575  13.126  0.6147 -0.4188 -0.2688
 7937TIP3   OH245301   0.627   5.752  15.794 -0.0686  0.3258 -0.0661
 7937TIP3    H145302   0.669   5.824  15.840 -0.4796 -0.7124  2.0471
 7937TIP3    H245303   0.535   5.759  15.816 -0.8511  1.4846 -3.1689
 7938TIP3   OH245304   5.474   6.257   4.090 -0.4991  0.6576  0.2678
 7938TIP3    H145305   5.528   6.336   4.084 -0.6378  0.7102 -0.4261
 7938TIP3    H245306   5.444   6.254   4.181  0.9429  0.4509  0.7586
 7939TIP3   OH245307   1.523   3.690   1.950 -0.7430  0.0601 -0.4933
 7939TIP3    H145308   1.444   3.731   1.985 -1.0099 -1.9199  1.4357
 7939TIP3    H245309   1.492   3.630   1.883 -0.6778  0.4869 -0.9155
 7940TIP3   OH245310   2.448   1.484   3.574 -0.2639 -0.0046 -0.2287
 7940TIP3    H145311   2.364   1.455   3.539 -1.1035  0.6010  1.1683
 7940TIP3    H245312   2.510   1.416   3.549 -0.8835  0.1624 -2.3994
 7941TIP3   OH245313   3.222   6.567  12.512  0.4129  0.1104 -0.1761
 7941TIP3    H145314   3.139   6.529  12.537  0.2373  0.3262 -0.4234
 7941TIP3    H245315   3.205   6.661  12.507  0.3406  0.0443 -1.4719
 7942TIP3   OH245316   0.952   0.682   4.072  0.0225  0.2218  0.1685
 7942TIP3    H145317   0.915   0.770   4.070  1.2922  0.7792 -0.0627
 7942TIP3    H245318   1.001   0.679   4.154  0.9457  0.1689 -0.3632
 7943TIP3   OH245319   0.751   5.117  16.319  0.1230 -0.1447  0.0911
 7943TIP3    H145320   0.841   5.092  16.343  1.4420  2.0346 -2.1516
 7943TIP3    H245321   0.741   5.206  16.354 -0.9077 -0.1056 -0.2837
 7944TIP3   OH245322   0.083   5.993  15.344 -0.6005  0.4407 -0.1085
 7944TIP3    H145323   0.137   6.046  15.285  0.6466 -1.3272 -0.6314
 7944TIP3    H245324   0.146   5.946  15.399 -1.6568 -0.3335  0.4881
 7945TIP3   OH245325   2.083   6.704   3.364 -0.3312  0.1826  0.2644
 7945TIP3    H145326   2.007   6.662   3.323  0.3604 -0.5193 -0.3447
 7945TIP3    H245327   2.076   6.682   3.457 -0.6440 -0.2393  0.1439
 7946TIP3   OH245328   6.695   3.161  12.512 -0.0353 -0.5317  0.2839
 7946TIP3    H145329   6.690   3.233  12.450 -4.1069 -1.0975 -0.3483
 7946TIP3    H245330   6.765   3.185  12.572 -1.2049  4.0272  0.1682
 7947TIP3   OH245331   2.920   5.366   5.738 -0.2627 -0.0993 -0.2752
 7947TIP3    H145332   2.956   5.384   5.825  1.5396 -1.3661 -0.6945
 7947TIP3    H245333   2.826   5.362   5.751 -0.4684  3.8369  0.8467
 7948TIP3   OH245334   0.980   3.159   4.638 -0.3033 -0.0925 -0.9227
 7948TIP3    H145335   0.954   3.074   4.605  0.5985 -0.1756 -1.4475
 7948TIP3    H245336   1.042   3.140   4.709 -1.6348  0.1005  0.3423
 7949TIP3   OH245337   2.165   6.087  12.860  0.5556  0.6146  0.6985
 7949TIP3    H145338   2.094   6.122  12.806  0.2767 -1.3957 -0.3179
 7949TIP3    H245339   2.243   6.134  12.830 -0.0095  1.3572  0.3653
 7950TIP3   OH245340   2.212   6.684  17.149  0.2461  0.2844 -0.3706
 7950TIP3    H145341   2.154   6.619  17.189  0.4866 -0.2244 -0.8401
 7950TIP3    H245342   2.288   6.685  17.207  1.0339 -1.1809 -1.3160
 7951TIP3   OH245343   2.456   2.418   4.521 -0.2200 -0.1224  0.3888
 7951TIP3    H145344   2.434   2.356   4.590 -1.7422 -0.5149 -0.4146
 7951TIP3    H245345   2.537   2.385   4.483 -0.0480 -0.5949  1.1660
 7952TIP3   OH245346   4.800   5.661   0.084 -0.4305 -0.2014  0.0465
 7952TIP3    H145347   4.706   5.661   0.068 -0.4885 -1.1159  0.3300
 7952TIP3    H245348   4.808   5.666   0.179 -0.1191  3.2902 -0.0366
 7953TIP3   OH245349   6.707   2.389   1.728 -0.2459 -0.2016 -1.0006
 7953TIP3    H145350   6.617   2.411   1.703 -1.1970 -2.4213  0.2496
 7953TIP3    H245351   6.718   2.429   1.814 -0.5455 -1.0930 -0.5395
 7954TIP3   OH245352   1.667   2.900  12.942 -0.1288  0.5160  0.0971
 7954TIP3    H145353   1.632   2.830  12.997  1.3943  0.2939  0.8283
 7954TIP3    H245354   1.734   2.942  12.996  1.4321  0.2863 -1.5579
 7955TIP3   OH245355   4.087   4.595   2.128  0.0556  0.0150 -0.4028
 7955TIP3    H145356   4.060   4.504   2.115 -0.6077  0.4907 -2.7047
 7955TIP3    H245357   4.179   4.596   2.102  0.1130 -0.0275 -0.2029
 7956TIP3   OH245358   6.507   1.342  15.586 -0.2535 -0.3662 -0.4879
 7956TIP3    H145359   6.469   1.259  15.617 -0.3863  0.0936  0.6469
 7956TIP3    H245360   6.546   1.381  15.665  0.3930  0.3373 -1.1423
 7957TIP3   OH245361   6.602   6.114   5.616  0.1046  0.4187  0.8554
 7957TIP3    H145362   6.600   6.106   5.712 -0.6299  0.7436  0.8724
 7957TIP3    H245363   6.535   6.053   5.586  1.1652 -0.6013  0.4643
 7958TIP3   OH245364   3.001   6.728   3.618 -0.1835  0.6608  0.6886
 7958TIP3    H145365   2.946   6.652   3.637  0.0780  0.5302  0.9322
 7958TIP3    H245366   3.050   6.703   3.539 -0.2285  0.6485  0.6642
 7959TIP3   OH245367   2.544   3.346   4.105 -0.3684  0.7120 -0.1548
 7959TIP3    H145368   2.486   3.320   4.177  1.6155  0.8237  1.5863
 7959TIP3    H245369   2.602   3.271   4.092  2.5554  2.3649  1.9303
 7960TIP3   OH245370   3.813   6.666   0.031 -0.3124 -0.4494  0.9818
 7960TIP3    H145371   3.828   6.572   0.044 -0.3372 -0.5624  0.2208
 7960TIP3    H245372   3.818   6.678  -0.064 -1.4218  0.1306  0.9815
 7961TIP3   OH245373   0.819   1.487   4.298  0.0585 -0.2645 -0.5838
 7961TIP3    H145374   0.901   1.441   4.285 -0.6691 -1.5829 -0.7041
 7961TIP3    H245375   0.766   1.463   4.222 -0.7323 -0.1153 -0.0910
 7962TIP3   OH245376   6.074   1.714  15.485  0.3189  0.1081  0.5573
 7962TIP3    H145377   6.067   1.808  15.500  1.7705  0.0388  2.0812
 7962TIP3    H245378   5.993   1.678  15.522 -1.8077  0.9207 -2.9204
 7963TIP3   OH245379   2.558   6.614   5.096  0.0079 -0.2174 -0.3020
 7963TIP3    H145380   2.463   6.609   5.101  0.1088 -0.8840  1.5069
 7963TIP3    H245381   2.587   6.523   5.091  0.6167 -0.1768  1.6891
 7964TIP3   OH245382   3.188   6.410  14.711 -0.5305 -0.0904 -0.2099
 7964TIP3    H145383   3.193   6.395  14.617 -0.3745  0.1031 -0.2330
 7964TIP3    H245384   3.278   6.430  14.737 -0.2624 -1.7225  0.2470
 7965TIP3   OH245385   1.031   3.528   0.476  0.1996 -0.2225  0.2924
 7965TIP3    H145386   1.109   3.495   0.521  0.8805  0.8880 -0.0304
 7965TIP3    H245387   1.005   3.605   0.526  0.2159  0.2931 -0.4688
 7966TIP3   OH245388   0.057   2.903  12.468 -0.0339 -0.3172 -0.9231
 7966TIP3    H145389   0.039   2.981  12.521  1.6283 -0.6872  0.2417
 7966TIP3    H245390   0.101   2.842  12.527  2.0374 -0.6980 -2.7124
 7967TIP3   OH245391   0.282   5.599   3.280 -0.9475  0.0912 -0.2244
 7967TIP3    H145392   0.324   5.653   3.213  3.2178 -2.2436  0.1040
 7967TIP3    H245393   0.286   5.510   3.244  0.2678 -1.0665  2.4923
 7968TIP3   OH245394   3.050   3.313  15.206 -0.4856 -0.3391 -0.0675
 7968TIP3    H145395   3.017   3.398  15.234 -2.7290 -1.4881  1.0131
 7968TIP3    H245396   2.986   3.250  15.238  2.6755 -2.8157  2.1411
 7969TIP3   OH245397   3.787   4.071   3.323 -0.6608  0.2248  0.0872
 7969TIP3    H145398   3.750   4.059   3.410 -1.1088  0.5771 -0.0485
 7969TIP3    H245399   3.836   4.153   3.327 -1.0596  0.4761 -0.1128
 7970TIP3   OH245400   5.205   0.646   4.091 -0.5757 -0.3748  0.2386
 7970TIP3    H145401   5.279   0.692   4.051  0.0693 -2.0209 -0.5280
 7970TIP3    H245402   5.208   0.673   4.183 -0.8762  1.9139 -0.3610
 7971TIP3   OH245403   5.577   6.500  16.697  0.1400  0.4304 -0.2928
 7971TIP3    H145404   5.548   6.586  16.668  0.8664  0.9021  0.3440
 7971TIP3    H245405   5.663   6.489  16.657  0.2946  0.2452  0.0908
 7972TIP3   OH245406   4.179   4.590  12.521  0.3104  0.2837 -0.1525
 7972TIP3    H145407   4.164   4.504  12.481  0.4104  0.3008 -0.2260
 7972TIP3    H245408   4.273   4.593  12.537  0.3261  0.4306 -0.2683
 7973TIP3   OH245409   1.682   0.310  13.644 -0.2259 -0.7128 -0.4140
 7973TIP3    H145410   1.731   0.389  13.621 -1.3722 -0.0763 -0.7525
 7973TIP3    H245411   1.606   0.342  13.691 -0.8081 -1.5982 -0.7325
 7974TIP3   OH245412   0.837   4.582   5.327 -0.4592 -0.2737 -0.7872
 7974TIP3    H145413   0.879   4.517   5.272  0.7022 -0.8210  0.6919
 7974TIP3    H245414   0.839   4.663   5.275  1.6712 -0.4911 -1.1252
 7975TIP3   OH245415   3.856   6.794   3.731  0.3724 -0.4563 -0.2900
 7975TIP3    H145416   3.862   6.747   3.648  1.4691  0.4244 -0.7409
 7975TIP3    H245417   3.833   6.884   3.705 -0.5087 -0.4584  0.4577
 7976TIP3   OH245418   0.492   1.053   4.155  0.5732 -0.2839 -0.5637
 7976TIP3    H145419   0.406   1.051   4.113  0.1627  2.9452 -0.1726
 7976TIP3    H245420   0.479   1.105   4.235  2.4068 -1.8238  0.8397
 7977TIP3   OH245421   2.961   4.213  17.135  0.5468  0.4571  0.0894
 7977TIP3    H145422   2.974   4.169  17.219  2.6407  1.6423  0.4773
 7977TIP3    H245423   3.000   4.300  17.148  0.7527  0.7344 -2.0592
 7978TIP3   OH245424   5.263   0.369   2.175  0.7463 -0.1382 -0.4893
 7978TIP3    H145425   5.168   0.383   2.182  0.7012 -0.1886 -0.9519
 7978TIP3    H245426   5.297   0.391   2.262  0.2184 -0.9044 -0.0727
 7979TIP3   OH245427   3.034   4.895  11.296 -0.3238 -0.1055  0.4707
 7979TIP3    H145428   3.060   4.864  11.210  1.5409  2.1735  0.1330
 7979TIP3    H245429   3.013   4.815  11.345 -1.2297 -1.4624 -1.9676
 7980TIP3   OH245430   5.167   1.884   0.073 -0.4413  0.0679  0.3234
 7980TIP3    H145431   5.087   1.839   0.046 -1.3421  1.9454 -0.3197
 7980TIP3    H245432   5.142   1.929   0.154  0.4181 -0.4994  0.9166
 7981TIP3   OH245433   5.416   2.977   5.758 -0.1136 -0.6083 -0.0526
 7981TIP3    H145434   5.489   2.972   5.696  0.6306 -1.9158  0.8744
 7981TIP3    H245435   5.377   3.062   5.742  0.3674 -0.7063 -1.9635
 7982TIP3   OH245436   3.105   2.018  17.055 -0.3130  0.1646 -0.1195
 7982TIP3    H145437   3.075   1.927  17.067  0.7753  0.0250  2.0275
 7982TIP3    H245438   3.196   2.018  17.086  0.3416  1.6127 -1.8728
 7983TIP3   OH245439   6.809   0.739   4.693  0.6203 -0.0763 -0.1467
 7983TIP3    H145440   6.890   0.716   4.737  0.2483 -0.9134  0.1270
 7983TIP3    H245441   6.819   0.705   4.604  0.7923  0.3117 -0.2735
 7984TIP3   OH245442   0.800   2.090  11.527  0.5333  0.2676  0.0232
 7984TIP3    H145443   0.708   2.115  11.516  0.3433 -0.3352  0.2007
 7984TIP3    H245444   0.796   2.008  11.577  1.2333  1.3091  1.8737
 7985TIP3   OH245445   3.290   6.481   2.772  0.4342  0.0360  0.3081
 7985TIP3    H145446   3.247   6.477   2.858  2.5545  2.3431  1.5969
 7985TIP3    H245447   3.381   6.501   2.792  1.7245 -2.4644 -2.4187
 7986TIP3   OH245448   5.623   2.067  14.066 -0.2544  0.7586  0.5442
 7986TIP3    H145449   5.685   1.994  14.063  0.1989  1.1250  0.8155
 7986TIP3    H245450   5.654   2.121  14.139 -0.3819  1.4009  0.1273
 7987TIP3   OH245451   6.228   2.474   0.880  0.3701  0.1379 -0.0735
 7987TIP3    H145452   6.143   2.449   0.842  0.4050 -2.7821  1.4637
 7987TIP3    H245453   6.284   2.489   0.804 -1.0878  0.5221 -1.1320
 7988TIP3   OH245454   2.636   6.368  10.801 -0.2646 -0.2188  0.0727
 7988TIP3    H145455   2.630   6.434  10.733  2.7452 -0.0307 -0.1331
 7988TIP3    H245456   2.648   6.418  10.882  0.3803 -0.4600  0.1343
 7989TIP3   OH245457   3.205   3.826  13.947 -0.2628  0.3151 -0.0884
 7989TIP3    H145458   3.122   3.788  13.976 -0.5291 -0.2249 -1.4657
 7989TIP3    H245459   3.269   3.797  14.012 -0.7886 -0.9946 -0.1287
 7990TIP3   OH245460   0.768   5.294  12.743  0.1689 -0.0221  0.5316
 7990TIP3    H145461   0.766   5.345  12.663  0.2488 -2.2563 -0.9953
 7990TIP3    H245462   0.849   5.320  12.787  2.0803 -1.2831 -1.9852
 7991TIP3   OH245463   6.165   6.423  14.593 -0.0132  0.0670  0.4074
 7991TIP3    H145464   6.131   6.489  14.533  0.0261 -1.0125 -0.8654
 7991TIP3    H245465   6.260   6.428  14.584 -0.0280 -1.0787 -0.8087
 7992TIP3   OH245466   2.353   1.937  14.133  0.5770 -0.4135  0.0209
 7992TIP3    H145467   2.446   1.928  14.153  0.2277 -0.4181  1.7848
 7992TIP3    H245468   2.351   1.960  14.040  2.6006  3.6522  0.7343
 7993TIP3   OH245469   5.285   4.746   0.389  0.1484  0.1889 -0.6220
 7993TIP3    H145470   5.210   4.696   0.356 -0.0173 -0.4094  0.6345
 7993TIP3    H245471   5.290   4.822   0.331 -0.8267 -0.2605 -1.3223
 7994TIP3   OH245472   6.254   4.135   2.679  0.6804 -0.1681 -0.0477
 7994TIP3    H145473   6.228   4.108   2.767  1.7032  0.5878  0.5161
 7994TIP3    H245474   6.275   4.228   2.688  0.3435  0.0329 -1.2040
 7995TIP3   OH245475   3.199   4.319   4.593 -0.7315 -0.0315 -0.8448
 7995TIP3    H145476   3.166   4.408   4.581  0.5640  0.6461  0.3474
 7995TIP3    H245477   3.135   4.278   4.652 -1.0020  0.3245 -0.8881
 7996TIP3   OH245478   2.584   0.355  12.245  0.3496 -0.7615 -0.0013
 7996TIP3    H145479   2.641   0.315  12.180 -0.1082  0.4656 -1.2040
 7996TIP3    H245480   2.513   0.393  12.194  0.5219  1.1544  1.0986
 7997TIP3   OH245481   3.263   6.616  15.255  0.2002  0.3313 -0.3629
 7997TIP3    H145482   3.180   6.615  15.207 -0.3852 -0.4765  0.6272
 7997TIP3    H245483   3.292   6.525  15.255  1.1644  0.6222 -0.7942
 7998TIP3   OH245484   5.747   1.319  15.709 -0.4373  0.0873 -0.2313
 7998TIP3    H145485   5.653   1.323  15.727 -0.2345 -0.1160  0.9100
 7998TIP3    H245486   5.765   1.403  15.665 -1.0202  0.4450  0.1868
 7999TIP3   OH245487   5.748   1.630  17.141  0.0784  0.2882  0.4816
 7999TIP3    H145488   5.824   1.685  17.121 -1.0152  1.4230 -0.7453
 7999TIP3    H245489   5.727   1.587  17.058  0.1190 -1.0229  1.1173
 8000TIP3   OH245490   4.797   4.985   5.517  0.5109  0.2890  0.2561
 8000TIP3    H145491   4.794   4.968   5.423  0.3240 -1.8574  0.5905
 8000TIP3    H245492   4.800   5.080   5.524  1.8758  0.4912 -1.9462
 8001TIP3   OH245493   6.378   0.262  11.863  0.1500  0.3285 -0.2029
 8001TIP3    H145494   6.395   0.263  11.769  0.6917 -1.0707 -0.1364
 8001TIP3    H245495   6.306   0.325  11.875  0.1226  0.5703 -1.5311
 8002TIP3   OH245496   3.188   2.094  13.110  0.0442 -0.0100  0.1298
 8002TIP3    H145497   3.268   2.145  13.093 -0.2482  0.9814  1.6107
 8002TIP3    H245498   3.130   2.117  13.037  0.7670 -0.0352 -0.4686
 8003TIP3   OH245499   0.635   6.201   2.624 -0.4893 -0.2222 -0.0532
 8003TIP3    H145500   0.610   6.171   2.712  1.1753 -3.5940 -0.5428
 8003TIP3    H245501   0.715   6.252   2.638  1.2259 -2.8249  0.3519
 8004TIP3   OH245502   0.165   3.807   2.701 -0.4019 -0.2411  0.5251
 8004TIP3    H145503   0.088   3.812   2.758  0.1052  0.4713  1.1609
 8004TIP3    H245504   0.238   3.793   2.761  0.1288  0.4101  0.0455
 8005TIP3   OH245505   0.285   3.825   4.832 -0.4155 -0.5428  0.1592
 8005TIP3    H145506   0.201   3.861   4.805  0.7340  1.7551 -0.6230
 8005TIP3    H245507   0.308   3.763   4.763 -0.8388 -0.1087 -0.3870
 8006TIP3   OH245508   4.404   4.389  11.035  0.0343 -0.5477  0.2551
 8006TIP3    H145509   4.381   4.332  11.108  1.8996 -0.4226  1.0066
 8006TIP3    H245510   4.360   4.351  10.959  0.3207 -2.3446  0.9388
 8007TIP3   OH245511   1.235   6.132   5.009 -0.3845  0.0693 -0.1263
 8007TIP3    H145512   1.266   6.156   4.922 -0.9442 -1.2124 -0.7036
 8007TIP3    H245513   1.187   6.209   5.039  0.3581  0.7640 -0.6780
 8008TIP3   OH245514   5.315   1.461  11.875  0.3990  0.3342  0.0106
 8008TIP3    H145515   5.398   1.452  11.829  0.6601  0.2380  0.4957
 8008TIP3    H245516   5.253   1.409  11.824  0.6757  0.2592 -0.2486
 8009TIP3   OH245517   5.044   3.683  14.855  0.5371 -0.0304 -0.3939
 8009TIP3    H145518   5.010   3.716  14.772  0.9778 -1.6162 -1.2277
 8009TIP3    H245519   5.139   3.691  14.848  0.5296  1.8967  0.8826
 8010TIP3   OH245520   6.802   4.757  14.236  0.5816 -0.4726 -0.3905
 8010TIP3    H145521   6.775   4.849  14.245 -0.0500 -0.8585  2.3312
 8010TIP3    H245522   6.752   4.710  14.302  2.0096 -2.5709 -0.6919
 8011TIP3   OH245523   3.863   3.380  11.708  0.0336 -0.1817  0.2615
 8011TIP3    H145524   3.822   3.449  11.656 -1.1496  0.8130  2.3826
 8011TIP3    H245525   3.956   3.401  11.706 -0.1770  0.7928 -0.1160
 8012TIP3   OH245526   1.469   2.204  15.598 -0.2279 -0.3206  0.2947
 8012TIP3    H145527   1.388   2.240  15.563 -0.8991 -2.8977 -1.0459
 8012TIP3    H245528   1.533   2.217  15.528 -0.0979 -0.4041  0.3978
 8013TIP3   OH245529   0.286   5.491  10.869  0.3623  0.1233  0.2012
 8013TIP3    H145530   0.355   5.502  10.803  0.6125  0.2624  0.4845
 8013TIP3    H245531   0.204   5.508  10.822  0.4799 -0.5295 -0.2573
 8014TIP3   OH245532   3.514   1.957  12.088  0.0088 -0.6564  0.4546
 8014TIP3    H145533   3.531   2.024  12.155 -1.7595 -1.5258  1.8276
 8014TIP3    H245534   3.525   2.004  12.005  1.0721  0.7515  1.3395
 8015TIP3   OH245535   2.064   6.054   3.902 -0.1495 -0.1397 -0.4090
 8015TIP3    H145536   2.028   6.080   3.817 -1.1480 -0.3814 -0.0739
 8015TIP3    H245537   2.120   6.128   3.927 -2.8936  1.8005  0.5070
 8016TIP3   OH245538   3.365   0.085   2.176 -0.2663 -0.1166  0.3518
 8016TIP3    H145539   3.402   0.028   2.244 -1.6456 -0.6571  0.6913
 8016TIP3    H245540   3.408   0.057   2.095  2.0194  1.0832  1.0443
 8017TIP3   OH245541   5.248   1.614  16.431  0.6307 -0.7132 -0.2034
 8017TIP3    H145542   5.267   1.533  16.384 -0.7343 -1.6531  0.7773
 8017TIP3    H245543   5.182   1.590  16.496  1.9756  0.6456  1.8164
 8018TIP3   OH245544   1.087   2.342   1.889 -0.0516  0.0826 -0.0206
 8018TIP3    H145545   1.159   2.305   1.940  1.0131  0.1457 -1.4141
 8018TIP3    H245546   1.124   2.355   1.801 -1.4472  1.1304 -0.4907
 8019TIP3   OH245547   3.245   0.797   2.629  0.0389 -0.2937 -0.1933
 8019TIP3    H145548   3.340   0.784   2.629 -0.1323 -1.7133 -0.3279
 8019TIP3    H245549   3.234   0.891   2.636  1.4417 -0.2132  1.5991
 8020TIP3   OH245550   3.404   2.109  15.938 -0.4343  0.5964  0.0105
 8020TIP3    H145551   3.448   2.194  15.949 -0.1071  1.1657 -4.0716
 8020TIP3    H245552   3.473   2.051  15.904 -1.1178 -0.7868  0.9095
 8021TIP3   OH245553   0.320   1.394   0.709 -0.1798 -0.2693 -0.7572
 8021TIP3    H145554   0.367   1.330   0.655  1.1759 -1.2886  1.4774
 8021TIP3    H245555   0.362   1.477   0.690  0.0289 -0.5425 -1.5222
 8022TIP3   OH245556   4.651   4.294  15.423  0.0387  0.0176  0.5520
 8022TIP3    H145557   4.600   4.373  15.443 -0.2974 -0.3098  1.0205
 8022TIP3    H245558   4.714   4.288  15.495 -0.5359 -0.6357  1.0117
 8023TIP3   OH245559   0.855   4.891   5.898  0.0055 -0.0232 -0.0603
 8023TIP3    H145560   0.818   4.807   5.872  0.5971 -0.6862  1.1722
 8023TIP3    H245561   0.793   4.927   5.961 -0.7976  1.0056 -1.3728
 8024TIP3   OH245562   5.967   1.557   3.511  0.1810 -0.0046 -0.2968
 8024TIP3    H145563   5.994   1.480   3.460 -0.9039 -0.4710 -0.1827
 8024TIP3    H245564   5.881   1.535   3.545  0.8235  0.3577  1.6654
 8025TIP3   OH245565   0.067   4.662   2.371  0.3430  0.1674 -0.1147
 8025TIP3    H145566   0.032   4.598   2.310  1.0191 -1.1924  0.8815
 8025TIP3    H245567   0.146   4.622   2.406  0.8664  1.6144  0.4349
 8026TIP3   OH245568   5.346   6.238   5.787  0.2186 -0.0110 -0.4211
 8026TIP3    H145569   5.267   6.188   5.808 -0.4195  1.1146 -0.0314
 8026TIP3    H245570   5.411   6.208   5.851 -0.1386 -0.3646 -0.2208
 8027TIP3   OH245571   0.092   2.452   0.308 -0.1472 -0.1508 -0.2346
 8027TIP3    H145572   0.172   2.420   0.348  0.3504  0.2868 -0.8642
 8027TIP3    H245573   0.118   2.481   0.220 -0.4346  2.6003  0.5171
 8028TIP3   OH245574   3.951   6.320   6.332  0.4146  0.0695 -0.3059
 8028TIP3    H145575   3.974   6.335   6.240 -0.6947 -0.7006 -0.7324
 8028TIP3    H245576   3.856   6.329   6.335  0.3643 -0.5818  0.6269
 8029TIP3   OH245577   0.802   4.002   1.025 -0.3815 -0.0581  0.2921
 8029TIP3    H145578   0.752   4.082   1.038  0.1314  0.9010 -2.8426
 8029TIP3    H245579   0.736   3.932   1.029 -1.6299  0.9450 -1.1238
 8030TIP3   OH245580   6.518   2.233   6.586 -0.0652  0.2660 -0.2398
 8030TIP3    H145581   6.587   2.178   6.550 -0.3783 -1.2681  1.3448
 8030TIP3    H245582   6.561   2.285   6.654 -0.4660 -0.8318  0.8819
 8031TIP3   OH245583   2.839   6.538  12.123  0.0282 -0.3830 -0.4660
 8031TIP3    H145584   2.777   6.610  12.132  0.0658 -0.3225 -0.6872
 8031TIP3    H245585   2.896   6.564  12.051  1.8648  0.6694  1.2802
 8032TIP3   OH245586   1.959   3.288  11.388  0.4423  0.1056 -0.3795
 8032TIP3    H145587   1.969   3.194  11.400 -1.3535 -0.2290 -1.2141
 8032TIP3    H245588   2.030   3.312  11.328  0.7558 -0.7460 -0.3653
 8033TIP3   OH245589   2.660   3.862  12.609  0.4694 -0.2021  0.1834
 8033TIP3    H145590   2.610   3.924  12.661 -0.8332  0.3264 -1.5992
 8033TIP3    H245591   2.603   3.785  12.602  1.1479 -0.7463  0.5548
 8034TIP3   OH245592   4.349   3.213  15.402 -0.7204  1.2893 -0.0485
 8034TIP3    H145593   4.300   3.174  15.475  0.1062 -0.0706 -0.1885
 8034TIP3    H245594   4.334   3.154  15.328 -1.7188  2.7668 -1.0828
 8035TIP3   OH245595   0.951   5.506  16.472  0.0421 -0.6991 -0.1510
 8035TIP3    H145596   0.959   5.496  16.377 -2.4536 -1.1565 -0.4004
 8035TIP3    H245597   0.925   5.420  16.503  1.9818 -0.8663  1.1727
 8036TIP3   OH245598   2.700   3.021   5.034  0.3078  0.4746 -1.1917
 8036TIP3    H145599   2.673   2.950   4.976 -1.1225  1.0176 -1.2336
 8036TIP3    H245600   2.720   2.978   5.117 -1.6193  0.0905 -0.8780
 8037TIP3   OH245601   0.020   5.118  12.700  0.5823  0.1765  0.2974
 8037TIP3    H145602   0.103   5.125  12.748 -0.2509  2.4917  1.5784
 8037TIP3    H245603  -0.005   5.209  12.683 -0.9060 -0.5090 -1.5095
 8038TIP3   OH245604   1.350   4.623   4.897 -0.5783  0.3473  0.7077
 8038TIP3    H145605   1.328   4.710   4.863  0.3224 -0.4693 -2.2572
 8038TIP3    H245606   1.289   4.610   4.970 -1.4072  3.0259  0.6193
 8039TIP3   OH245607   1.551   4.994  14.396 -0.4334 -0.2233  0.8188
 8039TIP3    H145608   1.462   5.024  14.415 -1.0556 -1.7476  0.5116
 8039TIP3    H245609   1.589   4.977  14.481 -0.2462  0.8824  0.9739
 8040TIP3   OH245610   6.786   2.732  15.452  0.0810 -0.2348  0.1874
 8040TIP3    H145611   6.721   2.713  15.519  0.9555 -0.8377  0.8771
 8040TIP3    H245612   6.840   2.653  15.446 -0.7936 -0.7451 -2.2115
 8041TIP3   OH245613   6.195   2.369  11.903 -0.0151  0.2487  0.3115
 8041TIP3    H145614   6.123   2.346  11.845  0.3245 -0.9783  0.3439
 8041TIP3    H245615   6.154   2.398  11.984 -0.4686 -0.6733  0.4131
 8042TIP3   OH245616   2.160   5.284   3.943 -0.2518  0.3087  0.6295
 8042TIP3    H145617   2.163   5.318   4.032 -1.3908 -0.2476  0.9032
 8042TIP3    H245618   2.245   5.243   3.930  0.6418  2.0069  0.7748
 8043TIP3   OH245619   4.688   4.829  16.464 -0.1661 -0.1017  0.2348
 8043TIP3    H145620   4.754   4.867  16.407  1.0119  0.5899  1.9662
 8043TIP3    H245621   4.719   4.739  16.481 -0.7054 -0.4284 -0.4845
 8044TIP3   OH245622   2.649   0.336  15.997 -0.8745  0.0156 -0.5761
 8044TIP3    H145623   2.692   0.298  16.074 -3.7020 -0.8161  0.7132
 8044TIP3    H245624   2.715   0.395  15.960  1.7481 -2.0092  0.5347
 8045TIP3   OH245625   1.740   6.503  16.254  0.6747 -0.0836  0.0011
 8045TIP3    H145626   1.794   6.457  16.318  0.2848 -1.4007 -0.5710
 8045TIP3    H245627   1.658   6.521  16.301  0.4624 -0.8696 -0.0483
 8046TIP3   OH245628   5.359   3.701  14.506 -0.0982  0.1997 -0.6021
 8046TIP3    H145629   5.369   3.605  14.506 -1.6085  0.0126 -0.3563
 8046TIP3    H245630   5.343   3.723  14.415 -1.5171 -0.0198 -0.4244
 8047TIP3   OH245631   2.508   1.510  16.608 -0.0392  0.9423  0.5204
 8047TIP3    H145632   2.594   1.486  16.643  0.2513 -0.1203 -0.8528
 8047TIP3    H245633   2.519   1.507  16.513 -2.2973 -2.0316  0.2277
 8048TIP3   OH245634   1.829   6.323  15.388  0.7343 -0.8458 -0.1023
 8048TIP3    H145635   1.826   6.256  15.456  1.8093 -0.6709  0.1248
 8048TIP3    H245636   1.863   6.401  15.432  1.6419 -0.7871 -0.8737
 8049TIP3   OH245637   3.162   6.814  14.872 -0.8687  0.1843 -0.4689
 8049TIP3    H145638   3.256   6.794  14.872 -0.7226  0.8551 -0.3244
 8049TIP3    H245639   3.122   6.737  14.831 -0.0363  0.8533 -2.7184
 8050TIP3   OH245640   6.234   4.262   3.923 -0.5403 -0.4962  0.3693
 8050TIP3    H145641   6.253   4.335   3.864 -0.2827 -0.3101  0.6800
 8050TIP3    H245642   6.318   4.240   3.962 -0.4969 -1.3628 -0.1718
 8051TIP3   OH245643   3.867   5.769  11.486 -0.3086  0.6378 -0.0691
 8051TIP3    H145644   3.930   5.749  11.417  1.4711  0.0248  1.6627
 8051TIP3    H245645   3.807   5.833  11.445  0.1989 -0.2533 -2.3837
 8052TIP3   OH245646   2.109   1.337  13.107  0.2769 -0.0987  0.2574
 8052TIP3    H145647   2.089   1.257  13.058  0.3445 -0.6841  1.1607
 8052TIP3    H245648   2.193   1.319  13.149 -0.1354  0.0940  1.1881
 8053TIP3   OH245649   4.894   5.679  15.196 -0.2319 -0.0114  0.0092
 8053TIP3    H145650   4.836   5.603  15.188 -2.4301  1.5827  0.0807
 8053TIP3    H245651   4.924   5.697  15.107  1.2018 -1.5566  0.1265
 8054TIP3   OH245652   0.612   5.840  12.118  0.1937  0.1555 -0.3695
 8054TIP3    H145653   0.666   5.835  12.196 -1.1640 -1.4721  0.5196
 8054TIP3    H245654   0.529   5.876  12.149  0.1022  0.8376 -1.3565
 8055TIP3   OH245655   3.686   2.260  12.854  0.3704  0.0244  0.2651
 8055TIP3    H145656   3.780   2.240  12.848  0.5977  1.3653 -1.5968
 8055TIP3    H245657   3.650   2.232  12.769 -0.0621  3.2565 -0.7759
 8056TIP3   OH245658   3.944   5.830   1.272  0.4722  0.1319  0.8271
 8056TIP3    H145659   3.850   5.837   1.288  0.9028  0.4983  3.8996
 8056TIP3    H245660   3.982   5.906   1.316  2.2816 -0.4552  0.4017
 8057TIP3   OH245661   0.405   2.691   0.852 -0.3778 -0.3986 -0.4631
 8057TIP3    H145662   0.429   2.608   0.892 -0.7224 -2.2379 -3.7672
 8057TIP3    H245663   0.328   2.720   0.901 -0.1426 -1.8928  0.8673
 8058TIP3   OH245664   4.825   4.472   4.100 -0.3115 -0.0068  0.2811
 8058TIP3    H145665   4.881   4.394   4.095 -0.4878 -0.0592 -2.3193
 8058TIP3    H245666   4.869   4.530   4.162  0.9855 -1.2859  0.5946
 8059TIP3   OH245667   2.116   1.780   4.878 -0.3767  0.4413 -0.6284
 8059TIP3    H145668   2.139   1.799   4.969  1.0485 -2.0090 -0.3876
 8059TIP3    H245669   2.118   1.865   4.834  0.9498  1.4097  1.1802
 8060TIP3   OH245670   1.916   3.441   3.004 -0.1232  0.0187  0.5954
 8060TIP3    H145671   1.981   3.424   2.936 -2.0197  0.4225 -1.4217
 8060TIP3    H245672   1.920   3.536   3.018 -1.4741  0.3338 -0.8883
 8061TIP3   OH245673   1.626   6.304  15.197  0.3088  0.0752  0.0990
 8061TIP3    H145674   1.680   6.297  15.118  0.3006 -0.5384  0.1387
 8061TIP3    H245675   1.688   6.317  15.268  0.5138 -1.6015  0.2752
 8062TIP3   OH245676   0.377   4.521  11.589 -0.3537  0.2554  0.4733
 8062TIP3    H145677   0.430   4.600  11.584 -0.1863  0.2007  1.2253
 8062TIP3    H245678   0.341   4.510  11.501  1.0657  0.1747 -0.1297
 8063TIP3   OH245679   1.397   1.428  14.556 -0.4294 -0.1844 -0.6546
 8063TIP3    H145680   1.470   1.486  14.580 -1.1889  0.3819  0.3212
 8063TIP3    H245681   1.414   1.406  14.464  0.0184  1.3608 -0.9619
 8064TIP3   OH245682   6.802   3.082   3.760 -0.2935 -0.2727 -0.0253
 8064TIP3    H145683   6.896   3.067   3.776 -0.5409 -2.6270 -0.5222
 8064TIP3    H245684   6.768   3.108   3.845  0.8944  1.2701  0.0325
 8065TIP3   OH245685   2.997   5.512  12.276 -0.3222 -0.0442 -0.0279
 8065TIP3    H145686   3.083   5.546  12.252 -0.3690 -0.0219 -0.1643
 8065TIP3    H245687   2.942   5.530  12.200 -0.4299 -0.1214  0.0313
 8066TIP3   OH245688   2.359   5.885   5.461  0.0042 -0.3178  0.2259
 8066TIP3    H145689   2.442   5.852   5.425 -0.4835  0.5469 -1.8518
 8066TIP3    H245690   2.368   5.873   5.555  2.0544 -1.2466 -0.0192
 8067TIP3   OH245691   1.920   2.672  15.954 -0.2532 -0.6744 -0.2518
 8067TIP3    H145692   1.922   2.646  16.046  1.4011 -0.1275 -0.1049
 8067TIP3    H245693   1.844   2.626  15.918 -1.4576 -0.2145  1.5599
 8068TIP3   OH245694   2.289   2.041  16.900 -0.1704  0.4536 -0.2528
 8068TIP3    H145695   2.279   2.001  16.986  0.8369  2.6229  0.9706
 8068TIP3    H245696   2.210   2.093  16.888  0.2799  1.2249  0.0193
 8069TIP3   OH245697   2.765   5.668  11.735 -0.9123  0.1379 -0.1608
 8069TIP3    H145698   2.770   5.577  11.764  1.7920 -0.2184 -1.4338
 8069TIP3    H245699   2.763   5.719  11.816 -0.5695 -0.9951  0.5783
 8070TIP3   OH245700   5.042   3.322   5.100 -0.4661 -0.3047 -0.2732
 8070TIP3    H145701   5.093   3.277   5.032 -1.3073  0.3446 -1.3424
 8070TIP3    H245702   5.107   3.340   5.169  0.2965 -1.4008 -0.6587
 8071TIP3   OH245703   2.256   5.321  13.923 -0.1046 -0.0031  0.2985
 8071TIP3    H145704   2.274   5.233  13.889  0.3797  0.5107 -0.8534
 8071TIP3    H245705   2.341   5.365  13.920 -0.5809  0.9069 -0.4226
 8072TIP3   OH245706   2.854   0.162  16.850  0.3599  0.1030  0.6652
 8072TIP3    H145707   2.941   0.129  16.827  0.9629  1.2736  1.1451
 8072TIP3    H245708   2.843   0.141  16.942  0.5129  0.7165  0.8291
 8073TIP3   OH245709   0.574   2.382   3.171  0.3993  0.5184 -0.0623
 8073TIP3    H145710   0.646   2.333   3.132 -0.3855 -0.8318  0.1496
 8073TIP3    H245711   0.609   2.471   3.182  1.8897 -0.0108 -0.3274
 8074TIP3   OH245712   0.547   1.178  15.401  0.1512  0.7028 -0.0805
 8074TIP3    H145713   0.603   1.142  15.470  0.8890  0.4817 -0.7805
 8074TIP3    H245714   0.599   1.249  15.363  0.4595 -0.2654 -1.5224
 8075TIP3   OH245715   3.822   5.199   1.292  0.4781  0.3914  0.2039
 8075TIP3    H145716   3.877   5.123   1.270  1.4947  1.1040  0.1839
 8075TIP3    H245717   3.772   5.217   1.212  2.3503  1.4675 -0.8128
 8076TIP3   OH245718   2.737   1.852  15.070  0.1448  0.1344 -0.5546
 8076TIP3    H145719   2.754   1.758  15.080 -0.0608  0.2369  1.0306
 8076TIP3    H245720   2.823   1.892  15.071  0.1590  0.1414  1.2786
 8077TIP3   OH245721   6.407   1.125   4.846 -0.1301  0.5426 -0.3635
 8077TIP3    H145722   6.468   1.058   4.876 -0.0060  0.5746 -0.5437
 8077TIP3    H245723   6.462   1.199   4.821 -0.3272  1.0415  0.6723
 8078TIP3   OH245724   1.265   5.920  13.680  0.1258 -0.0331  0.2403
 8078TIP3    H145725   1.309   5.854  13.734 -0.4899 -1.3616 -0.8039
 8078TIP3    H245726   1.242   5.873  13.599 -1.4615  1.1233 -0.0310
 8079TIP3   OH245727   6.500   3.648   3.601  0.3594 -0.2011  0.0713
 8079TIP3    H145728   6.475   3.579   3.663  1.1884 -0.3155  0.2935
 8079TIP3    H245729   6.419   3.671   3.556 -0.0331 -0.9350  0.3882
 8080TIP3   OH245730   3.387   0.245  13.833 -0.8320 -0.0312 -0.1646
 8080TIP3    H145731   3.426   0.332  13.841 -1.4073  0.4629 -2.2953
 8080TIP3    H245732   3.344   0.231  13.918 -0.3779  1.5695  0.3710
 8081TIP3   OH245733   0.032   5.144   1.019 -0.4874  0.3314 -0.2622
 8081TIP3    H145734   0.013   5.182   0.933 -0.4237  1.1478  0.0827
 8081TIP3    H245735   0.044   5.219   1.077  1.8187 -0.1554 -0.0327
 8082TIP3   OH245736   0.368   2.145  16.513 -0.4616  0.1094 -0.1208
 8082TIP3    H145737   0.373   2.058  16.552  1.1203  0.7350  1.1880
 8082TIP3    H245738   0.361   2.129  16.419 -0.8573 -1.4222  0.1486
 8083TIP3   OH245739   3.016   6.105   0.758  0.9002 -0.3838 -0.5608
 8083TIP3    H145740   2.999   6.186   0.709  1.7379 -1.6986 -3.2096
 8083TIP3    H245741   3.083   6.130   0.822  0.5594  1.1859 -0.7675
 8084TIP3   OH245742   6.083   0.288   5.547  0.1904  0.5963  0.3518
 8084TIP3    H145743   6.145   0.260   5.479  0.3347 -0.9386  1.0693
 8084TIP3    H245744   5.997   0.273   5.508  0.2609 -1.0808  0.7561
 8085TIP3   OH245745   4.916   1.318   2.672  0.3667  0.5960  0.4688
 8085TIP3    H145746   4.954   1.405   2.661  1.7165 -0.0479 -0.1596
 8085TIP3    H245747   4.980   1.271   2.726  0.6333 -0.6119 -0.8586
 8086TIP3   OH245748   6.553   2.105  15.133  0.3731 -0.2517 -0.2479
 8086TIP3    H145749   6.508   2.020  15.135  0.7296 -0.4541  2.1849
 8086TIP3    H245750   6.617   2.096  15.062  0.2360 -1.9331 -0.2083
 8087TIP3   OH245751   5.644   2.979  12.303  0.1535 -0.2095  0.3368
 8087TIP3    H145752   5.624   2.892  12.339 -2.3327  0.4362  0.7311
 8087TIP3    H245753   5.621   3.039  12.373  3.2599  0.8026  0.6251
 8088TIP3   OH245754   0.103   0.428  16.042 -0.3935  0.4931  0.1180
 8088TIP3    H145755   0.168   0.388  15.985 -1.3609 -0.1188 -0.5992
 8088TIP3    H245756   0.153   0.462  16.117  0.8470  0.9292 -0.8729
 8089TIP3   OH245757   1.025   6.433   3.573  0.1399  0.0488  0.1828
 8089TIP3    H145758   1.095   6.417   3.509 -0.6333  0.0281 -0.6827
 8089TIP3    H245759   0.946   6.400   3.530 -0.1086 -1.9185  2.0073
 8090TIP3   OH245760   3.326   0.324  14.327  0.0885 -0.6672  0.2785
 8090TIP3    H145761   3.422   0.320  14.325  0.1037 -0.3284  0.2273
 8090TIP3    H245762   3.301   0.266  14.399  0.5196  1.7404  2.5492
 8091TIP3   OH245763   2.676   4.709   0.660  0.0184 -0.2792  0.1235
 8091TIP3    H145764   2.625   4.761   0.722  0.7852 -0.2846  0.7799
 8091TIP3    H245765   2.766   4.738   0.673  0.3118 -0.9754 -0.3036
 8092TIP3   OH245766   6.403   2.229   4.545  0.1731  0.4111  0.4776
 8092TIP3    H145767   6.333   2.164   4.537 -0.1995  0.8578  0.0493
 8092TIP3    H245768   6.481   2.178   4.569 -0.4185 -0.0232  1.5643
 8093TIP3   OH245769   5.855   6.439   5.076 -0.0546  0.1104  0.1265
 8093TIP3    H145770   5.843   6.394   5.159  2.4478  0.8182  0.9409
 8093TIP3    H245771   5.903   6.377   5.021  0.9468  0.7261  0.2837
 8094TIP3   OH245772   1.529   5.252  17.050  0.8611 -0.0205  0.1640
 8094TIP3    H145773   1.569   5.272  17.135  1.1099  0.4052 -0.0524
 8094TIP3    H245774   1.575   5.174  17.020 -0.2980 -1.1356  1.1304
 8095TIP3   OH245775   0.572   1.353   0.953  0.4624 -0.2933 -0.0795
 8095TIP3    H145776   0.572   1.271   0.903  0.4600 -0.7692  0.6853
 8095TIP3    H245777   0.514   1.411   0.903  0.2602 -0.8368 -0.4941
 8096TIP3   OH245778   2.631   5.619  12.562 -0.1994  0.2903 -0.4950
 8096TIP3    H145779   2.652   5.632  12.655  2.3781  1.8449 -1.1828
 8096TIP3    H245780   2.537   5.602  12.561 -0.2998  0.0600  2.3887
 8097TIP3   OH245781   3.985   3.995  15.810 -0.5023 -0.3767 -0.1065
 8097TIP3    H145782   3.941   4.042  15.881  0.1194 -0.9859  0.7060
 8097TIP3    H245783   4.077   3.995  15.835 -0.2070 -0.2191 -1.1471
 8098TIP3   OH245784   1.468   2.804  10.998  0.4272  0.0373  0.3222
 8098TIP3    H145785   1.448   2.831  11.088 -0.0918 -0.4098  0.3483
 8098TIP3    H245786   1.420   2.722  10.987 -1.3559  1.1678 -1.0556
 8099TIP3   OH245787   4.951   0.470  13.429  0.4043 -0.3462 -0.1942
 8099TIP3    H145788   4.901   0.527  13.371  1.3854 -0.5765 -1.2897
 8099TIP3    H245789   5.018   0.527  13.467  1.7446 -0.8449 -1.7235
 8100TIP3   OH245790   2.066   4.909  14.898 -0.7515  0.4449  0.2443
 8100TIP3    H145791   2.058   4.880  14.807 -1.7289  1.2534  0.0590
 8100TIP3    H245792   2.063   4.828  14.949  0.6327 -0.0938 -0.4615
 8101TIP3   OH245793   5.551   6.495  11.842 -0.6027  0.2669 -0.2126
 8101TIP3    H145794   5.491   6.557  11.884 -0.2946 -0.1503  0.8729
 8101TIP3    H245795   5.493   6.430  11.802 -0.9082 -0.3963  1.2342
 8102TIP3   OH245796   5.486   6.571  16.179 -0.7014  0.1692 -0.4547
 8102TIP3    H145797   5.406   6.610  16.215 -1.2620 -0.3988 -1.0607
 8102TIP3    H245798   5.546   6.644  16.169 -2.1614  1.1522 -2.7848
 8103TIP3   OH245799   2.905   5.763  13.529 -0.2601  0.0893 -0.2093
 8103TIP3    H145800   2.909   5.675  13.566 -1.1658 -0.2140 -0.8304
 8103TIP3    H245801   2.812   5.783  13.523 -0.0797  0.8001 -0.7655
 8104TIP3   OH245802   4.940   3.280  10.323  0.1395 -0.3625 -0.8144
 8104TIP3    H145803   4.868   3.218  10.315 -0.6298  0.6898 -2.7791
 8104TIP3    H245804   5.000   3.257  10.252  0.3763  0.4582 -0.8951
 8105TIP3   OH245805   2.540   4.134  14.970  0.0567  0.1243  0.3269
 8105TIP3    H145806   2.475   4.135  14.901  0.7475 -0.9193 -0.3641
 8105TIP3    H245807   2.621   4.165  14.928  0.1986  0.6538  0.9720
 8106TIP3   OH245808   6.700   2.199  11.933 -0.8156  0.2211 -0.0956
 8106TIP3    H145809   6.611   2.222  11.962 -0.5914  1.4888 -0.3700
 8106TIP3    H245810   6.736   2.148  12.006 -2.4013 -2.0078 -0.7438
 8107TIP3   OH245811   3.935   6.089  11.628 -0.0285 -0.3698  0.0276
 8107TIP3    H145812   3.841   6.076  11.616 -0.3981  1.5807  0.5182
 8107TIP3    H245813   3.970   6.091  11.539 -0.7750  0.9220 -0.2596
 8108TIP3   OH245814   3.939   6.602  12.548  0.0994 -0.2040 -0.0758
 8108TIP3    H145815   3.889   6.684  12.545 -0.2507 -0.4253 -0.3544
 8108TIP3    H245816   3.922   6.561  12.464  1.2869  0.0239 -0.4459
 8109TIP3   OH245817   3.867   3.881   6.147  0.0039  0.4707 -0.4335
 8109TIP3    H145818   3.912   3.797   6.156  0.1136  0.3666 -1.8240
 8109TIP3    H245819   3.783   3.869   6.193 -0.3308 -0.6657 -1.3197
 8110TIP3   OH245820   2.531   1.937  13.602 -0.4152 -0.5124 -0.0721
 8110TIP3    H145821   2.612   1.928  13.652 -0.1912  1.2036 -0.0775
 8110TIP3    H245822   2.464   1.954  13.668  0.1200  3.3405 -0.2583
 8111TIP3   OH245823   1.022   0.441  11.681  0.6885  0.0787 -0.4552
 8111TIP3    H145824   1.100   0.474  11.724  0.5720  0.2896 -0.4061
 8111TIP3    H245825   1.018   0.489  11.598 -1.1476  2.4907  0.8870
 8112TIP3   OH245826   5.257   3.803   3.698 -0.4965  0.4980 -0.4594
 8112TIP3    H145827   5.244   3.884   3.648 -3.3501  0.0407 -0.6558
 8112TIP3    H245828   5.175   3.791   3.745  0.0442 -2.0221 -0.0263
 8113TIP3   OH245829   1.076   2.680  15.908 -0.7822 -0.3746 -0.4798
 8113TIP3    H145830   1.088   2.635  15.825 -0.7051 -0.5836 -0.3567
 8113TIP3    H245831   1.104   2.617  15.974  0.9107  0.4012 -0.3881
 8114TIP3   OH245832   4.350   0.597   3.009  0.0575  0.4031  0.2174
 8114TIP3    H145833   4.321   0.602   2.918  1.7876 -0.0153 -0.4056
 8114TIP3    H245834   4.443   0.573   3.003 -0.2477 -1.5527  2.1476
 8115TIP3   OH245835   1.171   4.469   2.007 -0.2581 -0.5267  0.3048
 8115TIP3    H145836   1.099   4.411   1.983 -1.4415  0.7088  0.7444
 8115TIP3    H245837   1.157   4.487   2.100  2.7622 -3.1746  1.4472
 8116TIP3   OH245838   3.166   6.728   5.132 -0.1654 -0.0646 -0.2085
 8116TIP3    H145839   3.241   6.772   5.173 -1.3615  0.8713  1.0823
 8116TIP3    H245840   3.202   6.647   5.097  1.4786  0.4329  0.2255
 8117TIP3   OH245841   2.689   4.289  12.031  0.1042  0.5336 -0.3875
 8117TIP3    H145842   2.777   4.303  12.066 -0.1735  0.0092  0.5458
 8117TIP3    H245843   2.633   4.345  12.085 -0.2531  0.1851 -0.3956
 8118TIP3   OH245844   5.048   4.329  12.434  0.1195 -0.4254  0.7230
 8118TIP3    H145845   5.110   4.346  12.363  1.4832 -1.7446  1.5233
 8118TIP3    H245846   5.050   4.234  12.444 -3.0448 -0.6790 -0.0394
 8119TIP3   OH245847   6.378   2.996  15.013  0.7004 -0.4320 -0.8044
 8119TIP3    H145848   6.334   2.978  14.931  1.7832  0.3894 -1.6101
 8119TIP3    H245849   6.309   3.029  15.071 -0.0063 -0.6424 -1.5104
 8120TIP3   OH245850   0.591   2.118  14.226  0.2064  0.5714 -0.2933
 8120TIP3    H145851   0.613   2.041  14.280 -0.1724  0.6657  0.0054
 8120TIP3    H245852   0.518   2.088  14.172  0.7479  0.4030 -0.9354
 8121TIP3   OH245853   5.398   4.833  16.591  0.0028  0.1186 -0.0844
 8121TIP3    H145854   5.431   4.865  16.508 -0.4379  1.7884  0.3517
 8121TIP3    H245855   5.304   4.824  16.578 -0.0810  0.4680  0.2433
 8122TIP3   OH245856   2.061   0.561  15.206 -0.2232  1.0124 -0.2276
 8122TIP3    H145857   1.986   0.556  15.147  1.0921 -0.5043 -1.8804
 8122TIP3    H245858   2.089   0.470  15.217  1.3140  1.5299  0.4055
 8123TIP3   OH245859   3.464   0.374  15.962 -0.2022  0.2267  0.3630
 8123TIP3    H145860   3.406   0.451  15.969  0.4256  0.6456  1.2753
 8123TIP3    H245861   3.406   0.303  15.937 -1.1024  0.6647  1.1197
 8124TIP3   OH245862   0.345   2.010   1.430 -0.3282 -0.0940 -0.0209
 8124TIP3    H145863   0.360   2.040   1.340  0.2546  0.0596  0.1247
 8124TIP3    H245864   0.399   1.930   1.437 -0.1552  0.0483  0.2758
 8125TIP3   OH245865   2.258   6.536   6.662  0.6415 -0.3319 -0.0621
 8125TIP3    H145866   2.192   6.570   6.721 -0.3886 -0.0352 -1.3455
 8125TIP3    H245867   2.233   6.445   6.648  1.9482 -0.9557  1.3753
 8126TIP3   OH245868   4.504   2.029   2.504  0.4123  0.2115  0.1898
 8126TIP3    H145869   4.591   2.067   2.495  0.2227  0.5083 -0.3798
 8126TIP3    H245870   4.445   2.104   2.514  0.3720 -0.0084  2.0951
 8127TIP3   OH245871   4.833   5.980  11.374 -0.0815 -0.1306 -0.0271
 8127TIP3    H145872   4.912   6.031  11.391  0.2917 -1.0992  1.3788
 8127TIP3    H245873   4.838   5.908  11.437 -2.0244 -0.2820  0.0004
 8128TIP3   OH245874   5.444   3.886   4.244 -0.3100  0.3423 -0.6377
 8128TIP3    H145875   5.373   3.929   4.291  0.4478  1.8424 -0.7865
 8128TIP3    H245876   5.517   3.887   4.306 -0.4104 -1.2896 -0.4405
 8129TIP3   OH245877   0.987   5.430  13.899 -0.2913  0.1943 -0.4786
 8129TIP3    H145878   1.033   5.460  13.977 -0.5719  0.8221 -0.5534
 8129TIP3    H245879   0.912   5.380  13.933  1.8478 -3.2090 -0.3105
 8130TIP3   OH245880   3.528   1.524   6.372  0.4493  0.2469 -0.4236
 8130TIP3    H145881   3.539   1.524   6.467 -1.8447  0.2355 -0.0945
 8130TIP3    H245882   3.537   1.616   6.347  0.7880  0.2880 -0.1559
 8131TIP3   OH245883   5.331   4.323  16.109 -0.2090  0.1407  0.2413
 8131TIP3    H145884   5.323   4.371  16.027 -1.1621  2.4890  1.6151
 8131TIP3    H245885   5.414   4.354  16.147  0.3587 -1.1212  0.1141
 8132TIP3   OH245886   3.820   1.844   4.181 -0.8033 -0.0625  0.2614
 8132TIP3    H145887   3.848   1.860   4.271 -0.3517  0.8362 -0.0218
 8132TIP3    H245888   3.848   1.923   4.134  1.1088 -1.4946 -1.1565
 8133TIP3   OH245889   5.977   6.437  12.617 -0.4155  0.4810  0.1100
 8133TIP3    H145890   6.059   6.475  12.649  1.3006 -3.0562  0.2978
 8133TIP3    H245891   5.935   6.403  12.696 -0.6215 -0.3200 -0.3434
 8134TIP3   OH245892   0.649   0.768  11.873 -0.2823  0.0174 -0.4550
 8134TIP3    H145893   0.607   0.732  11.795 -2.5942 -2.1880  1.6278
 8134TIP3    H245894   0.734   0.723  11.878 -0.2642 -0.0815 -1.4686
 8135TIP3   OH245895   2.809   2.421   4.122 -0.4469 -0.5595  0.3284
 8135TIP3    H145896   2.894   2.461   4.139 -0.6082 -0.1464  0.1732
 8135TIP3    H245897   2.748   2.495   4.118 -0.4328 -0.5913 -1.9845
 8136TIP3   OH245898   4.742   3.145   3.358 -0.4211 -0.2466  0.0379
 8136TIP3    H145899   4.648   3.127   3.356 -0.2489 -1.1502 -0.7926
 8136TIP3    H245900   4.781   3.076   3.304  0.8237 -0.4977  1.1915
 8137TIP3   OH245901   6.298   5.450   2.568  0.0368 -0.0363 -0.4748
 8137TIP3    H145902   6.390   5.424   2.556  0.5691  2.2556 -1.9397
 8137TIP3    H245903   6.248   5.383   2.522  1.0058 -0.9300 -0.2642
 8138TIP3   OH245904   4.044   2.887  13.770 -0.3259 -0.3753 -0.5826
 8138TIP3    H145905   4.116   2.865  13.711  0.6483  0.9621  0.0552
 8138TIP3    H245906   4.083   2.885  13.858 -1.7275 -2.2654  0.0673
 8139TIP3   OH245907   1.938   4.189   2.676  0.2709 -0.0115 -0.1273
 8139TIP3    H145908   1.945   4.284   2.679  0.9349 -0.0896  1.2470
 8139TIP3    H245909   2.010   4.161   2.619 -0.4328  0.3328 -1.2252
 8140TIP3   OH245910   6.662   5.160   3.263 -0.9418 -0.0394  0.0020
 8140TIP3    H145911   6.580   5.206   3.281 -0.5752  1.5244 -1.9626
 8140TIP3    H245912   6.730   5.220   3.292 -0.4677  0.3657 -1.8014
 8141TIP3   OH245913   1.680   4.119  15.322  0.2506  0.2290  0.6147
 8141TIP3    H145914   1.769   4.146  15.296  0.8915 -0.9508  1.4867
 8141TIP3    H245915   1.651   4.060  15.253  1.6849 -2.3658  2.0643
 8142TIP3   OH245916   2.614   4.102   2.791 -0.5569  0.0140  0.8147
 8142TIP3    H145917   2.535   4.058   2.760 -0.3050  0.4858 -0.5679
 8142TIP3    H245918   2.686   4.045   2.765 -0.2535  1.0123 -0.6795
 8143TIP3   OH245919   1.278   2.178   4.960 -0.1596 -0.1413  0.2073
 8143TIP3    H145920   1.297   2.238   4.888 -1.5883  0.6669  0.4548
 8143TIP3    H245921   1.360   2.133   4.977  0.1568 -0.5416 -2.0864
 8144TIP3   OH245922   4.669   1.738   1.527 -0.1131  0.3478 -0.0814
 8144TIP3    H145923   4.725   1.663   1.509 -1.0705 -0.3464 -0.2576
 8144TIP3    H245924   4.672   1.747   1.623  0.2757  0.2980 -0.0889
 8145TIP3   OH245925   3.242   3.435  12.966 -0.3963 -0.3568  0.3512
 8145TIP3    H145926   3.281   3.482  13.039 -0.3483  0.0652  0.0591
 8145TIP3    H245927   3.211   3.504  12.907  1.0890 -0.6542 -0.8540
 8146TIP3   OH245928   6.773   6.321  12.105  0.2593  0.4694  0.1419
 8146TIP3    H145929   6.729   6.378  12.042 -0.3858 -0.9014 -0.7043
 8146TIP3    H245930   6.703   6.265  12.139  1.1791 -1.2102 -0.6180
 8147TIP3   OH245931   2.072   2.024  16.148 -0.1216 -0.0894 -0.1396
 8147TIP3    H145932   2.067   2.115  16.119 -1.0516 -0.1809 -0.3124
 8147TIP3    H245933   2.140   2.024  16.216  0.2870  0.6131 -0.5388
 8148TIP3   OH245934   4.599   0.427   4.404  0.1114  0.6682 -0.2603
 8148TIP3    H145935   4.601   0.444   4.310  0.2061  0.0676 -0.3691
 8148TIP3    H245936   4.571   0.336   4.412  1.3428  0.3181  0.2489
 8149TIP3   OH245937   5.913   6.710   5.005 -0.0518  0.4005  0.0451
 8149TIP3    H145938   5.890   6.634   5.059  1.0223  0.7006  0.9744
 8149TIP3    H245939   5.835   6.765   5.007  0.2121  0.7814  2.0200
 8150TIP3   OH245940   3.128   6.701   2.259 -0.3372 -0.0435 -0.6031
 8150TIP3    H145941   3.105   6.702   2.352  0.9228  0.8202 -0.2711
 8150TIP3    H245942   3.209   6.650   2.255  0.2244  0.8540 -1.0463
 8151TIP3   OH245943   0.294   3.416  13.846  0.4728  0.3128 -0.0416
 8151TIP3    H145944   0.337   3.342  13.802  1.4393  1.8805 -1.8862
 8151TIP3    H245945   0.358   3.487  13.842 -0.7510  1.5224  0.9020
 8152TIP3   OH245946   0.097   3.960  15.596  0.2547 -0.6305  0.8143
 8152TIP3    H145947   0.121   3.913  15.676  0.1252  1.5738  2.2616
 8152TIP3    H245948   0.163   4.028  15.588 -0.3655 -0.1503 -0.3547
 8153TIP3   OH245949   3.190   2.327   0.523  0.8451  0.3115  0.0247
 8153TIP3    H145950   3.139   2.257   0.564  1.1921  0.7693  1.2710
 8153TIP3    H245951   3.137   2.406   0.534  0.4138  0.2543 -1.4525
 8154TIP3   OH245952   6.019   3.287  10.401 -0.2616 -0.0011  0.2198
 8154TIP3    H145953   5.934   3.244  10.402 -0.4708  0.3846 -0.3980
 8154TIP3    H245954   6.082   3.217  10.420 -0.7511 -0.1869  1.1814
 8155TIP3   OH245955   5.588   6.625   6.501 -0.2916  0.4509 -0.3629
 8155TIP3    H145956   5.507   6.676   6.501 -0.9176 -0.5240 -0.2937
 8155TIP3    H245957   5.654   6.685   6.467 -1.2399  0.9499 -1.3610
 8156TIP3   OH245958   2.391   3.345   1.923 -0.1486  0.0832 -0.1372
 8156TIP3    H145959   2.310   3.296   1.936 -0.2344  0.3084  0.1825
 8156TIP3    H245960   2.385   3.378   1.833 -1.3044  1.7219  0.4926
 8157TIP3   OH245961   4.710   4.664   5.360 -0.1210  0.2032 -0.5477
 8157TIP3    H145962   4.682   4.750   5.329  0.9562  0.1724 -1.6541
 8157TIP3    H245963   4.779   4.637   5.299 -0.3775 -1.4110 -0.1690
 8158TIP3   OH245964   5.982   5.187   0.831 -0.2509 -0.3053  0.1562
 8158TIP3    H145965   5.985   5.146   0.744 -0.9148  0.9942 -0.5244
 8158TIP3    H245966   6.073   5.195   0.857  0.0549  0.5665 -1.0778
 8159TIP3   OH245967   4.535   0.965  11.130  0.0664  0.3611  0.5413
 8159TIP3    H145968   4.483   1.015  11.067  1.3591  1.3719  0.2293
 8159TIP3    H245969   4.481   0.963  11.209 -0.9485  0.3390 -0.1333
 8160TIP3   OH245970   4.838   5.513  12.676  0.0045 -0.3419  0.3239
 8160TIP3    H145971   4.880   5.434  12.641  0.1490 -0.3383  0.4867
 8160TIP3    H245972   4.770   5.479  12.735 -0.5140 -0.3541 -0.2615
 8161TIP3   OH245973   1.218   4.030  14.110  0.2509 -0.2102 -0.1826
 8161TIP3    H145974   1.307   4.000  14.125  0.0338  0.0547  2.0387
 8161TIP3    H245975   1.198   4.086  14.186 -1.7704 -0.2126 -0.6352
 8162TIP3   OH245976   6.800   5.208  16.392 -0.2980 -0.6289 -0.1187
 8162TIP3    H145977   6.749   5.126  16.400 -0.2744 -0.5740  0.7717
 8162TIP3    H245978   6.801   5.227  16.299 -2.5321 -0.2610 -0.1282
 8163TIP3   OH245979   2.339   4.245   4.653 -0.2456 -0.7227  0.1860
 8163TIP3    H145980   2.420   4.240   4.703  1.3584 -1.1682 -2.2443
 8163TIP3    H245981   2.311   4.154   4.644 -0.7258 -0.6146  0.5803
 8164TIP3   OH245982   2.870   3.840  10.875  0.5276  0.5926  0.0281
 8164TIP3    H145983   2.794   3.805  10.827  1.0298  1.7323 -1.6933
 8164TIP3    H245984   2.832   3.898  10.941 -0.2516 -2.0515  2.0758
 8165TIP3   OH245985   1.329   5.009   5.086 -0.1632 -0.0747 -1.4211
 8165TIP3    H145986   1.383   4.967   5.153  0.9218  1.2450 -1.4163
 8165TIP3    H245987   1.253   5.043   5.134 -0.4018 -0.8634 -1.2186
 8166TIP3   OH245988   2.978   4.548   0.312  0.4506  0.2554  0.1144
 8166TIP3    H145989   3.000   4.615   0.248  1.0924  2.5861  2.6185
 8166TIP3    H245990   3.059   4.532   0.360 -0.5138  0.2941  1.8439
 8167TIP3   OH245991   2.075   6.440   5.247  0.1443 -0.4585  0.2404
 8167TIP3    H145992   2.041   6.381   5.180 -0.7437  1.3254 -0.9681
 8167TIP3    H245993   2.113   6.382   5.314 -1.0947 -2.3722 -0.6339
 8168TIP3   OH245994   1.954   6.428   6.573  0.4756  0.2230  0.2940
 8168TIP3    H145995   1.867   6.390   6.558  1.8759 -1.9966 -3.6039
 8168TIP3    H245996   1.950   6.515   6.532 -0.0218  0.3658  0.6315
 8169TIP3   OH245997   6.707   2.639  11.995  0.1306 -0.1679 -0.3612
 8169TIP3    H145998   6.774   2.707  12.001 -0.4652  0.4594 -0.6674
 8169TIP3    H245999   6.744   2.575  11.935  0.3695  0.2797 -0.7039
 8170TIP3   OH246000   4.469   6.636  16.598 -0.3808 -0.2000 -0.2639
 8170TIP3    H146001   4.411   6.654  16.673  0.9442 -0.5225  0.8929
 8170TIP3    H246002   4.476   6.540  16.597 -0.1627 -0.1810 -0.6281
 8171TIP3   OH246003   3.910   1.867   5.358  0.0023 -0.6573 -0.3579
 8171TIP3    H146004   3.942   1.939   5.303 -0.8471  1.0550  1.2497
 8171TIP3    H246005   3.849   1.819   5.303 -2.1809  2.0492 -0.5253
 8172TIP3   OH246006   4.553   0.683  15.065  0.3872 -0.0569  0.5928
 8172TIP3    H146007   4.541   0.605  15.011 -0.7990  0.2556  0.3777
 8172TIP3    H246008   4.648   0.694  15.071  0.6072 -1.9001  1.1858
 8173TIP3   OH246009   0.751   2.967  13.420  0.4093  0.2360  0.7686
 8173TIP3    H146010   0.770   2.874  13.429  0.9170  0.3291  0.6895
 8173TIP3    H246011   0.657   2.975  13.439  0.4159 -0.2570  1.0062
 8174TIP3   OH246012   1.374   0.194  12.494  0.5595 -0.7376  0.2455
 8174TIP3    H146013   1.362   0.248  12.415 -0.7741 -1.0446  0.2103
 8174TIP3    H246014   1.433   0.124  12.466  0.0959 -0.8490 -0.4865
 8175TIP3   OH246015   4.340   6.146   6.428  0.1708 -0.2935  0.0587
 8175TIP3    H146016   4.247   6.149   6.405 -0.9621  0.2318  3.9531
 8175TIP3    H246017   4.348   6.065   6.479  2.0381 -0.6445 -0.7362
 8176TIP3   OH246018   6.577   0.393   1.489  0.4117 -0.2683  0.1251
 8176TIP3    H146019   6.668   0.371   1.505  0.4282  0.0312  0.4880
 8176TIP3    H246020   6.531   0.309   1.489  0.9161 -0.5869 -1.7767
 8177TIP3   OH246021   4.112   1.303   4.767  0.1528  0.5002 -0.0320
 8177TIP3    H146022   4.151   1.322   4.682  0.4851  2.0754  0.4453
 8177TIP3    H246023   4.186   1.303   4.828 -0.2162  0.4290  0.4247
 8178TIP3   OH246024   1.427   4.083   5.602 -0.3535  0.4399 -0.5526
 8178TIP3    H146025   1.414   4.151   5.536  0.1588  0.1099 -1.0055
 8178TIP3    H246026   1.435   4.131   5.685  0.9393  1.0034 -0.9881
 8179TIP3   OH246027   5.599   0.960  14.783  0.0401  0.5447  0.0818
 8179TIP3    H146028   5.567   1.043  14.749 -0.3901  0.4325  0.2072
 8179TIP3    H246029   5.587   0.967  14.878 -2.5350 -0.6880 -0.0745
 8180TIP3   OH246030   2.367   2.632  16.330 -0.0856  0.4226 -0.2412
 8180TIP3    H146031   2.400   2.551  16.367  1.9753 -0.2852 -3.2951
 8180TIP3    H246032   2.431   2.699  16.357 -0.5516  0.6280  0.3879
 8181TIP3   OH246033   3.525   1.780  15.628 -0.0720 -0.4959  0.5138
 8181TIP3    H146034   3.549   1.830  15.706 -0.9106  0.5129  0.1553
 8181TIP3    H246035   3.449   1.826  15.593 -1.0197 -2.1486  0.2626
 8182TIP3   OH246036   5.706   6.339  12.068  0.4125  0.2788 -0.0184
 8182TIP3    H146037   5.795   6.317  12.041  0.1750 -0.7131 -0.0146
 8182TIP3    H246038   5.669   6.384  11.992  0.3670 -0.8213 -0.6701
 8183TIP3   OH246039   0.859   1.133   5.823  0.2519 -0.5325 -0.3236
 8183TIP3    H146040   0.852   1.103   5.914  0.6866 -0.2096 -0.1801
 8183TIP3    H246041   0.788   1.088   5.778  1.0468 -1.9964 -0.1711
 8184TIP3   OH246042   1.281   5.883  11.443 -0.1878 -0.4780  0.1831
 8184TIP3    H146043   1.219   5.956  11.433  0.0114 -0.4094 -0.5711
 8184TIP3    H246044   1.327   5.879  11.360  0.2447 -1.0709  0.4466
 8185TIP3   OH246045   0.938   4.297   1.945 -0.1618  0.4525 -0.5897
 8185TIP3    H146046   0.912   4.287   1.854  0.3871  1.8036 -0.9118
 8185TIP3    H246047   0.876   4.360   1.981  0.4029  0.8928 -0.3784
 8186TIP3   OH246048   2.857   1.835   3.620  0.1847 -0.4509 -0.0686
 8186TIP3    H146049   2.935   1.812   3.671  0.2180 -1.2339 -0.4623
 8186TIP3    H246050   2.784   1.814   3.679  0.2318 -1.0781 -0.2280
 8187TIP3   OH246051   6.448   5.584  15.957 -0.1737  0.0207 -0.8380
 8187TIP3    H146052   6.523   5.551  16.007  1.7080  3.3014 -1.2329
 8187TIP3    H246053   6.398   5.635  16.021 -2.0410 -1.9280 -0.6405
 8188TIP3   OH246054   4.570   3.155  13.367  0.1443  0.2586 -0.2025
 8188TIP3    H146055   4.570   3.111  13.282  0.4646  1.7343 -1.0051
 8188TIP3    H246056   4.625   3.100  13.423 -1.6762 -1.8170 -0.3136
 8189TIP3   OH246057   5.579   0.667   5.568 -0.1446 -0.1117  0.3227
 8189TIP3    H146058   5.639   0.735   5.538 -1.4599  0.4249 -1.2957
 8189TIP3    H246059   5.525   0.710   5.635 -1.2147  0.6230 -0.9521
 8190TIP3   OH246060   0.075   5.641   0.154 -0.6937  0.1142  0.6498
 8190TIP3    H146061   0.085   5.559   0.106 -1.1262 -0.0061  0.7569
 8190TIP3    H246062   0.026   5.698   0.094 -0.6689  0.1846  0.6960
 8191TIP3   OH246063   4.426   5.982  16.754  0.4098 -0.6093  0.1121
 8191TIP3    H146064   4.430   5.993  16.659 -2.0559 -0.2458 -0.0156
 8191TIP3    H246065   4.336   5.957  16.771  0.3482  0.9378  2.5150
 8192TIP3   OH246066   2.159   1.907   2.569  0.1501 -0.4998  0.1110
 8192TIP3    H146067   2.067   1.926   2.553  0.4446  0.1645 -0.9161
 8192TIP3    H246068   2.174   1.824   2.525  0.2511 -0.1472 -0.5341
 8193TIP3   OH246069   2.838   4.489   0.896 -0.1925  0.1935  0.1284
 8193TIP3    H146070   2.909   4.498   0.959  0.0433 -0.1635 -0.0766
 8193TIP3    H246071   2.879   4.503   0.811 -0.2725 -0.4315 -0.0230
 8194TIP3   OH246072   2.265   4.477  15.468  0.6446  0.3501  0.2467
 8194TIP3    H146073   2.243   4.427  15.389 -1.6879  1.7059 -0.0607
 8194TIP3    H246074   2.336   4.536  15.440 -0.0628  0.7236 -0.8256
 8195TIP3   OH246075   5.587   2.226  12.850 -0.7592  0.4481  0.4126
 8195TIP3    H146076   5.631   2.243  12.767 -1.6170  2.3274  0.2822
 8195TIP3    H246077   5.506   2.180  12.826  0.0994 -1.1757  0.4742
 8196TIP3   OH246078   0.504   4.914   2.985 -0.5572  0.2856 -0.2036
 8196TIP3    H146079   0.468   4.825   2.989  0.2975 -0.0698 -0.2699
 8196TIP3    H246080   0.493   4.948   3.074 -0.5885 -0.0052 -0.0930
 8197TIP3   OH246081   6.255   3.696   5.991 -0.5640 -0.3045  0.6541
 8197TIP3    H146082   6.246   3.687   5.896  0.2013  0.3713  0.5122
 8197TIP3    H246083   6.194   3.767   6.014  1.0187  1.2241  0.3078
 8198TIP3   OH246084   1.542   3.452  12.784 -0.2285  0.1442  0.0914
 8198TIP3    H146085   1.548   3.358  12.800  0.6240 -0.0163 -1.0368
 8198TIP3    H246086   1.611   3.470  12.720 -1.3834  1.2605 -0.9095
 8199TIP3   OH246087   2.546   4.687  15.571  0.1609  0.0202  0.4174
 8199TIP3    H146088   2.557   4.674  15.476  0.3916  0.3967  0.3927
 8199TIP3    H246089   2.617   4.638  15.611 -1.7485 -2.8613  0.5755
 8200TIP3   OH246090   6.145   2.588   5.527  0.1451 -0.0662  0.1524
 8200TIP3    H146091   6.166   2.640   5.604  0.7646  0.9752 -0.6868
 8200TIP3    H246092   6.057   2.617   5.502  0.1416 -0.0434  0.1905
 8201TIP3   OH246093   3.153   6.681  13.630 -0.0694  0.1900 -0.1573
 8201TIP3    H146094   3.244   6.709  13.643  0.2118 -1.2738  1.4439
 8201TIP3    H246095   3.161   6.601  13.578 -0.0051 -2.1756  3.1590
 8202TIP3   OH246096   0.349   6.493  15.522 -0.0011 -0.1946  0.2810
 8202TIP3    H146097   0.260   6.517  15.549 -0.7860 -1.7290 -0.7622
 8202TIP3    H246098   0.384   6.572  15.480 -0.7221  0.5402  1.0297
 8203TIP3   OH246099   5.955   4.193   2.889  0.0608  0.3411 -0.2804
 8203TIP3    H146100   6.028   4.157   2.939 -0.9441 -0.0927  0.9054
 8203TIP3    H246101   5.920   4.119   2.840 -0.4871  0.2303  0.2746
 8204TIP3   OH246102   6.715   4.805  13.146  0.6021  0.1902 -0.3566
 8204TIP3    H146103   6.684   4.833  13.233  0.9237 -5.0883  1.8660
 8204TIP3    H246104   6.637   4.810  13.091  0.2912  3.3242  0.1653
 8205TIP3   OH246105   2.349   2.216   3.692  0.6641  0.1766  0.2984
 8205TIP3    H146106   2.361   2.256   3.779 -0.2807 -0.1105  0.5667
 8205TIP3    H246107   2.380   2.283   3.631 -0.3990  1.1432  0.7693
 8206TIP3   OH246108   3.149   4.364   6.654  0.3480 -0.0302  0.4521
 8206TIP3    H146109   3.194   4.279   6.650 -1.4088 -0.9714 -0.6298
 8206TIP3    H246110   3.074   4.349   6.712  1.7064  1.7245  2.8659
 8207TIP3   OH246111   2.419   1.442  11.300 -0.4997  0.2116 -0.1724
 8207TIP3    H146112   2.369   1.363  11.277 -1.4297  1.0027 -0.9649
 8207TIP3    H246113   2.365   1.484  11.368  0.1477  0.0191  0.4704
 8208TIP3   OH246114   0.674   3.787   4.101 -0.0681 -0.3654  0.5840
 8208TIP3    H146115   0.593   3.747   4.132 -1.1551  0.0223 -1.5935
 8208TIP3    H246116   0.728   3.712   4.075 -0.1616 -0.5803  0.9927
 8209TIP3   OH246117   4.497   5.252  15.886 -0.3164  0.5201  0.0137
 8209TIP3    H146118   4.457   5.298  15.959 -0.5089  1.4452 -0.6542
 8209TIP3    H246119   4.591   5.262  15.899 -0.3556  2.0418 -0.6741
 8210TIP3   OH246120   0.523   5.056  11.095  0.0924 -0.5943 -0.7571
 8210TIP3    H146121   0.606   5.009  11.096  0.8848  0.7585  0.2091
 8210TIP3    H246122   0.538   5.132  11.039 -1.1693 -1.4111 -2.2848
 8211TIP3   OH246123   4.799   4.669  13.936  0.0298  0.0157 -0.5945
 8211TIP3    H146124   4.707   4.644  13.927  0.3147 -1.3874  0.2395
 8211TIP3    H246125   4.796   4.764  13.948 -1.2931  0.0192 -0.7550
 8212TIP3   OH246126   4.236   3.750  11.581 -0.0309 -0.0086 -0.8057
 8212TIP3    H146127   4.280   3.665  11.580 -2.0559 -1.4244  3.6315
 8212TIP3    H246128   4.252   3.784  11.669 -2.6689  2.2340 -1.0658
 8213TIP3   OH246129   1.745   2.631  11.190 -0.0315 -0.4997 -0.0945
 8213TIP3    H146130   1.665   2.580  11.210  0.3608 -1.9821 -2.0536
 8213TIP3    H246131   1.786   2.644  11.276 -1.2620 -1.6463  0.7191
 8214TIP3   OH246132   4.005   2.970  10.915 -0.2898 -0.1046 -0.1451
 8214TIP3    H146133   3.959   2.995  10.835  2.1514  0.2138 -1.5610
 8214TIP3    H246134   3.980   2.879  10.930  0.5534 -0.7493 -2.3522
 8215TIP3   OH246135   5.825   3.356   2.969  0.3203 -0.2745  0.0439
 8215TIP3    H146136   5.903   3.350   2.914  0.2852 -1.6706  0.1146
 8215TIP3    H246137   5.762   3.405   2.916  0.5498 -0.9344 -0.8545
 8216TIP3   OH246138   5.379   5.777  15.776 -0.1019 -0.9093  0.0574
 8216TIP3    H146139   5.469   5.747  15.769  0.2302 -0.7202  2.6564
 8216TIP3    H246140   5.356   5.804  15.687  2.7921  0.1357 -0.4869
 8217TIP3   OH246141   3.046   2.907   1.149 -0.1705 -0.1125  0.0175
 8217TIP3    H146142   3.089   2.907   1.235 -1.7499 -0.6977  0.8427
 8217TIP3    H246143   3.003   2.992   1.144  0.0289 -0.0273 -0.2585
 8218TIP3   OH246144   5.023   6.477   4.482  0.0999  0.4774  0.4738
 8218TIP3    H146145   5.016   6.412   4.552  0.5127 -0.0244  0.0616
 8218TIP3    H246146   4.956   6.451   4.419  0.5214  0.2171  0.1273
 8219TIP3   OH246147   3.634   4.781  12.381  0.6001 -0.6184 -0.4012
 8219TIP3    H146148   3.611   4.691  12.405 -0.8216 -0.0721  0.4527
 8219TIP3    H246149   3.661   4.822  12.463 -0.0510  0.0738 -0.5113
 8220TIP3   OH246150   2.224   2.223   4.953 -0.9159  0.1228  0.0487
 8220TIP3    H146151   2.272   2.278   5.014  1.2244 -0.7897 -0.7291
 8220TIP3    H246152   2.158   2.180   5.007  0.7011 -0.4352  1.6885
 8221TIP3   OH246153   0.426   5.234   1.290  0.5700  0.2854  0.2206
 8221TIP3    H146154   0.494   5.300   1.278  1.0199  0.2078  2.0456
 8221TIP3    H246155   0.474   5.154   1.315 -0.0884 -0.1677  0.0646
 8222TIP3   OH246156   1.018   3.672  12.077  0.2288 -0.1522 -0.0075
 8222TIP3    H146157   1.073   3.595  12.063  0.4348 -0.0581  0.2827
 8222TIP3    H246158   0.929   3.637  12.083  0.1925 -0.2549 -0.9771
 8223TIP3   OH246159   1.481   2.303   5.931  0.7763  0.2248 -0.0283
 8223TIP3    H146160   1.415   2.294   6.000  1.3058  0.1576  0.4815
 8223TIP3    H246161   1.565   2.294   5.977  1.1601 -2.7806 -1.0696
 8224TIP3   OH246162   5.398   1.738   3.961  0.2593 -0.2673 -0.0599
 8224TIP3    H146163   5.416   1.667   4.024  1.2642 -0.3270 -0.4048
 8224TIP3    H246164   5.364   1.809   4.015  0.8974 -0.3978  0.5318
 8225TIP3   OH246165   3.798   1.786   3.532  0.0095 -0.2450  0.2365
 8225TIP3    H146166   3.771   1.878   3.532 -0.7154 -0.4026 -1.8961
 8225TIP3    H246167   3.751   1.747   3.605  0.4256  1.0863  1.2479
 8226TIP3   OH246168   3.165   5.288   2.284 -0.2852 -0.6114 -0.5089
 8226TIP3    H146169   3.127   5.363   2.330  0.9030 -0.5944  0.4894
 8226TIP3    H246170   3.257   5.311   2.271  0.5656 -2.6037  1.4542
 8227TIP3   OH246171   5.164   5.763  15.258 -0.7831  0.3022  0.0252
 8227TIP3    H146172   5.088   5.732  15.208 -2.0536 -0.8860  2.5039
 8227TIP3    H246173   5.210   5.821  15.198 -3.4732  0.8307 -1.6978
 8228TIP3   OH246174   5.427   0.051   4.632  0.0051 -0.3433 -0.0249
 8228TIP3    H146175   5.454   0.127   4.580 -1.5329 -0.3248 -0.8587
 8228TIP3    H246176   5.505  -0.004   4.637  1.3929  1.5966  1.2190
 8229TIP3   OH246177   1.699   4.041  13.759 -0.2193  0.8509  0.1285
 8229TIP3    H146178   1.640   4.107  13.724 -0.3513  1.1103  0.8114
 8229TIP3    H246179   1.781   4.053  13.711 -0.4457  1.0861 -0.1998
 8230TIP3   OH246180   6.100   1.428  12.597 -0.3255 -0.8216 -0.2125
 8230TIP3    H146181   6.014   1.399  12.565 -0.3144  0.2933 -1.3166
 8230TIP3    H246182   6.126   1.497  12.536  1.6066 -1.4913 -0.2123
 8231TIP3   OH246183   3.081   4.316  12.559  0.2479 -0.1417 -0.1795
 8231TIP3    H146184   3.014   4.248  12.561 -0.5587  0.5995 -0.8754
 8231TIP3    H246185   3.111   4.323  12.649  0.0212 -1.0923 -0.0162
 8232TIP3   OH246186   4.744   0.677  13.029 -0.5855 -0.0704 -0.1939
 8232TIP3    H146187   4.786   0.687  12.944  1.1502 -1.9578  0.3721
 8232TIP3    H246188   4.723   0.584  13.035  0.2375 -0.1838  1.8131
 8233TIP3   OH246189   5.603   2.353  13.992 -0.0903 -0.3758  0.3288
 8233TIP3    H146190   5.517   2.394  14.006 -0.4550 -1.8066  3.0252
 8233TIP3    H246191   5.595   2.267  14.033  1.7744 -1.7511 -1.9482
 8234TIP3   OH246192   1.821   3.948  13.149  0.7627 -0.3533 -0.3739
 8234TIP3    H146193   1.731   3.934  13.179  0.0184 -0.1283 -2.3114
 8234TIP3    H246194   1.812   4.010  13.076  2.6541  0.7782  0.2639
 8235TIP3   OH246195   2.877   0.267  15.858 -0.2368 -0.2607 -0.5047
 8235TIP3    H146196   2.964   0.242  15.888 -0.7217  0.8624  2.0472
 8235TIP3    H246197   2.822   0.191  15.878  0.1484 -1.1706 -2.5685
 8236TIP3   OH246198   4.577   3.611   2.987  0.4909 -0.1372  0.9773
 8236TIP3    H146199   4.606   3.702   2.982 -0.7509  0.2172 -1.4733
 8236TIP3    H246200   4.653   3.559   2.961  0.1178  0.5085 -1.5799
 8237TIP3   OH246201   5.159   2.720   4.766  0.2972  0.3193 -0.4959
 8237TIP3    H146202   5.065   2.709   4.754  0.2828  0.4343 -0.4906
 8237TIP3    H246203   5.198   2.654   4.708  0.2058 -0.1116 -0.0709
 8238TIP3   OH246204   1.103   2.503  15.378 -0.2028 -0.1426 -0.0717
 8238TIP3    H146205   1.043   2.528  15.308 -1.5574  0.2324  1.1858
 8238TIP3    H246206   1.163   2.578  15.385 -0.4762  0.1083 -0.3613
 8239TIP3   OH246207   0.697   1.342   6.026 -0.1317 -0.2677 -0.1206
 8239TIP3    H146208   0.745   1.343   6.109  1.7965 -0.3873 -1.1904
 8239TIP3    H246209   0.655   1.428   6.022 -0.5827 -0.4070  1.1456
 8240TIP3   OH246210   3.470   1.294   4.941 -0.5042  0.2732  0.2227
 8240TIP3    H146211   3.520   1.341   5.008 -1.9684 -0.1649  1.6632
 8240TIP3    H246212   3.397   1.254   4.988 -1.3717 -0.3729 -1.5803
 8241TIP3   OH246213   4.718   5.882  16.086  0.5299 -0.1378  0.1521
 8241TIP3    H146214   4.792   5.821  16.079 -0.4318 -1.3679  0.3332
 8241TIP3    H246215   4.687   5.893  15.997  0.9723  0.4514  0.0643
 8242TIP3   OH246216   3.413   3.163  11.957  0.1164 -0.0623 -1.1799
 8242TIP3    H146217   3.322   3.186  11.939 -0.0942  1.0343  0.9467
 8242TIP3    H246218   3.464   3.219  11.899 -0.5359  1.3137 -0.4693
 8243TIP3   OH246219   4.685   2.233   4.241  0.0540 -0.1544  0.1222
 8243TIP3    H146220   4.599   2.191   4.244  0.9529 -2.1198  0.4363
 8243TIP3    H246221   4.712   2.226   4.150  0.2964 -0.4880  0.2160
 8244TIP3   OH246222   1.920   3.502  15.915  0.4565 -0.5676 -0.5427
 8244TIP3    H146223   1.969   3.551  15.981  1.0657 -2.0295  0.1496
 8244TIP3    H246224   1.831   3.535  15.921  0.7646  0.1656  0.1711
 8245TIP3   OH246225   5.669   1.170   1.823 -0.0431 -0.6920  0.3778
 8245TIP3    H146226   5.717   1.092   1.795 -0.2446 -0.8937  0.5855
 8245TIP3    H246227   5.669   1.228   1.747 -0.9364 -1.3970 -0.1740
 8246TIP3   OH246228   2.046   3.538   3.786 -0.1392 -0.1518 -0.0132
 8246TIP3    H146229   2.121   3.573   3.738  1.2745  0.1559  2.2538
 8246TIP3    H246230   2.018   3.462   3.735  0.2907  0.9844 -2.0546
 8247TIP3   OH246231   5.225   5.369  11.348 -0.0818 -0.4802  0.3395
 8247TIP3    H146232   5.320   5.375  11.342  0.1052  0.0621  2.9346
 8247TIP3    H246233   5.199   5.440  11.406 -2.1199 -0.5180 -0.4275
 8248TIP3   OH246234   3.058   2.977  15.676  0.4306 -0.2795  0.0879
 8248TIP3    H146235   3.013   3.061  15.665  0.3063 -0.5642 -2.0130
 8248TIP3    H246236   3.141   2.989  15.630 -0.8502 -2.1925 -3.0361
 8249TIP3   OH246237   5.118   1.950   0.337 -0.1742  0.8252  0.4848
 8249TIP3    H146238   5.036   1.931   0.383 -0.8498  1.6869 -0.3261
 8249TIP3    H246239   5.172   1.873   0.352 -1.7628 -0.5152 -0.3600
 8250TIP3   OH246240   2.872   1.786   0.316 -0.3085  0.4846  0.1327
 8250TIP3    H146241   2.889   1.853   0.382  0.9771  1.0798 -0.7574
 8250TIP3    H246242   2.789   1.812   0.276 -0.3819  0.9097  0.5589
 8251TIP3   OH246243   1.782   1.158   1.952 -0.4839 -0.4341 -0.0876
 8251TIP3    H146244   1.820   1.137   2.037 -3.0956 -0.4361  1.1906
 8251TIP3    H246245   1.827   1.100   1.891 -1.3843 -3.5754  1.9680
 8252TIP3   OH246246   1.298   3.029   1.377 -0.3342  0.2230 -0.3194
 8252TIP3    H146247   1.230   3.017   1.311 -1.8861  0.4394  1.1890
 8252TIP3    H246248   1.275   3.112   1.420 -0.3602 -0.7344  1.6150
 8253TIP3   OH246249   3.280   5.219   2.010  0.3974 -0.0850  0.1432
 8253TIP3    H146250   3.228   5.139   2.019 -0.1868  0.4450  1.9381
 8253TIP3    H246251   3.370   5.188   1.996  0.0644 -1.0309  0.0145
 8254TIP3   OH246252   4.966   0.710   5.736 -0.5282  0.7079  0.3162
 8254TIP3    H146253   4.983   0.620   5.710  1.8600  0.4108  2.5050
 8254TIP3    H246254   4.912   0.702   5.815 -0.4952  1.2106  0.3921
 8255TIP3   OH246255   5.685   2.992   5.549  0.1489  0.6921 -0.5271
 8255TIP3    H146256   5.687   2.902   5.517  1.1487  1.0197 -1.4637
 8255TIP3    H246257   5.756   2.997   5.613  0.4164  0.9333 -0.8382
 8256TIP3   OH246258   0.368   4.502  16.420 -0.2924 -0.2746  0.3015
 8256TIP3    H146259   0.390   4.411  16.402 -0.2085 -0.1034 -0.5199
 8256TIP3    H246260   0.450   4.541  16.451 -0.6222 -0.7554  1.8521
 8257TIP3   OH246261   1.011   3.048   3.535 -0.7041  0.0626  0.0946
 8257TIP3    H146262   1.064   3.119   3.501  0.6969 -0.0185  1.9658
 8257TIP3    H246263   0.930   3.090   3.565 -0.3953  0.6595  0.0952
 8258TIP3   OH246264   1.327   5.688  12.918 -0.0515 -0.0724  0.6733
 8258TIP3    H146265   1.299   5.703  12.828 -0.9621 -0.2043  0.9277
 8258TIP3    H246266   1.406   5.741  12.927 -0.8315  1.1956  0.2641
 8259TIP3   OH246267   3.665   3.856   4.597 -0.0398 -0.1071  0.0690
 8259TIP3    H146268   3.614   3.891   4.670  1.1376 -0.9004  1.3150
 8259TIP3    H246269   3.756   3.866   4.625  0.5043  0.7745 -1.8700
 8260TIP3   OH246270   1.626   4.872   4.466 -0.2237  0.1857  0.2548
 8260TIP3    H146271   1.697   4.908   4.520  0.4698  0.1373 -0.6094
 8260TIP3    H246272   1.613   4.936   4.397  1.5245 -1.4606 -1.7304
 8261TIP3   OH246273   2.340   5.147  10.477  0.1662  0.2179 -0.0961
 8261TIP3    H146274   2.394   5.136  10.398  0.8770 -2.1261  0.6303
 8261TIP3    H246275   2.401   5.182  10.543  0.0193  0.4947 -0.1074
 8262TIP3   OH246276   3.394   6.281  13.070  0.5128  0.4003 -0.1757
 8262TIP3    H146277   3.486   6.307  13.072  0.3026  1.1705  1.1310
 8262TIP3    H246278   3.362   6.301  13.159 -0.7917 -0.2813 -0.4685
 8263TIP3   OH246279   1.494   2.631   5.027  0.3301  0.1392  0.1925
 8263TIP3    H146280   1.553   2.637   4.952  1.2917 -0.2787  0.8947
 8263TIP3    H246281   1.497   2.539   5.053  0.2385  0.3329  0.9294
 8264TIP3   OH246282   0.191   1.891   5.534  0.0173 -0.6279  0.4405
 8264TIP3    H146283   0.141   1.861   5.458 -0.0173  0.1119  0.1650
 8264TIP3    H246284   0.209   1.811   5.584 -0.3403 -1.0626 -0.1151
 8265TIP3   OH246285   4.187   4.994   4.505 -0.1176  0.4604  0.3105
 8265TIP3    H146286   4.177   4.914   4.452  1.0508  0.6276 -0.1817
 8265TIP3    H246287   4.108   5.045   4.486 -0.8464 -0.5372  0.5776
 8266TIP3   OH246288   2.269   0.577  13.150 -0.0069 -0.1980 -0.2208
 8266TIP3    H146289   2.265   0.665  13.111  1.8240  2.2494  4.2986
 8266TIP3    H246290   2.358   0.547  13.131  0.2863  0.2113  0.4413
 8267TIP3   OH246291   1.967   4.467   2.709 -0.0643 -0.5214  0.3241
 8267TIP3    H146292   1.919   4.504   2.783  1.2521 -0.0443  0.9696
 8267TIP3    H246293   1.983   4.542   2.652 -0.7631 -0.8242 -0.2915
 8268TIP3   OH246294   6.498   4.229   4.015  0.1593  0.5310 -0.2273
 8268TIP3    H146295   6.497   4.322   4.038  2.1963  0.5009  0.2293
 8268TIP3    H246296   6.491   4.183   4.099 -0.0505  0.2841 -0.3769
 8269TIP3   OH246297   2.699   5.434   4.046 -0.2319 -0.6737  0.3421
 8269TIP3    H146298   2.786   5.428   4.005 -0.1301 -1.7779  0.6702
 8269TIP3    H246299   2.708   5.385   4.128 -0.7090  0.6481  1.2029
 8270TIP3   OH246300   1.274   3.827  13.332 -1.2278 -0.4062 -0.0264
 8270TIP3    H146301   1.297   3.737  13.353 -1.6451 -0.8723 -1.4208
 8270TIP3    H246302   1.354   3.877  13.349 -0.9668 -1.0483  0.6791
 8271TIP3   OH246303   5.528   6.799   6.269  0.4689 -0.3285 -0.3796
 8271TIP3    H146304   5.616   6.832   6.288  1.1259 -1.5230 -1.2363
 8271TIP3    H246305   5.538   6.746   6.190 -1.1901  0.2068 -1.0028
 8272TIP3   OH246306   5.113   1.311  15.466 -0.5089  0.3876 -0.1945
 8272TIP3    H146307   5.132   1.365  15.389 -0.4999  0.5790 -0.0600
 8272TIP3    H246308   5.060   1.368  15.522 -0.4148  0.2895 -0.0070
 8273TIP3   OH246309   0.703   4.429   2.011 -0.0118  0.1566  0.1336
 8273TIP3    H146310   0.609   4.416   1.999 -0.4422  2.0475  1.1018
 8273TIP3    H246311   0.710   4.512   2.058  1.9694 -1.4927  3.0815
 8274TIP3   OH246312   0.635   5.814   0.104 -0.9263 -0.4212 -0.7850
 8274TIP3    H146313   0.564   5.797   0.043 -0.4245 -0.3742 -1.4015
 8274TIP3    H246314   0.666   5.727   0.130 -1.7348 -0.4442  0.1244
 8275TIP3   OH246315   4.523   6.570   4.387  0.0247 -0.4714 -0.5817
 8275TIP3    H146316   4.438   6.595   4.425  0.8218  2.1490 -0.2842
 8275TIP3    H246317   4.542   6.640   4.325  2.4365 -0.3925  0.1579
 8276TIP3   OH246318   6.636   0.489  16.832  0.5323 -0.4512 -0.6810
 8276TIP3    H146319   6.557   0.542  16.839  0.8368 -0.2183  2.0694
 8276TIP3    H246320   6.604   0.399  16.825  0.0389 -0.2373 -1.2477
 8277TIP3   OH246321   5.397   4.006  14.818  0.4234 -0.4497  0.0830
 8277TIP3    H146322   5.362   3.917  14.824 -2.2583  0.4783 -0.4937
 8277TIP3    H246323   5.338   4.058  14.872  1.7931  1.0223  0.1988
 8278TIP3   OH246324   0.954   3.174   2.724  0.1455 -0.7724  0.3030
 8278TIP3    H146325   0.872   3.203   2.685 -0.3581  0.4174  2.0949
 8278TIP3    H246326   1.016   3.244   2.704 -0.4541  0.5225  2.5936
 8279TIP3   OH246327   2.486   1.926  11.612 -1.0878  0.7674  0.0870
 8279TIP3    H146328   2.533   1.974  11.544 -0.2398  0.8063  0.6889
 8279TIP3    H246329   2.511   1.835  11.599  0.7360  1.0100  1.6113
 8280TIP3   OH246330   0.911   4.914   4.438  0.7007 -0.1272 -0.0309
 8280TIP3    H146331   0.980   4.977   4.459  1.3137 -0.5204 -0.8325
 8280TIP3    H246332   0.868   4.950   4.360  1.7730 -1.2270 -1.1686
 8281TIP3   OH246333   1.280   1.914   0.105 -0.1112  0.6577 -0.3694
 8281TIP3    H146334   1.353   1.879   0.055 -0.4730 -0.1118 -0.3731
 8281TIP3    H246335   1.236   1.974   0.045  0.1828  0.6824 -0.5580
 8282TIP3   OH246336   3.766   1.911   0.955 -0.1739  0.1244  0.9948
 8282TIP3    H146337   3.855   1.931   0.925  0.6165 -2.1285  1.6179
 8282TIP3    H246338   3.757   1.959   1.037  0.0682  1.1542  0.4381
 8283TIP3   OH246339   0.867   2.612  12.938 -0.0119 -0.0611  0.2140
 8283TIP3    H146340   0.791   2.608  12.997 -0.0594 -0.9410  0.1087
 8283TIP3    H246341   0.903   2.523  12.940 -0.6365 -0.4229 -1.9062
 8284TIP3   OH246342   1.260   5.453  11.956  0.1731 -0.2145 -0.2597
 8284TIP3    H146343   1.176   5.468  11.999 -0.0401  0.9549 -1.0182
 8284TIP3    H246344   1.238   5.408  11.875  0.1604  0.8702 -0.8790
 8285TIP3   OH246345   2.788   4.131  11.589  0.1009 -0.2149  0.0503
 8285TIP3    H146346   2.863   4.152  11.533 -0.5390 -1.2978 -1.2651
 8285TIP3    H246347   2.827   4.105  11.672  1.1505  0.0815 -0.3382
 8286TIP3   OH246348   3.381   1.494   3.060  0.2267 -0.1369  0.0881
 8286TIP3    H146349   3.383   1.433   3.134  0.1022  1.5624  1.5783
 8286TIP3    H246350   3.448   1.559   3.081 -1.6120  1.8547  0.0710
 8287TIP3   OH246351   1.964   6.798   1.670  0.0912 -0.4452 -0.7768
 8287TIP3    H146352   1.959   6.739   1.746 -0.0121 -1.6522 -1.6934
 8287TIP3    H246353   1.968   6.739   1.595 -1.0231  0.7322 -1.7927
 8288TIP3   OH246354   0.921   6.818  14.107 -0.5235  0.1431  0.0486
 8288TIP3    H146355   1.009   6.842  14.136 -0.1617 -1.7580  0.6692
 8288TIP3    H246356   0.879   6.782  14.185 -1.6606  0.4942 -0.3772
 8289TIP3   OH246357   2.130   3.649  12.718  0.6919 -0.1044  0.3236
 8289TIP3    H146358   2.147   3.740  12.744  0.1441  0.5448 -1.4295
 8289TIP3    H246359   2.081   3.656  12.637  1.6164 -1.9886 -0.4627
 8290TIP3   OH246360   1.088   1.320  15.545 -0.1431  0.2449  0.0684
 8290TIP3    H146361   1.050   1.328  15.457  0.8200  0.3211 -0.3562
 8290TIP3    H246362   1.065   1.403  15.588 -0.4788  0.2800 -0.1718
 8291TIP3   OH246363   2.886   1.052   0.652 -0.5189 -0.0744 -0.0803
 8291TIP3    H146364   2.962   1.043   0.594 -0.5968 -0.2131 -0.1620
 8291TIP3    H246365   2.918   1.022   0.737 -1.1997 -2.7470 -0.6754
 8292TIP3   OH246366   4.855   4.698  11.992 -0.5016 -0.3096  0.0224
 8292TIP3    H146367   4.879   4.790  11.994  1.4885 -0.7725 -0.3966
 8292TIP3    H246368   4.760   4.698  11.990 -0.6084  1.8474 -3.0023
 8293TIP3   OH246369   1.129   3.819  10.720 -0.3101 -0.0750  0.4548
 8293TIP3    H146370   1.172   3.758  10.660 -0.5118 -0.0539  0.2872
 8293TIP3    H246371   1.198   3.848  10.779 -0.1682 -0.3013  0.3977
 8294TIP3   OH246372   6.304   6.479  14.293  0.8677 -0.3903  0.1288
 8294TIP3    H146373   6.301   6.566  14.332 -0.4021 -0.0770 -0.6343
 8294TIP3    H246374   6.260   6.489  14.209  0.0581 -1.9339  0.3415
 8295TIP3   OH246375   3.223   4.398  15.127 -0.4252  0.1788 -0.4198
 8295TIP3    H146376   3.304   4.377  15.081  0.5463  3.1852 -0.3260
 8295TIP3    H246377   3.162   4.423  15.057  0.4495  2.8792 -0.3453
 8296TIP3   OH246378   2.414   5.045   0.206  0.1104 -0.0512 -0.3877
 8296TIP3    H146379   2.504   5.039   0.174  0.9782 -1.7283  2.0801
 8296TIP3    H246380   2.367   4.975   0.161  0.4839 -0.2897 -0.4050
 8297TIP3   OH246381   5.087   1.748  11.491  0.3993 -0.0136 -0.2004
 8297TIP3    H146382   5.171   1.785  11.465  1.3853 -2.5612 -0.9850
 8297TIP3    H246383   5.039   1.735  11.409  0.3637 -1.0255 -0.0349
 8298TIP3   OH246384   2.049   5.245   1.889 -0.0831  0.4638  0.6509
 8298TIP3    H146385   2.009   5.276   1.970 -1.4929 -2.1091  1.0705
 8298TIP3    H246386   2.067   5.152   1.906  2.1090  0.4808 -1.0878
 8299TIP3   OH246387   2.243   5.853   3.977  0.0872 -0.5452 -0.5835
 8299TIP3    H146388   2.212   5.939   3.948 -0.5499 -0.5485  0.0613
 8299TIP3    H246389   2.235   5.797   3.900 -2.2675 -0.7333 -0.2824
 8300TIP3   OH246390   6.612   5.804   1.992  0.5446  0.3535 -0.0789
 8300TIP3    H146391   6.563   5.777   2.069 -2.4442  1.8551 -1.2772
 8300TIP3    H246392   6.616   5.900   1.998  0.3778  0.4963 -1.6385
 8301TIP3   OH246393   1.650   2.311   1.039  0.4707 -0.0462 -0.0676
 8301TIP3    H146394   1.697   2.391   1.014 -1.1581  0.5261 -1.5073
 8301TIP3    H246395   1.564   2.319   0.997  0.2716 -2.5918 -0.3166
 8302TIP3   OH246396   5.171   0.550   6.834 -0.0943  0.7827  0.2302
 8302TIP3    H146397   5.089   0.566   6.881 -0.7689 -0.7975 -0.3543
 8302TIP3    H246398   5.146   0.539   6.743  1.0429  2.3565 -0.3156
 8303TIP3   OH246399   2.585   4.411   1.610  0.6686  0.6027  0.1405
 8303TIP3    H146400   2.532   4.353   1.665  2.3492 -0.6335  0.5295
 8303TIP3    H246401   2.593   4.491   1.662  1.7690 -0.3409  1.5056
 8304TIP3   OH246402   5.168   2.474   4.585  0.7782  0.1931  0.4368
 8304TIP3    H146403   5.110   2.399   4.600 -1.7588  2.0245  0.5174
 8304TIP3    H246404   5.196   2.464   4.494 -1.8955  0.5503 -0.5344
 8305TIP3   OH246405   2.363   6.596  16.460  1.0056  0.1808 -0.5595
 8305TIP3    H146406   2.404   6.616  16.375  2.3943 -0.7573 -0.1369
 8305TIP3    H246407   2.434   6.602  16.523 -0.0114  0.8485  0.5753
 8306TIP3   OH246408   6.648   0.351   5.984 -0.3304 -0.0203  0.5573
 8306TIP3    H146409   6.615   0.429   6.028  1.4366  0.2559  1.4752
 8306TIP3    H246410   6.646   0.283   6.051  0.2456 -0.1808  0.4154
 8307TIP3   OH246411   4.094   2.477   2.285 -0.0962 -0.3932  0.2568
 8307TIP3    H146412   4.078   2.509   2.374  1.1206 -2.6735  1.3849
 8307TIP3    H246413   4.043   2.397   2.279  0.0685 -0.4205 -1.0072
 8308TIP3   OH246414   0.107   2.727   2.426 -0.0726  0.3320  1.0644
 8308TIP3    H146415   0.014   2.707   2.439 -0.3565  0.1598 -0.9326
 8308TIP3    H246416   0.135   2.669   2.355  1.3349  1.0223  1.0186
 8309TIP3   OH246417   1.346   0.298  11.156 -0.0948  0.5625 -0.2099
 8309TIP3    H146418   1.256   0.323  11.175 -0.4926 -1.4618  0.9248
 8309TIP3    H246419   1.345   0.270  11.065 -0.7532  0.0521 -0.0531
 8310TIP3   OH246420   4.155   6.762  16.980 -0.1667  0.3277  0.2465
 8310TIP3    H146421   4.140   6.809  17.062  0.6742  1.0689 -0.0060
 8310TIP3    H246422   4.120   6.674  16.996  2.0342 -0.2926  2.2477
 8311TIP3   OH246423   5.048   0.924   4.237  0.3486  0.6068 -0.5060
 8311TIP3    H146424   5.143   0.922   4.247  0.2516  1.1215  0.6810
 8311TIP3    H246425   5.016   0.853   4.293  0.0785 -0.2523 -1.7185
 8312TIP3   OH246426   5.771   3.569   3.152 -0.2978  0.2905 -0.1594
 8312TIP3    H146427   5.730   3.634   3.094 -2.0114 -1.4410 -1.0325
 8312TIP3    H246428   5.809   3.505   3.092  4.0038  1.8034  0.6083
 8313TIP3   OH246429   0.609   5.938  11.535 -0.3974  0.0706 -0.0655
 8313TIP3    H146430   0.579   5.977  11.617  0.5042 -0.8174  0.7085
 8313TIP3    H246431   0.679   5.879  11.561  0.4730  0.3943 -1.5744
 8314TIP3   OH246432   5.957   4.928   1.887 -0.2241 -0.6672  0.2960
 8314TIP3    H146433   6.007   5.000   1.848 -0.0783 -0.7395  0.3512
 8314TIP3    H246434   5.913   4.886   1.812 -0.7876 -0.1545  0.3277
 8315TIP3   OH246435   0.484   1.101   0.200 -0.5921  0.1527 -0.3278
 8315TIP3    H146436   0.543   1.170   0.171 -0.6887  0.5353  0.3492
 8315TIP3    H246437   0.536   1.022   0.199 -0.8449 -0.0295 -2.4088
 8316TIP3   OH246438   1.719   5.750   5.496 -0.6795 -0.1210  0.3979
 8316TIP3    H146439   1.711   5.657   5.517  0.8898 -0.4070 -0.1341
 8316TIP3    H246440   1.684   5.795   5.572  0.5839 -1.1497  1.6374
 8317TIP3   OH246441   3.644   3.632   3.483  0.3814  0.8087  0.0468
 8317TIP3    H146442   3.636   3.656   3.390  0.5467  0.4527 -0.0601
 8317TIP3    H246443   3.585   3.692   3.528  1.9642  2.5259 -0.0407
 8318TIP3   OH246444   6.785   4.597  11.924  0.1909 -0.3722  0.3167
 8318TIP3    H146445   6.874   4.627  11.904 -0.0721 -0.7284 -1.5718
 8318TIP3    H246446   6.762   4.540  11.850 -1.8787  0.3055  0.3834
 8319TIP3   OH246447   5.597   1.768   4.422 -0.6358  0.2107 -0.5048
 8319TIP3    H146448   5.681   1.753   4.465 -0.7782  1.9299  0.4448
 8319TIP3    H246449   5.532   1.759   4.491 -0.9219  2.3497 -0.4416
 8320TIP3   OH246450   6.268   4.624  11.056 -0.1207 -0.4075 -0.2940
 8320TIP3    H146451   6.276   4.719  11.065 -1.9931 -0.3873  2.1852
 8320TIP3    H246452   6.196   4.612  10.994 -0.7808 -0.1768  0.4206
 8321TIP3   OH246453   4.347   4.480   1.674  0.2767 -0.1679  0.1545
 8321TIP3    H146454   4.275   4.531   1.638 -1.1906 -0.9458  1.8072
 8321TIP3    H246455   4.390   4.440   1.598 -1.4451 -0.2127 -0.8325
 8322TIP3   OH246456   5.871   4.303   4.712  0.1960  0.5216  0.3139
 8322TIP3    H146457   5.852   4.260   4.628 -1.1151  1.7357 -0.0447
 8322TIP3    H246458   5.851   4.236   4.778 -1.4269  0.4227 -0.2428
 8323TIP3   OH246459   4.140   0.579  12.460 -0.2817  0.0708 -0.0232
 8323TIP3    H146460   4.162   0.528  12.538  0.3481 -0.8680 -0.7862
 8323TIP3    H246461   4.212   0.641  12.451  0.2965 -0.6535 -0.5379
 8324TIP3   OH246462   6.682   3.407  12.406 -0.2600 -0.2556 -0.2956
 8324TIP3    H146463   6.763   3.458  12.413  0.9306 -2.1041  0.1765
 8324TIP3    H246464   6.622   3.465  12.359  0.7470  1.8303  0.8009
 8325TIP3   OH246465   5.695   3.758   0.817  0.0931 -0.1837  0.1466
 8325TIP3    H146466   5.770   3.714   0.778  0.3383 -0.5283  0.9783
 8325TIP3    H246467   5.713   3.851   0.806 -0.3177 -0.2650 -1.4173
 8326TIP3   OH246468   3.615   6.254  12.044  0.8965  0.2873  0.2234
 8326TIP3    H146469   3.680   6.278  11.979  0.6685 -0.0289 -0.1321
 8326TIP3    H246470   3.563   6.185  12.001 -2.2083  3.1603 -1.0868
 8327TIP3   OH246471   5.888   5.215  13.941 -0.0075 -0.3586  0.0498
 8327TIP3    H146472   5.932   5.133  13.921 -0.0215 -0.9466  2.1264
 8327TIP3    H246473   5.808   5.214  13.888  1.1513 -0.5358 -1.7383
 8328TIP3   OH246474   2.404   2.788   3.005 -0.4620 -0.3988  0.4400
 8328TIP3    H146475   2.460   2.830   2.940 -0.5153  0.4533  0.9309
 8328TIP3    H246476   2.373   2.708   2.962  1.7167 -1.2997  0.4169
 8329TIP3   OH246477   0.117   0.340  13.928  0.0835  0.6708 -0.0851
 8329TIP3    H146478   0.038   0.301  13.965  0.1965 -0.8319 -1.3331
 8329TIP3    H246479   0.126   0.300  13.841  2.3079  0.6647  0.0808
 8330TIP3   OH246480   0.467   3.275   1.208 -0.0790  0.0775  0.3102
 8330TIP3    H146481   0.449   3.350   1.151  1.8666  0.4755  0.1171
 8330TIP3    H246482   0.531   3.223   1.159 -0.1050 -0.7913  1.1712
 8331TIP3   OH246483   2.090   4.069  11.236 -0.0442  0.3363  0.3456
 8331TIP3    H146484   2.143   4.131  11.186 -0.1233  0.2370  0.1377
 8331TIP3    H246485   2.121   3.983  11.208  0.7716  0.2707  1.3802
 8332TIP3   OH246486   5.384   3.387   3.990  0.6676 -0.7498  0.2541
 8332TIP3    H146487   5.374   3.320   4.058 -0.6036 -0.2206  0.6184
 8332TIP3    H246488   5.429   3.460   4.034  0.3211 -0.6160  0.3904
 8333TIP3   OH246489   5.594   4.369  16.221  0.5401  0.9136  0.1706
 8333TIP3    H146490   5.647   4.308  16.272  0.4817 -0.3723 -1.2296
 8333TIP3    H246491   5.574   4.440  16.281  1.4646  0.0376  1.5599
 8334TIP3   OH246492   5.125   5.575  10.784  0.1977  0.5810 -0.0882
 8334TIP3    H146493   5.102   5.606  10.697 -0.7915 -1.9450 -0.8145
 8334TIP3    H246494   5.050   5.597  10.838 -0.2648 -0.0380 -0.4698
 8335TIP3   OH246495   3.222   5.024   2.318  0.7249  0.3703 -0.4092
 8335TIP3    H146496   3.188   5.113   2.308 -1.0278  0.0782  2.1020
 8335TIP3    H246497   3.305   5.025   2.269  0.6020  3.2606 -0.7402
 8336TIP3   OH246498   3.229   1.302  11.359  0.2215  0.5431  0.5967
 8336TIP3    H146499   3.282   1.252  11.297 -1.2449  0.6919 -0.8401
 8336TIP3    H246500   3.255   1.393  11.344  0.2838  0.5264  0.6042
 8337TIP3   OH246501   0.257   6.390  15.176  0.6350 -0.2155 -0.0468
 8337TIP3    H146502   0.306   6.472  15.164 -0.6478  0.5411 -0.3375
 8337TIP3    H246503   0.168   6.419  15.197  0.5209 -1.5529  1.4332
 8338TIP3   OH246504   3.404   4.429  13.898 -0.4601 -0.3103  0.5230
 8338TIP3    H146505   3.455   4.371  13.954 -1.5388 -1.2781  0.5343
 8338TIP3    H246506   3.470   4.472  13.843  0.3866 -1.3979  0.6419
 8339TIP3   OH246507   2.758   1.658   2.557 -0.3683 -0.1085 -0.3075
 8339TIP3    H146508   2.846   1.693   2.567 -0.2729  0.0921 -1.6956
 8339TIP3    H246509   2.747   1.647   2.463 -1.1432 -1.9036 -0.0440
 8340TIP3   OH246510   2.943   3.350   6.385 -0.2149 -0.2416  0.5384
 8340TIP3    H146511   2.885   3.313   6.452 -0.4030  0.5134  0.8049
 8340TIP3    H246512   2.902   3.328   6.302 -0.9076  0.3097  0.7280
 8341TIP3   OH246513   1.950   5.777  11.231  0.3873  0.3291  0.2347
 8341TIP3    H146514   1.968   5.788  11.138 -1.7489 -3.3893 -0.8132
 8341TIP3    H246515   1.960   5.683  11.247 -0.6681  0.6228  3.4598
 8342TIP3   OH246516   4.224   2.714  16.562 -0.1179  0.1647  0.1941
 8342TIP3    H146517   4.311   2.701  16.601 -0.6165  1.1829  1.7584
 8342TIP3    H246518   4.229   2.798  16.518  0.3299 -0.8198 -1.7462
 8343TIP3   OH246519   1.543   5.460  13.636  0.7479  0.3174  0.1493
 8343TIP3    H146520   1.545   5.554  13.657  1.0390  0.5598 -0.8894
 8343TIP3    H246521   1.562   5.457  13.542 -1.9831 -0.5719 -0.4621
 8344TIP3   OH246522   3.933   2.917   2.921  0.6481 -0.4589 -0.0233
 8344TIP3    H146523   3.907   2.965   3.000 -1.1483 -1.4279  0.0418
 8344TIP3    H246524   3.936   2.984   2.853 -0.8979 -0.0608  0.2507
 8345TIP3   OH246525   1.235   4.118  11.848 -0.1440 -0.6718 -0.7701
 8345TIP3    H146526   1.208   4.148  11.935 -0.5277  1.3262 -1.5288
 8345TIP3    H246527   1.194   4.032  11.838  1.0875 -1.6280  1.5599
 8346TIP3   OH246528   5.244   3.417   1.995 -0.0537 -0.3332 -0.6040
 8346TIP3    H146529   5.183   3.392   2.065 -0.1565  2.0803  0.2364
 8346TIP3    H246530   5.191   3.466   1.933  0.6174  0.0152 -0.9119
 8347TIP3   OH246531   0.397   5.053  13.519 -0.4149 -0.6974  0.5232
 8347TIP3    H146532   0.342   5.112  13.468  0.5632 -0.2175 -0.0025
 8347TIP3    H246533   0.380   4.966  13.483  1.6156 -0.1941 -1.9920
 8348TIP3   OH246534   3.002   1.637  11.740 -0.0312  0.3675  0.5161
 8348TIP3    H146535   3.055   1.558  11.726 -2.2572 -1.1499  0.1675
 8348TIP3    H246536   2.972   1.631  11.830  0.4045  1.2471  0.7315
 8349TIP3   OH246537   1.636   5.237   4.767  0.0315  0.6329 -0.2474
 8349TIP3    H146538   1.572   5.188   4.716 -0.2527  1.5929 -0.8317
 8349TIP3    H246539   1.629   5.201   4.856  0.3237 -0.8439 -0.7945
 8350TIP3   OH246540   2.454   1.058   0.514  0.2813 -0.3188 -0.1851
 8350TIP3    H146541   2.417   1.095   0.594 -0.4933 -2.1619  0.3530
 8350TIP3    H246542   2.379   1.041   0.458  0.5731 -1.2853 -0.3016
 8351TIP3   OH246543   5.866   4.349   2.175  0.4963  0.7966  0.0604
 8351TIP3    H146544   5.937   4.303   2.219  0.8195  0.5614 -0.6887
 8351TIP3    H246545   5.786   4.306   2.205  0.5783  1.7383  1.7207
 8352TIP3   OH246546   3.893   5.430  13.150  0.1032  0.4800  0.0015
 8352TIP3    H146547   3.940   5.499  13.104  1.6330 -0.7283 -0.3492
 8352TIP3    H246548   3.801   5.453  13.141  0.5449  2.1156 -0.6393
 8353TIP3   OH246549   6.025   4.752  16.763 -0.2274 -0.5074  0.6242
 8353TIP3    H146550   6.088   4.799  16.709 -0.7373 -0.1692  0.3198
 8353TIP3    H246551   5.955   4.815  16.778 -0.5321 -0.9083  0.8956
 8354TIP3   OH246552   1.520   6.820  10.740 -0.5175  0.4321 -0.1418
 8354TIP3    H146553   1.601   6.783  10.704 -0.3869  1.4393 -0.9376
 8354TIP3    H246554   1.474   6.854  10.663 -0.8078  1.5654  0.5221
 8355TIP3   OH246555   4.215   0.228   4.845 -0.4773 -0.0417  0.2604
 8355TIP3    H146556   4.157   0.223   4.770 -1.3257  0.5299  0.8535
 8355TIP3    H246557   4.302   0.245   4.808 -0.4624 -2.0290 -0.6992
 8356TIP3   OH246558   6.187   0.071  15.085  0.0709 -0.0429  0.3447
 8356TIP3    H146559   6.271   0.108  15.110  0.1896  0.2394 -0.4409
 8356TIP3    H246560   6.203   0.028  15.001 -0.9647  1.6761 -0.7918
 8357TIP3   OH246561   1.308   3.986   4.103 -0.1031 -0.3933  0.2420
 8357TIP3    H146562   1.309   3.895   4.073 -0.8657 -0.9465  1.7576
 8357TIP3    H246563   1.380   3.992   4.166 -0.0415  0.0541  0.1315
 8358TIP3   OH246564   2.107   4.408   3.910  0.2227 -0.1533  0.1885
 8358TIP3    H146565   2.139   4.379   3.996 -0.4407 -1.2222  0.0936
 8358TIP3    H246566   2.138   4.498   3.903  1.6742 -0.5597  0.8467
 8359TIP3   OH246567   4.542   2.712   1.049  0.1447  0.2395  0.1447
 8359TIP3    H146568   4.533   2.755   0.964  0.8680 -0.0633 -0.0951
 8359TIP3    H246569   4.472   2.749   1.103 -0.0881  0.7025 -0.4718
 8360TIP3   OH246570   4.507   1.331   1.852 -0.3547 -0.2286  0.0079
 8360TIP3    H146571   4.434   1.342   1.792 -0.9834  0.9928  0.9453
 8360TIP3    H246572   4.578   1.295   1.799 -1.1260  0.1183 -1.2767
 8361TIP3   OH246573   1.573   0.501   1.657 -0.1668  0.2942 -0.1073
 8361TIP3    H146574   1.559   0.554   1.578  1.2121 -1.3257 -1.5382
 8361TIP3    H246575   1.517   0.425   1.644 -0.1169  0.1340  0.6132
 8362TIP3   OH246576   2.085   1.221  15.624 -0.4055  0.3947 -0.2420
 8362TIP3    H146577   2.167   1.216  15.671 -0.9839  1.1125  0.8915
 8362TIP3    H246578   2.044   1.135  15.638  1.0911 -0.8406 -2.7235
 8363TIP3   OH246579   6.768   1.838   6.450 -0.0918 -0.3996  0.7182
 8363TIP3    H146580   6.737   1.895   6.520 -0.9160 -0.4683  0.4285
 8363TIP3    H246581   6.720   1.867   6.372 -1.1250 -1.9563  0.7181
 8364TIP3   OH246582   3.672   5.424  15.261  0.3117 -0.6267 -0.4630
 8364TIP3    H146583   3.661   5.445  15.354 -0.2737 -0.7116 -0.5140
 8364TIP3    H246584   3.740   5.485  15.232  0.8567 -0.9346  0.1328
 8365TIP3   OH246585   0.448   1.990  13.913  0.8162  0.3252 -0.2111
 8365TIP3    H146586   0.521   1.929  13.905  2.6563  2.4888 -1.0118
 8365TIP3    H246587   0.453   2.044  13.834 -1.2368  0.9970  0.0607
 8366TIP3   OH246588   2.385   2.739  12.732  0.0803 -0.4305  0.2153
 8366TIP3    H146589   2.302   2.709  12.695 -0.4615 -0.3203  1.2826
 8366TIP3    H246590   2.365   2.754  12.825  1.2962 -0.3984  0.4856
 8367TIP3   OH246591   1.225   0.149   6.540  0.0407 -0.3736 -0.3619
 8367TIP3    H146592   1.272   0.165   6.458  0.8144 -0.1330  0.1200
 8367TIP3    H246593   1.205   0.236   6.574  0.7562 -0.4539  0.2824
 8368TIP3   OH246594   3.182   6.377  12.937  0.1006  0.3184 -0.1758
 8368TIP3    H146595   3.121   6.381  13.011  0.6767  1.6333  0.2540
 8368TIP3    H246596   3.265   6.347  12.976  0.7995  2.3621  0.0346
 8369TIP3   OH246597   3.671   4.299   4.860 -0.6131 -0.2755  0.2389
 8369TIP3    H146598   3.749   4.291   4.805 -1.6057  0.2250 -1.3194
 8369TIP3    H246599   3.603   4.329   4.800 -1.5035  1.3967  1.9560
 8370TIP3   OH246600   2.038   3.390  13.659 -0.5453  0.2207  0.8518
 8370TIP3    H146601   1.967   3.357  13.714 -0.7903  2.8126  2.2371
 8370TIP3    H246602   2.066   3.471  13.701  3.2154 -0.5954  0.3049
 8371TIP3   OH246603   5.631   5.274   3.049 -0.4901 -0.2920  0.0651
 8371TIP3    H146604   5.708   5.326   3.024 -0.1385 -1.3171 -1.0824
 8371TIP3    H246605   5.560   5.338   3.055  0.3546  0.6252  0.8189
 8372TIP3   OH246606   0.301   5.918  15.496 -0.0219  0.0017 -0.0247
 8372TIP3    H146607   0.283   5.883  15.583  0.7372  0.8158  0.4766
 8372TIP3    H246608   0.373   5.979  15.509 -0.8329  1.2148 -0.9836
 8373TIP3   OH246609   3.378   1.278  12.342 -0.4397  0.0839  0.1740
 8373TIP3    H146610   3.304   1.309  12.290 -0.3055  1.3796  0.7225
 8373TIP3    H246611   3.353   1.189  12.367 -1.1595 -0.0165 -0.8452
 8374TIP3   OH246612   2.804   1.836  12.515  0.0623 -0.6383  0.1626
 8374TIP3    H146613   2.815   1.881  12.598 -0.5288  1.2143 -0.7207
 8374TIP3    H246614   2.787   1.905  12.451  0.0502 -2.0373 -1.4344
 8375TIP3   OH246615   4.160   5.797   5.118 -0.2692 -0.3744  0.5990
 8375TIP3    H146616   4.080   5.749   5.095 -0.9558  0.8740  0.2946
 8375TIP3    H246617   4.132   5.888   5.123  0.9984 -0.0060  1.2210
 8376TIP3   OH246618   6.720   4.132  15.516 -0.1777 -0.0217  0.6043
 8376TIP3    H146619   6.663   4.163  15.587 -0.3214 -0.0042  0.4826
 8376TIP3    H246620   6.790   4.084  15.560  0.3758  0.9845  0.8384
 8377TIP3   OH246621   3.582   1.845  11.689 -0.1695 -0.3521 -0.1987
 8377TIP3    H146622   3.644   1.781  11.725  1.1975  0.6677 -0.6219
 8377TIP3    H246623   3.507   1.842  11.747  1.7881  0.9829  2.6032
 8378TIP3   OH246624   2.999   6.475   1.366 -0.6510  0.2063 -0.0012
 8378TIP3    H146625   2.938   6.523   1.421  0.7542  0.8201  1.0965
 8378TIP3    H246626   3.066   6.443   1.426 -0.2558 -1.0650 -1.0512
 8379TIP3   OH246627   0.041   3.844   4.725 -0.6078 -0.3129  0.0256
 8379TIP3    H146628  -0.002   3.771   4.770 -0.2225 -0.8250 -0.4341
 8379TIP3    H246629   0.031   3.824   4.632  0.4769 -0.3570 -0.0887
 8380TIP3   OH246630   4.622   5.987  12.814 -0.1344 -0.1140 -0.3590
 8380TIP3    H146631   4.581   5.942  12.740 -0.8768  1.0265 -0.6671
 8380TIP3    H246632   4.660   6.066  12.776 -1.8464  1.2796  0.6925
 8381TIP3   OH246633   0.624   3.329  11.080  0.1225 -0.2117  0.3780
 8381TIP3    H146634   0.569   3.254  11.057  0.1909 -0.0715 -0.2675
 8381TIP3    H246635   0.702   3.319  11.025  0.1817  0.2662  0.3727
 8382TIP3   OH246636   5.361   4.311  13.535 -0.5858  0.0952  0.3217
 8382TIP3    H146637   5.294   4.270  13.590 -1.8424  0.9858 -0.4768
 8382TIP3    H246638   5.342   4.279  13.447  0.7193 -0.4606  0.2230
 8383TIP3   OH246639   6.183   6.001   3.049 -0.2151  0.0501 -0.2072
 8383TIP3    H146640   6.216   6.079   3.004  0.1009 -0.1662 -0.3553
 8383TIP3    H246641   6.114   6.034   3.107  1.2754  0.7542  1.2611
 8384TIP3   OH246642   6.766   5.530   0.542  0.7583 -0.0625 -0.2173
 8384TIP3    H146643   6.687   5.484   0.567  0.5904  0.2445 -0.1755
 8384TIP3    H246644   6.804   5.560   0.625  0.7322  0.0904 -0.2594
 8385TIP3   OH246645   1.745   1.010  16.462  0.1217  0.7391  0.1177
 8385TIP3    H146646   1.729   1.000  16.368  0.3937  0.7326  0.0711
 8385TIP3    H246647   1.738   1.105  16.478 -0.8899  0.6544  0.2702
 8386TIP3   OH246648   0.713   0.339   3.393  0.0470 -0.3345 -0.5271
 8386TIP3    H146649   0.756   0.371   3.472 -0.0858  0.9707 -0.9572
 8386TIP3    H246650   0.630   0.301   3.424 -1.0218  2.0861 -0.1904
 8387TIP3   OH246651   4.828   1.540   3.770 -0.7767  0.2831  0.2186
 8387TIP3    H146652   4.751   1.487   3.791  0.1838 -1.1905  0.1498
 8387TIP3    H246653   4.902   1.481   3.782  0.1512  0.5150 -3.2821
 8388TIP3   OH246654   2.519   5.306   5.185  0.3532 -0.2864  1.1081
 8388TIP3    H146655   2.559   5.390   5.163  1.4071 -0.3858  2.5451
 8388TIP3    H246656   2.426   5.326   5.198  0.5399  0.5974  1.1169
 8389TIP3   OH246657   2.297   2.220   5.551 -0.0336 -0.2507  0.2033
 8389TIP3    H146658   2.321   2.248   5.639 -1.4375  1.3503  0.1137
 8389TIP3    H246659   2.234   2.149   5.566 -0.9287  0.5874  0.5297
 8390TIP3   OH246660   6.376   0.935  12.733 -0.1835  0.0333 -0.3459
 8390TIP3    H146661   6.405   0.879  12.662  1.0299  1.6629 -1.2049
 8390TIP3    H246662   6.366   1.022  12.693  1.7769  1.3127  1.6515
 8391TIP3   OH246663   3.784   2.865   1.606  0.0606  0.6963  0.1212
 8391TIP3    H146664   3.698   2.906   1.601 -0.0896  0.2459 -1.8028
 8391TIP3    H246665   3.804   2.840   1.515  0.5959 -2.5228  1.0128
 8392TIP3   OH246666   5.375   1.893   3.150  0.0369 -0.5771 -0.1609
 8392TIP3    H146667   5.439   1.941   3.097 -0.3127 -1.2642 -1.2272
 8392TIP3    H246668   5.290   1.929   3.123 -0.1515 -1.0250 -0.1705
 8393TIP3   OH246669   5.593   2.216   0.736 -0.0663 -0.1643 -0.1323
 8393TIP3    H146670   5.667   2.195   0.679  0.7267 -0.7137  1.0338
 8393TIP3    H246671   5.529   2.148   0.720 -0.0401 -0.0643 -0.6721
 8394TIP3   OH246672   5.798   3.709  12.496  0.4771  0.1517 -0.3939
 8394TIP3    H146673   5.849   3.787  12.519  1.4658 -0.3430 -0.8646
 8394TIP3    H246674   5.708   3.733  12.518  1.1289  0.2517  2.6141
 8395TIP3   OH246675   4.456   3.551  13.237  0.1729 -0.8083 -0.4035
 8395TIP3    H146676   4.524   3.516  13.295  0.9927  0.9996 -0.1926
 8395TIP3    H246677   4.491   3.541  13.149 -0.4661 -2.2800 -0.5127
 8396TIP3   OH246678   6.242   2.847  12.078 -0.0637 -0.1038 -0.5263
 8396TIP3    H146679   6.263   2.939  12.093 -0.7267  0.0658 -0.6220
 8396TIP3    H246680   6.165   2.830  12.133 -1.0792 -0.0994 -1.8830
 8397TIP3   OH246681   3.108   0.552  12.085  0.2018  0.2051  0.4176
 8397TIP3    H146682   3.032   0.511  12.126 -2.0914  0.2695 -3.3345
 8397TIP3    H246683   3.071   0.610  12.018  3.5764  1.4672 -0.5604
 8398TIP3   OH246684   5.752   0.268  15.818 -0.4577 -0.0157  0.3339
 8398TIP3    H146685   5.679   0.221  15.858 -1.1355  0.1084 -0.7019
 8398TIP3    H246686   5.711   0.345  15.778  0.0918 -0.4344 -1.0826
 8399TIP3   OH246687   5.769   1.895  12.360  0.4048  0.3907  0.0434
 8399TIP3    H146688   5.682   1.898  12.322  1.4654  1.6644 -2.5131
 8399TIP3    H246689   5.812   1.821  12.316  1.0280  0.5825  0.3103
 8400TIP3   OH246690   0.396   5.940   2.232 -0.3198  0.0783 -0.0303
 8400TIP3    H146691   0.348   6.021   2.214 -1.0078 -0.2825  0.1620
 8400TIP3    H246692   0.455   5.963   2.305  0.6626  0.8402 -1.0279
 8401TIP3   OH246693   6.087   0.320  12.547 -0.6426  0.8895  0.5327
 8401TIP3    H146694   6.093   0.401  12.496 -2.0755  0.6545 -0.0735
 8401TIP3    H246695   6.128   0.341  12.631 -0.6316  2.1255  0.2436
 8402TIP3   OH246696   3.112   6.488  12.048 -0.4252  0.6165 -0.2209
 8402TIP3    H146697   3.198   6.469  12.011 -0.2969  0.4699  0.1428
 8402TIP3    H246698   3.085   6.405  12.088  0.5298  1.3605  2.1736
 8403TIP3   OH246699   6.601   1.656   2.355 -0.2906  0.0742 -0.2418
 8403TIP3    H146700   6.638   1.567   2.358 -1.2154 -0.3175 -0.0198
 8403TIP3    H246701   6.579   1.676   2.446 -3.2465 -0.8738 -0.6596
 8404TIP3   OH246702   4.272   6.232  13.944 -0.7865 -0.7053 -0.0926
 8404TIP3    H146703   4.349   6.177  13.960 -1.9173 -2.8791 -1.5776
 8404TIP3    H246704   4.240   6.254  14.031  0.0378 -1.9580  0.5522
 8405TIP3   OH246705   4.272   1.054   0.791 -0.5560  0.9082  0.4528
 8405TIP3    H146706   4.321   1.114   0.734 -1.6816  2.2780  0.8666
 8405TIP3    H246707   4.232   0.991   0.731 -0.1666  1.1667 -0.0902
 8406TIP3   OH246708   2.693   3.627  16.260  0.0095  0.1250  0.0532
 8406TIP3    H146709   2.780   3.613  16.224  0.6301  0.9599  1.1949
 8406TIP3    H246710   2.664   3.539  16.287  1.8343  0.2248  2.6304
 8407TIP3   OH246711   2.819   4.251  13.677 -0.0573  0.2264 -1.1521
 8407TIP3    H146712   2.801   4.338  13.640  0.7679  1.0388  0.2441
 8407TIP3    H246713   2.887   4.215  13.621  0.1287  0.8070 -1.3133
 8408TIP3   OH246714   4.470   1.503   1.270 -0.3224  0.2031 -0.3220
 8408TIP3    H146715   4.482   1.598   1.269 -0.1730  0.2134 -2.4315
 8408TIP3    H246716   4.558   1.467   1.254 -0.4454 -0.2793  0.0475
 8409TIP3   OH246717   5.460   3.754  12.480  0.2343 -0.2906  0.1793
 8409TIP3    H146718   5.466   3.665  12.445  0.4449 -0.2686  0.1605
 8409TIP3    H246719   5.483   3.810  12.406  1.6224 -0.2759  0.5990
 8410TIP3   OH246720   3.270   0.215   2.955  0.2529  0.3181  0.2031
 8410TIP3    H146721   3.362   0.235   2.940 -0.0712  0.8720 -1.1878
 8410TIP3    H246722   3.248   0.151   2.887 -0.4350  0.3043  0.4278
 8411TIP3   OH246723   3.936   1.600  12.288  0.5456  1.4582  0.1493
 8411TIP3    H146724   4.020   1.611  12.332  2.1194 -2.5959 -1.2796
 8411TIP3    H246725   3.960   1.586  12.196 -1.7006  0.5548 -0.3553
 8412TIP3   OH246726   4.413   5.252  13.991  0.3213 -0.6246 -0.1135
 8412TIP3    H146727   4.473   5.181  13.968 -1.4371 -2.4600  0.6378
 8412TIP3    H246728   4.327   5.221  13.962 -0.5181  1.1918  0.2953
 8413TIP3   OH246729   6.224   6.291  13.203 -0.0853  0.5090  0.0360
 8413TIP3    H146730   6.186   6.204  13.216  1.6874 -0.3158  0.0292
 8413TIP3    H246731   6.155   6.341  13.159 -1.0172 -0.9912 -0.2879
 8414TIP3   OH246732   4.745   0.153  15.527  0.7423  0.1371  0.2058
 8414TIP3    H146733   4.804   0.228  15.530 -0.8618  1.4328  2.4132
 8414TIP3    H246734   4.748   0.116  15.615 -0.9182 -0.3740  0.0959
 8415TIP3   OH246735   6.771   3.474  11.591 -0.3957  0.2539 -0.5575
 8415TIP3    H146736   6.686   3.502  11.558 -0.5163  0.4029 -0.1307
 8415TIP3    H246737   6.793   3.397  11.539  0.5598  1.8592 -2.6910
 8416TIP3   OH246738   3.814   3.297  15.393  0.0867  0.2404 -0.5720
 8416TIP3    H146739   3.813   3.393  15.389  1.2521  0.3715  1.2545
 8416TIP3    H246740   3.874   3.276  15.464  0.0717 -1.8769 -1.1081
 8417TIP3   OH246741   2.806   1.354   4.538  0.7705 -0.7054  0.1258
 8417TIP3    H146742   2.890   1.391   4.509  0.3500 -0.6356 -1.0684
 8417TIP3    H246743   2.825   1.262   4.556  0.9042 -0.9353 -1.1182
 8418TIP3   OH246744   2.809   3.363  13.449  0.2901 -0.3381  0.2319
 8418TIP3    H146745   2.876   3.303  13.416  0.0093 -0.0485 -0.9412
 8418TIP3    H246746   2.747   3.370  13.376  0.7995  2.0941 -0.0624
 8419TIP3   OH246747   1.529   1.843   3.246  0.0894  0.0956 -0.1884
 8419TIP3    H146748   1.454   1.830   3.304 -0.3133 -0.8012 -0.8823
 8419TIP3    H246749   1.555   1.754   3.220  2.7886  0.2025  1.7274
 8420TIP3   OH246750   3.580   0.177  11.340 -0.1274 -0.0841 -1.0392
 8420TIP3    H146751   3.520   0.241  11.380  0.9416  0.5454 -0.4151
 8420TIP3    H246752   3.627   0.139  11.414  0.2040 -0.6365 -1.5245
 8421TIP3   OH246753   2.026   0.691  11.675 -0.3547 -0.3828  0.3058
 8421TIP3    H146754   2.082   0.615  11.661  0.6606  0.6816 -1.8659
 8421TIP3    H246755   2.079   0.766  11.647 -2.0506  0.9004  0.3606
 8422TIP3   OH246756   3.682   5.835   4.218 -0.1501  0.1296  0.2420
 8422TIP3    H146757   3.613   5.882   4.266 -1.0392  1.2128 -1.9738
 8422TIP3    H246758   3.635   5.774   4.161  0.8680 -0.9360  0.4938
 8423TIP3   OH246759   5.454   6.744  16.652  0.2021 -0.5407 -0.2373
 8423TIP3    H146760   5.365   6.743  16.617  0.1096  0.8872 -0.1041
 8423TIP3    H246761   5.443   6.766  16.745  0.5959 -2.0614  0.2021
 8424TIP3   OH246762   4.479   0.272  15.521 -0.3108  0.3655  0.2840
 8424TIP3    H146763   4.532   0.319  15.586 -2.6763  0.5396  2.2217
 8424TIP3    H246764   4.484   0.180  15.548  0.6637  0.0604 -0.8239
 8425TIP3   OH246765   5.184   2.242  11.141 -0.0851 -0.4306  0.1165
 8425TIP3    H146766   5.233   2.160  11.150  1.6519  0.5591  0.2186
 8425TIP3    H246767   5.172   2.252  11.047  1.9452  0.3835 -0.1135
 8426TIP3   OH246768   4.182   5.719  12.695  0.3101 -0.0412  0.4770
 8426TIP3    H146769   4.244   5.791  12.701 -0.6547  0.7531  1.5405
 8426TIP3    H246770   4.235   5.640  12.707  1.1385  0.6124  1.2521
 8427TIP3   OH246771   3.457   2.518  12.337 -0.7647 -0.2438  0.0546
 8427TIP3    H146772   3.442   2.611  12.355  0.6178  0.3352 -1.5184
 8427TIP3    H246773   3.443   2.510  12.243  0.1184 -1.4091  0.0037
 8428TIP3   OH246774   1.230   0.266  10.915 -0.9634  0.0217 -0.4153
 8428TIP3    H146775   1.158   0.328  10.920 -0.9147 -0.0131  1.5093
 8428TIP3    H246776   1.188   0.180  10.905 -1.1456  0.0814 -0.1514
 8429TIP3   OH246777   4.886   5.537   1.779 -0.7616  0.4403 -0.3877
 8429TIP3    H146778   4.902   5.475   1.850  0.6691  0.6861 -0.4653
 8429TIP3    H246779   4.878   5.482   1.701 -1.3800  0.2322 -0.1786
 8430TIP3   OH246780   6.448   3.038   1.955 -0.1046 -0.0024  0.6551
 8430TIP3    H146781   6.502   2.959   1.955 -1.2083 -0.7939  1.0312
 8430TIP3    H246782   6.506   3.107   1.924  1.0197 -0.8705  0.7565
 8431TIP3   OH246783   4.765   0.317   2.996  0.3301 -0.0960 -0.2395
 8431TIP3    H146784   4.725   0.284   2.916  2.2686 -0.6493 -1.0348
 8431TIP3    H246785   4.795   0.405   2.973  0.8617 -0.2437 -0.1221
 8432TIP3   OH246786   4.229   2.786   0.718 -0.3234  0.5433  0.2319
 8432TIP3    H146787   4.134   2.784   0.719 -0.3565 -1.4248 -0.7894
 8432TIP3    H246788   4.252   2.783   0.625  0.6570 -1.8209  0.4614
 8433TIP3   OH246789   4.588   5.954  11.755  0.6400 -0.0283  0.5113
 8433TIP3    H146790   4.672   5.976  11.714  1.1224 -0.3282  1.2949
 8433TIP3    H246791   4.601   5.865  11.788  0.0999  0.0227  0.8649
 8434TIP3   OH246792   4.268   0.182  12.123  0.6062  0.9889 -0.1246
 8434TIP3    H146793   4.300   0.149  12.207 -1.8698 -3.0023 -0.4720
 8434TIP3    H246794   4.277   0.107  12.064 -1.3365  2.4075 -2.3715
 8435TIP3   OH246795   6.355   2.098   1.341  0.1757 -0.0029 -0.1168
 8435TIP3    H146796   6.306   2.179   1.324 -2.1986 -1.5127 -1.0167
 8435TIP3    H246797   6.287   2.031   1.354  1.9623 -2.3209 -1.7573
 8436TIP3   OH246798   3.641   6.418  15.871  0.0994  0.3835 -0.8956
 8436TIP3    H146799   3.714   6.402  15.930  0.2555 -0.1209 -1.2183
 8436TIP3    H246800   3.657   6.360  15.796 -1.3799 -0.8443 -0.3214
 8437TIP3   OH246801   1.722   0.269  15.071 -0.0954 -0.3565 -0.2138
 8437TIP3    H146802   1.677   0.341  15.116 -0.4489  0.1681 -1.3679
 8437TIP3    H246803   1.651   0.216  15.035  0.1134 -2.0227  1.6567
 8438TIP3   OH246804   0.913   1.070   2.059 -0.3503  0.1170 -0.3816
 8438TIP3    H146805   0.898   1.140   2.124 -0.2732  0.8791 -1.1661
 8438TIP3    H246806   1.007   1.072   2.044 -0.2517 -0.6291  0.0990
 8439TIP3   OH246807   6.372   6.497   6.748  0.1913  0.1206 -0.5622
 8439TIP3    H146808   6.442   6.512   6.812  1.5743  0.6570 -2.1338
 8439TIP3    H246809   6.382   6.405   6.722  2.0747  0.8428 -2.6944
 8440TIP3   OH246810   0.913   4.479   3.516 -0.6228 -0.3329 -0.2995
 8440TIP3    H146811   0.902   4.421   3.592  0.1831 -0.2139 -0.0772
 8440TIP3    H246812   1.007   4.499   3.515 -0.5546 -0.6246 -1.5543
 8441TIP3   OH246813   1.832   6.775   2.892 -0.1780  0.0675  0.5501
 8441TIP3    H146814   1.919   6.814   2.886 -0.5222  0.9848  1.1440
 8441TIP3    H246815   1.777   6.831   2.837 -0.4796 -0.1998  0.5797
 8442TIP3   OH246816   0.615   3.360   6.034 -0.0905 -0.0343  0.7264
 8442TIP3    H146817   0.596   3.349   5.941 -1.0616  1.3296  0.7380
 8442TIP3    H246818   0.559   3.432   6.062  0.1954 -0.4083  2.3774
 8443TIP3   OH246819   0.672   6.630  13.425  0.1344 -0.0508 -0.1460
 8443TIP3    H146820   0.681   6.722  13.400  2.4329 -0.1170  0.2031
 8443TIP3    H246821   0.752   6.611  13.475 -0.4684 -2.1381  0.1235
 8444TIP3   OH246822   5.386   3.646   1.156 -0.0541  0.6111  0.1753
 8444TIP3    H146823   5.402   3.583   1.227 -0.3051 -0.1362 -0.4192
 8444TIP3    H246824   5.296   3.629   1.129 -0.0651  1.1130 -0.1131
 8445TIP3   OH246825   4.754   4.382  12.673  0.2716  0.1296 -0.3244
 8445TIP3    H146826   4.768   4.328  12.595  1.2895 -1.6178  0.9658
 8445TIP3    H246827   4.677   4.345  12.715  0.4184  0.2808  0.0903
 8446TIP3   OH246828   4.255   1.043   6.017 -0.1985 -0.4280  0.4070
 8446TIP3    H146829   4.262   1.032   6.112 -0.3675 -0.6905  0.3899
 8446TIP3    H246830   4.334   1.091   5.993 -0.7647  0.7391  0.8416
 8447TIP3   OH246831   2.152   1.448   3.109 -0.6388 -0.3729  0.0987
 8447TIP3    H146832   2.113   1.517   3.055  1.0599 -0.3891 -1.2280
 8447TIP3    H246833   2.150   1.484   3.198 -1.0256  0.8159 -0.3643
 8448TIP3   OH246834   0.027   6.178  16.145  0.3135 -0.2452  0.4584
 8448TIP3    H146835  -0.049   6.124  16.169  0.0983 -0.8884 -1.5107
 8448TIP3    H246836   0.001   6.267  16.167 -0.3793 -0.6446  1.2966
 8449TIP3   OH246837   1.739   2.013   2.387 -0.3009  0.3608  0.1215
 8449TIP3    H146838   1.760   2.082   2.325 -3.2753 -0.5041 -2.0808
 8449TIP3    H246839   1.643   2.010   2.389 -0.3367 -3.4328  0.3164
 8450TIP3   OH246840   3.054   4.148   0.193  0.1558 -0.1969 -0.5173
 8450TIP3    H146841   3.114   4.211   0.151  0.0269  0.0660 -0.3011
 8450TIP3    H246842   3.107   4.068   0.200  0.2102 -0.2246 -1.1080
 8451TIP3   OH246843   6.193   2.709   4.942 -0.0079 -1.0764 -0.3011
 8451TIP3    H146844   6.153   2.795   4.934 -0.3754 -1.1319  0.7034
 8451TIP3    H246845   6.257   2.704   4.871  0.6828  0.3906  0.1763
 8452TIP3   OH246846   2.354   1.504   2.826 -0.0365  0.3388  0.5420
 8452TIP3    H146847   2.262   1.530   2.821  0.4561  1.9222 -1.5999
 8452TIP3    H246848   2.378   1.520   2.918 -1.6263  0.7807  0.9188
 8453TIP3   OH246849   5.102   1.026   5.566 -0.5742 -0.1633 -0.4635
 8453TIP3    H146850   5.097   1.115   5.601 -0.0373 -0.2574 -0.1338
 8453TIP3    H246851   5.154   0.978   5.630 -0.0938 -0.4912 -1.0946
 8454TIP3   OH246852   0.329   3.367  14.774 -0.3802  0.4281  0.3057
 8454TIP3    H146853   0.290   3.441  14.727  0.6679  1.9160  1.6386
 8454TIP3    H246854   0.420   3.365  14.744 -1.0034 -2.1714 -1.8003
 8455TIP3   OH246855   4.777   1.483   1.491 -0.0467 -0.2840 -0.0284
 8455TIP3    H146856   4.859   1.456   1.532 -0.1510 -1.8295 -0.7645
 8455TIP3    H246857   4.790   1.465   1.398 -1.4596 -1.2825 -0.0713
 8456TIP3   OH246858   5.725   4.276  11.421 -0.2728  0.1653  0.7005
 8456TIP3    H146859   5.707   4.264  11.514 -0.4459  0.5326  0.7196
 8456TIP3    H246860   5.794   4.213  11.401  1.5198  1.7148  1.6346
 8457TIP3   OH246861   0.863   6.381   2.708  0.4661  0.6961 -0.5863
 8457TIP3    H146862   0.910   6.302   2.735 -1.6790 -0.8648 -1.1397
 8457TIP3    H246863   0.844   6.428   2.789 -1.7635 -1.5048  0.2923
 8458TIP3   OH246864   6.379   5.341  12.778  0.0039 -0.6203  0.1953
 8458TIP3    H146865   6.424   5.259  12.758  1.6568  0.9004 -3.2122
 8458TIP3    H246866   6.423   5.374  12.856  2.9574 -0.6088 -1.3397
 8459TIP3   OH246867   3.139   5.452  14.768 -0.0760  0.2533  0.2618
 8459TIP3    H146868   3.107   5.378  14.819  0.9523 -0.4816 -0.1305
 8459TIP3    H246869   3.157   5.416  14.681 -1.3239  1.3812 -0.4949
 8460TIP3   OH246870   2.041   6.740   5.357  0.1551 -0.1431 -0.2360
 8460TIP3    H146871   2.073   6.739   5.447 -2.2845  1.5297  0.7632
 8460TIP3    H246872   2.049   6.649   5.328  3.3598 -0.2769  0.6909
 8461TIP3   OH246873   0.187   3.606  16.760  0.0199  0.5721  0.6156
 8461TIP3    H146874   0.107   3.647  16.793 -0.1262  1.0275 -0.2616
 8461TIP3    H246875   0.160   3.564  16.678 -0.4155 -3.4387  2.5747
 8462TIP3   OH246876   1.196   3.378  14.380  0.3272  0.0496 -0.3864
 8462TIP3    H146877   1.129   3.443  14.361 -0.7853 -0.6320  1.1029
 8462TIP3    H246878   1.189   3.315  14.308  1.5891  1.6232 -1.9855
 8463TIP3   OH246879   6.183   5.874   1.545  0.1577  0.5105 -0.3476
 8463TIP3    H146880   6.197   5.911   1.458 -0.9428  0.2502 -0.6458
 8463TIP3    H246881   6.261   5.900   1.595  1.0657  0.1809 -1.5631
 8464TIP3   OH246882   3.134   3.195  11.854  0.0043 -0.5016  0.4810
 8464TIP3    H146883   3.142   3.242  11.937 -1.0576  0.7070 -0.0631
 8464TIP3    H246884   3.046   3.217  11.822 -0.0643 -1.9170 -0.3869
 8465TIP3   OH246885   2.881   5.590   4.620 -0.1218 -0.6271 -0.4793
 8465TIP3    H146886   2.941   5.537   4.673 -0.6247 -1.5006 -0.7489
 8465TIP3    H246887   2.919   5.677   4.620  0.3140 -0.8011  0.6434
 8466TIP3   OH246888   6.394   2.188  12.547  0.1910  0.2052  0.6100
 8466TIP3    H146889   6.331   2.116  12.551  1.7282 -1.1511  2.0668
 8466TIP3    H246890   6.443   2.172  12.466 -0.3942  0.4459  0.2037
 8467TIP3   OH246891   4.921   4.746  17.183 -0.6584  0.1158 -0.8941
 8467TIP3    H146892   5.011   4.762  17.153 -0.2569 -0.5766 -0.0980
 8467TIP3    H246893   4.899   4.824  17.234  0.1717 -0.4641  0.4173
 8468TIP3   OH246894   1.909   1.741  11.598  0.6969 -0.4186  0.1490
 8468TIP3    H146895   1.818   1.764  11.581  0.9098 -0.6856 -1.4766
 8468TIP3    H246896   1.947   1.725  11.512  2.3821  0.0260  0.7668
 8469TIP3   OH246897   6.396   2.074  11.028 -0.3774 -0.9539  0.2167
 8469TIP3    H146898   6.388   2.166  11.055 -0.9459 -1.0293  0.3159
 8469TIP3    H246899   6.399   2.025  11.110 -1.0634 -1.1022  0.1550
 8470TIP3   OH246900   6.612   1.980  16.169 -0.0287  0.8153  0.4546
 8470TIP3    H146901   6.627   1.916  16.239  0.3272  0.5556  0.1412
 8470TIP3    H246902   6.534   2.029  16.198 -1.0328 -0.5473  0.1265
 8471TIP3   OH246903   1.260   4.921  15.450  0.2598 -0.0685  0.2992
 8471TIP3    H146904   1.292   4.834  15.429  0.7684  0.1499  0.1640
 8471TIP3    H246905   1.195   4.939  15.381 -0.0508 -0.4458  0.4877
 8472TIP3   OH246906   1.501   1.342   5.398 -0.0901  0.2884  0.4927
 8472TIP3    H146907   1.452   1.287   5.336  2.2311  0.0379 -1.2628
 8472TIP3    H246908   1.477   1.432   5.374 -1.8621  0.1677  1.6194
 8473TIP3   OH246909   4.463   1.099   2.780 -0.5355  0.4322  0.0934
 8473TIP3    H146910   4.557   1.097   2.763 -0.6148  0.9017 -0.4473
 8473TIP3    H246911   4.438   1.191   2.766 -1.3246  0.0515 -1.2430
 8474TIP3   OH246912   1.190   1.925   4.187 -0.4405 -0.2019  0.0185
 8474TIP3    H146913   1.194   2.003   4.132 -0.6635  0.4544  0.9053
 8474TIP3    H246914   1.147   1.859   4.133  1.3234 -0.2782 -1.3743
 8475TIP3   OH246915   0.669   0.332   2.353 -0.0023 -0.8042  0.5003
 8475TIP3    H146916   0.709   0.319   2.439  0.1206 -1.4241  0.3555
 8475TIP3    H246917   0.584   0.372   2.372 -0.2983 -1.6350  0.9611
 8476TIP3   OH246918   3.617   0.089  13.273  0.6038  0.2458  0.5476
 8476TIP3    H146919   3.644   0.180  13.276  0.1843  0.3612  1.0375
 8476TIP3    H246920   3.630   0.063  13.182  1.7140  0.4828  0.6201
 8477TIP3   OH246921   2.574   4.436  13.241  0.0227  0.1841 -0.7572
 8477TIP3    H146922   2.549   4.384  13.317  0.3032  0.7651 -0.2588
 8477TIP3    H246923   2.668   4.419  13.230  0.4031  1.5057  0.1651
 8478TIP3   OH246924   0.304   0.753   2.670  0.3055 -0.2338  0.0636
 8478TIP3    H146925   0.347   0.762   2.585 -0.5910 -1.2058 -0.5111
 8478TIP3    H246926   0.287   0.843   2.697  0.7570  0.0932 -0.6995
 8479TIP3   OH246927   4.150   5.516   5.591  0.5385  0.0278  0.2790
 8479TIP3    H146928   4.153   5.606   5.623  1.9358  0.7432 -1.6286
 8479TIP3    H246929   4.099   5.521   5.511 -1.0356 -1.2913  1.1538
 8480TIP3   OH246930   1.103   0.983   0.629  0.3419  0.1546 -0.4366
 8480TIP3    H146931   1.065   1.063   0.592  0.4064  0.7266  0.6848
 8480TIP3    H246932   1.134   1.009   0.716  0.1242 -1.1610  0.0628
 8481TIP3   OH246933   3.130   6.011  14.687 -0.6470 -0.1828 -0.1395
 8481TIP3    H146934   3.123   5.949  14.614  5.1545 -1.2267 -0.3108
 8481TIP3    H246935   3.146   6.096  14.645 -0.9015 -0.0690 -0.0097
 8482TIP3   OH246936   5.435   1.949  11.619  0.0351 -0.4915  0.4382
 8482TIP3    H146937   5.441   1.876  11.558  2.0771 -0.8584  1.0316
 8482TIP3    H246938   5.411   1.909  11.702 -0.1333 -0.3106  0.4781
 8483TIP3   OH246939   5.216   1.916  14.270 -0.2533 -0.3210  0.1144
 8483TIP3    H146940   5.223   1.823  14.250  0.1647 -0.1658 -0.4790
 8483TIP3    H246941   5.287   1.933  14.332 -1.0821 -0.6421  1.1834
 8484TIP3   OH246942   2.580   6.223   6.509  0.8330 -0.1098  1.0862
 8484TIP3    H146943   2.657   6.175   6.539  1.9327  1.9508  1.7832
 8484TIP3    H246944   2.610   6.313   6.500 -0.0696 -0.0254 -3.8316
 8485TIP3   OH246945   6.678   3.859   4.121  0.3232 -0.3086 -0.5800
 8485TIP3    H146946   6.736   3.881   4.048  0.2991  0.2623 -0.4289
 8485TIP3    H246947   6.719   3.898   4.198  0.1962 -0.6591 -0.3304
 8486TIP3   OH246948   1.935   3.041   2.232 -0.0941  0.3252  0.4542
 8486TIP3    H146949   2.000   2.971   2.234 -0.1268  0.2937  2.3311
 8486TIP3    H246950   1.981   3.117   2.267  0.4003  1.7620 -2.8976
 8487TIP3   OH246951   0.732   1.440   3.265  0.0632  0.3820 -0.1463
 8487TIP3    H146952   0.805   1.388   3.231 -0.4633  0.5127 -1.5188
 8487TIP3    H246953   0.675   1.377   3.308  1.1008  0.3131  1.2214
 8488TIP3   OH246954   5.801   2.692   2.275  0.0594  0.6221  0.8131
 8488TIP3    H146955   5.778   2.641   2.354  0.3665  0.3860  0.7503
 8488TIP3    H246956   5.895   2.680   2.266 -0.2067 -0.7645 -0.5535
 8489TIP3   OH246957   4.199   3.562   2.563 -0.3305 -0.3866  0.4140
 8489TIP3    H146958   4.155   3.567   2.478 -0.0797  3.5456  0.2961
 8489TIP3    H246959   4.293   3.563   2.541 -0.2615 -0.4086  0.7021
 8490TIP3   OH246960   0.259   3.894   3.694 -0.0696 -1.0568 -0.4697
 8490TIP3    H146961   0.312   3.888   3.615 -1.0114  0.8725 -1.3121
 8490TIP3    H246962   0.169   3.885   3.663 -0.3793 -2.0746  0.6461
 8491TIP3   OH246963   6.095   0.740   5.474  0.0109 -0.5140 -0.4767
 8491TIP3    H146964   6.129   0.655   5.503 -0.7526 -0.3867  0.9065
 8491TIP3    H246965   6.135   0.755   5.389 -0.7579 -2.8277 -1.3172
 8492TIP3   OH246966   4.479   3.497   3.260 -0.6613  0.0095 -0.0978
 8492TIP3    H146967   4.542   3.515   3.330 -0.5134 -0.1976 -0.1768
 8492TIP3    H246968   4.525   3.520   3.179 -1.1256  1.0547 -0.0778
 8493TIP3   OH246969   1.037   2.988  13.257 -0.4242 -0.1402 -0.8850
 8493TIP3    H146970   1.076   2.977  13.170 -0.7637 -1.8943 -0.8483
 8493TIP3    H246971   0.951   2.946  13.250 -0.0673 -1.1647  0.5564
 8494TIP3   OH246972   5.273   6.524  12.904  0.5137 -0.4694 -0.3331
 8494TIP3    H146973   5.357   6.557  12.935  0.6572 -1.3126  0.1929
 8494TIP3    H246974   5.228   6.494  12.984 -0.9385  1.3839 -0.3799
 8495TIP3   OH246975   4.255   3.876  12.153  0.0601  0.8380  0.3916
 8495TIP3    H146976   4.329   3.897  12.096  0.5129  0.5977  0.8788
 8495TIP3    H246977   4.179   3.878  12.095  0.5217  0.5009 -0.2414
 8496TIP3   OH246978   6.273   6.111  14.994 -0.1566 -0.2638  0.0663
 8496TIP3    H146979   6.247   6.048  14.926  1.0553 -0.6829 -0.0400
 8496TIP3    H246980   6.343   6.162  14.953 -0.7021  0.7627  0.3673
 8497TIP3   OH246981   0.030   1.558   2.131 -0.2963 -0.1012 -0.2483
 8497TIP3    H146982   0.024   1.522   2.219 -0.3814 -0.2761 -0.3266
 8497TIP3    H246983  -0.061   1.569   2.103 -0.2799  0.6199 -0.0405
 8498TIP3   OH246984   2.726   0.644   5.043 -0.1094 -0.3647  1.1281
 8498TIP3    H146985   2.723   0.549   5.052  2.4621 -0.3771  2.6779
 8498TIP3    H246986   2.693   0.678   5.126 -0.0722  0.0586  0.9738
 8499TIP3   OH246987   1.070   1.038   2.535  0.0471  0.0690 -0.3553
 8499TIP3    H146988   0.994   1.032   2.593  0.8863  1.9067  1.0554
 8499TIP3    H246989   1.146   1.031   2.594  0.9321  2.4060 -1.0911
 8500TIP3   OH246990   3.683   6.043  13.458  0.3176 -0.1691 -0.1973
 8500TIP3    H146991   3.599   6.083  13.437 -0.3559 -0.8797  1.0110
 8500TIP3    H246992   3.738   6.115  13.488 -0.8953 -0.0699  2.0187
 8501TIP3   OH246993   2.900   3.742  12.682  0.1386  0.6253  0.2718
 8501TIP3    H146994   2.882   3.653  12.654  1.0914  0.7880 -0.9025
 8501TIP3    H246995   2.824   3.792  12.653 -1.1011 -0.0132  2.2222
 8502TIP3   OH246996   4.733   0.173  12.951  0.1269 -0.0913 -0.0014
 8502TIP3    H146997   4.737   0.162  13.046 -2.1743  0.7973  0.2594
 8502TIP3    H246998   4.670   0.107  12.922  0.3568  0.0507 -0.8410
 8503TIP3   OH246999   5.172   5.987  12.536 -0.1057  0.2781 -0.0135
 8503TIP3    H147000   5.131   5.910  12.497 -0.8200  0.7969 -0.3077
 8503TIP3    H247001   5.102   6.028  12.587  0.4852  0.2959  0.8090
 8504TIP3   OH247002   4.061   1.205  13.813 -0.7803 -0.4425 -0.2132
 8504TIP3    H147003   4.118   1.216  13.889 -1.5110 -1.1992  0.4628
 8504TIP3    H247004   4.020   1.291  13.801  0.2957  0.0448 -0.5636
 8505TIP3   OH247005   4.651   5.048   4.942  0.5850 -0.4373  0.0113
 8505TIP3    H147006   4.589   4.975   4.941 -0.4453  0.4187  0.3895
 8505TIP3    H247007   4.691   5.046   4.855 -1.6738  0.4012 -1.1163
 8506TIP3   OH247008   2.860   4.841  16.275 -0.1344 -0.1713  0.0240
 8506TIP3    H147009   2.852   4.843  16.180  0.2243 -1.4370 -0.0515
 8506TIP3    H247010   2.832   4.753  16.300 -2.3418  0.8203  1.3292
 8507TIP3   OH247011   1.207   5.779  14.328  0.8039 -0.2948  0.1494
 8507TIP3    H147012   1.255   5.712  14.279  1.1665 -0.5591  0.8520
 8507TIP3    H247013   1.259   5.793  14.407  0.7158  0.8017  0.0305
 8508TIP3   OH247014   2.497   3.128   4.794 -0.5745  0.1743 -0.1073
 8508TIP3    H147015   2.579   3.172   4.772 -0.1743 -0.1508  0.6796
 8508TIP3    H247016   2.521   3.036   4.807 -0.6261  0.4166  2.2018
 8509TIP3   OH247017   5.289   2.464  11.262  0.4057  0.3786 -0.6640
 8509TIP3    H147018   5.285   2.376  11.226  1.7365 -0.5839  1.3730
 8509TIP3    H247019   5.207   2.473  11.312 -0.1164  0.6553 -1.5347
 8510TIP3   OH247020   6.544   4.413   0.597 -0.3005  0.2515 -0.3922
 8510TIP3    H147021   6.472   4.475   0.607 -0.1702  0.3633 -0.1366
 8510TIP3    H247022   6.612   4.463   0.551 -0.1423  0.3413 -0.0634
 8511TIP3   OH247023   3.809   2.576  13.407  0.0011 -0.7152  0.3634
 8511TIP3    H147024   3.762   2.659  13.415 -0.5680 -1.0244  0.3017
 8511TIP3    H247025   3.901   2.599  13.421 -0.2211 -0.1760  0.9739
 8512TIP3   OH247026   1.451   4.822  14.797  0.0602 -0.4326 -0.1979
 8512TIP3    H147027   1.441   4.909  14.758 -0.9846  0.3346  1.6499
 8512TIP3    H247028   1.528   4.830  14.854  0.6934 -1.1061 -0.9311
 8513TIP3   OH247029   3.829   3.479   4.452 -0.2642  0.2418  0.2889
 8513TIP3    H147030   3.766   3.528   4.400 -0.7451  1.5752  2.0291
 8513TIP3    H247031   3.904   3.468   4.394 -1.1176  0.8544 -0.9775
 8514TIP3   OH247032   6.553   6.416   1.064  0.0448  0.3252 -0.0403
 8514TIP3    H147033   6.496   6.486   1.097  2.0070  2.2040 -0.4225
 8514TIP3    H247034   6.611   6.460   1.002  1.7589 -1.5343  0.1482
 8515TIP3   OH247035   6.209   2.746   0.549 -0.3931 -0.5478 -0.1310
 8515TIP3    H147036   6.152   2.790   0.613 -2.3182 -1.9361 -0.8189
 8515TIP3    H247037   6.246   2.817   0.498  0.0833  0.5129  1.5900
 8516TIP3   OH247038   4.816   6.693   2.935 -0.1404 -0.2066 -0.4997
 8516TIP3    H147039   4.739   6.733   2.976  0.4473  0.3725  0.0823
 8516TIP3    H247040   4.799   6.599   2.937 -0.8653 -0.0804 -0.4603
 8517TIP3   OH247041   4.544   5.152  17.114 -0.2530  0.0830  0.1722
 8517TIP3    H147042   4.502   5.120  17.035 -0.5242 -0.3395  0.4825
 8517TIP3    H247043   4.487   5.223  17.144 -0.4466 -0.1170  0.2834
 8518TIP3   OH247044   3.408   6.769  11.523 -0.5785  0.4531  0.5970
 8518TIP3    H147045   3.349   6.843  11.512 -2.4307 -1.0001  0.1995
 8518TIP3    H247046   3.425   6.740  11.433  1.3032  1.2231  0.6671
 8519TIP3   OH247047   2.035   5.760  10.979 -0.1208  0.2766 -0.1304
 8519TIP3    H147048   1.971   5.691  10.996 -1.3255  1.3666 -0.1526
 8519TIP3    H247049   2.119   5.714  10.981 -0.9615 -1.4834 -1.6771
 8520TIP3   OH247050   6.632   5.526   2.782  0.4896  0.1912  0.9101
 8520TIP3    H147051   6.723   5.501   2.799  1.6003  0.3800 -3.4504
 8520TIP3    H247052   6.637   5.618   2.757 -0.6764 -0.0648 -0.4028
 8521TIP3   OH247053   3.930   0.718  12.894 -0.2225 -0.3229  0.2412
 8521TIP3    H147054   3.850   0.691  12.848 -1.0322  1.1663  0.7243
 8521TIP3    H247055   3.905   0.797  12.941  1.5064  0.0592  0.5674
 8522TIP3   OH247056   0.254   5.069  13.263 -0.0227 -0.5092 -0.5898
 8522TIP3    H147057   0.173   5.049  13.216 -0.0473 -0.9849 -0.3481
 8522TIP3    H247058   0.323   5.055  13.199 -0.0925 -0.6784 -0.6292
 8523TIP3   OH247059   0.932   2.895  15.776  0.1749  0.3152 -0.4278
 8523TIP3    H147060   0.847   2.895  15.821  0.3740  0.7354 -0.0385
 8523TIP3    H247061   0.985   2.832  15.825  0.4809  0.9791  0.1124
 8524TIP3   OH247062   0.194   1.940   5.142 -0.4216  0.8259  0.0736
 8524TIP3    H147063   0.123   1.973   5.197  1.1195  5.1307 -0.1380
 8524TIP3    H247064   0.170   1.966   5.053  0.4730  0.4549 -0.2913
 8525TIP3   OH247065   6.674   0.004  15.813 -0.4830 -0.1624 -0.0354
 8525TIP3    H147066   6.757  -0.023  15.852 -0.0137  1.9738  0.5717
 8525TIP3    H247067   6.656   0.089  15.853 -2.4247 -0.0947 -0.9729
 8526TIP3   OH247068   5.319   2.697   5.294 -0.0883 -0.3196 -0.4658
 8526TIP3    H147069   5.254   2.767   5.297 -0.6052 -0.7694 -0.9208
 8526TIP3    H247070   5.320   2.669   5.202 -0.1825 -1.1779 -0.2092
 8527TIP3   OH247071   6.117   2.872  17.143  0.2177  0.7838  0.1183
 8527TIP3    H147072   6.201   2.902  17.177  0.7476  0.6871 -1.0649
 8527TIP3    H247073   6.136   2.786  17.105 -0.7546  0.0533  1.2184
 8528TIP3   OH247074   3.944   3.455  12.458 -0.1805  0.2878 -0.3404
 8528TIP3    H147075   3.855   3.490  12.464 -1.2598 -1.8057 -2.2824
 8528TIP3    H247076   3.968   3.465  12.366  3.4291  4.5351  0.7039
 8529TIP3   OH247077   1.796   5.013   2.660  0.2959  0.4255 -0.1240
 8529TIP3    H147078   1.784   5.094   2.610  1.1368  1.5808  1.4205
 8529TIP3    H247079   1.749   4.946   2.611 -1.1664  2.0365 -1.0253
 8530TIP3   OH247080   1.808   3.572  15.517 -0.1570  0.1347 -0.1562
 8530TIP3    H147081   1.830   3.662  15.492 -0.9734 -0.1428 -2.0362
 8530TIP3    H247082   1.846   3.518  15.447  1.3693 -1.1303  1.5364
 8531TIP3   OH247083   0.383   1.034  11.915  0.4262  0.6605  0.1242
 8531TIP3    H147084   0.341   1.015  11.831  1.6159 -1.5511 -0.0454
 8531TIP3    H247085   0.429   1.116  11.901 -0.7654  1.1938 -0.8299
 8532TIP3   OH247086   2.452   3.611   0.903 -0.7440  0.0590  0.3613
 8532TIP3    H147087   2.440   3.693   0.950  1.6430  0.5335  0.2834
 8532TIP3    H247088   2.454   3.543   0.971  0.1574  0.4370  0.7274
 8533TIP3   OH247089   2.410   3.666  16.332 -0.0855  0.1423 -0.1648
 8533TIP3    H147090   2.397   3.723  16.407  3.0834  0.3437  0.3846
 8533TIP3    H247091   2.497   3.690  16.299 -0.3488 -1.6431 -2.3663
 8534TIP3   OH247092   1.940   1.691  15.084 -0.0610 -0.0054 -0.1237
 8534TIP3    H147093   1.911   1.703  14.994 -1.2017 -1.0129  0.0812
 8534TIP3    H247094   1.860   1.673  15.133  0.1796  2.8977  1.5847
 8535TIP3   OH247095   3.548   4.733  14.618 -0.3246 -0.3212 -0.1806
 8535TIP3    H147096   3.580   4.728  14.708  0.5151  0.6900 -0.3981
 8535TIP3    H247097   3.486   4.661  14.610  0.7204 -1.3700  0.7610
 8536TIP3   OH247098   5.547   2.446   2.629 -0.2234 -0.1724  0.6057
 8536TIP3    H147099   5.552   2.521   2.688 -0.4325  0.4018 -0.1022
 8536TIP3    H247100   5.454   2.433   2.614 -0.2508 -1.2733  1.5911
 8537TIP3   OH247101   2.715   3.667  15.124 -0.4019 -0.0243  0.3805
 8537TIP3    H147102   2.719   3.757  15.092  1.3516 -0.6158 -1.2771
 8537TIP3    H247103   2.696   3.615  15.046  0.1237 -1.2249  1.0280
 8538TIP3   OH247104   1.021   4.659  15.503 -0.4797  0.1084 -0.0389
 8538TIP3    H147105   1.102   4.664  15.452  0.0078  0.2378  0.7202
 8538TIP3    H247106   1.006   4.565  15.515  0.3637  0.0837  1.0247
 8539TIP3   OH247107   2.877   0.543   2.939 -0.4642 -0.2991 -0.1290
 8539TIP3    H147108   2.968   0.521   2.919 -0.5086 -0.2490 -0.3863
 8539TIP3    H247109   2.883   0.605   3.012 -0.3365 -1.1133  0.5793
 8540TIP3   OH247110   4.311   2.213   5.796 -0.6248 -0.8617 -0.6888
 8540TIP3    H147111   4.322   2.226   5.702 -2.1604  0.9753 -0.6566
 8540TIP3    H247112   4.391   2.250   5.835 -1.0192  0.5472 -1.1620
 8541TIP3   OH247113   5.916   0.734  10.246 -0.1913  0.2135 -0.7345
 8541TIP3    H147114   5.944   0.716  10.335 -1.3417 -1.7873 -0.7186
 8541TIP3    H247115   5.854   0.807  10.254  0.9224  1.1347 -0.1506
 8542TIP3   OH247116   3.606   2.649  10.488  0.4991 -0.6907 -0.2121
 8542TIP3    H147117   3.521   2.683  10.516  0.5255 -0.9593  0.2041
 8542TIP3    H247118   3.670   2.712  10.521  0.3548  0.8682 -2.6103
 8543TIP3   OH247119   3.404   5.951  13.851 -0.3523 -0.2071 -0.0216
 8543TIP3    H147120   3.389   5.939  13.757  1.5904  1.5188 -0.6231
 8543TIP3    H247121   3.338   6.014  13.878 -2.8640 -2.8378  0.5466
 8544TIP3   OH247122   0.798   3.909  15.061 -0.0605  0.2508 -0.3948
 8544TIP3    H147123   0.732   3.853  15.103 -0.3156  0.0849 -0.9951
 8544TIP3    H247124   0.754   3.944  14.983 -0.3562  2.3999  0.6793
 8545TIP3   OH247125   3.395   6.585  11.743 -0.0990 -0.1442  0.1198
 8545TIP3    H147126   3.310   6.563  11.704 -1.1898  1.3668  1.5298
 8545TIP3    H247127   3.423   6.664  11.697 -1.1207  1.3190  1.9096
 8546TIP3   OH247128   1.642   0.128   1.486 -0.1641  0.3503  0.6458
 8546TIP3    H147129   1.702   0.122   1.412  0.1830 -0.8684  0.9994
 8546TIP3    H247130   1.632   0.037   1.516 -1.5380  0.6345  1.1082
 8547TIP3   OH247131   3.380   3.014   6.529  0.3156 -0.5602  0.1087
 8547TIP3    H147132   3.416   2.997   6.442  0.8627 -0.2802  0.2714
 8547TIP3    H247133   3.339   3.100   6.522  2.0243  0.3490  0.5981
 8548TIP3   OH247134   6.802   6.227  16.838  0.2770 -0.7958 -0.1531
 8548TIP3    H147135   6.808   6.187  16.751 -0.3609 -1.1926 -0.0187
 8548TIP3    H247136   6.747   6.167  16.889 -2.9109  1.4084 -0.6718
 8549TIP3   OH247137   3.145   5.234  16.832  0.1484  0.0755 -0.6013
 8549TIP3    H147138   3.240   5.244  16.825  0.2241 -1.0037 -1.2649
 8549TIP3    H247139   3.110   5.318  16.800  0.8855  1.0618  1.0401
 8550TIP3   OH247140   5.917   4.281  13.874  0.7481 -0.1854  0.2866
 8550TIP3    H147141   5.885   4.360  13.916 -0.5533 -0.2307 -0.5767
 8550TIP3    H247142   5.852   4.214  13.893 -0.7069  0.1344 -2.9062
 8551TIP3   OH247143   1.291   5.141   4.325 -0.2937  0.3473  0.2175
 8551TIP3    H147144   1.225   5.161   4.391 -1.2488  0.1508 -0.6698
 8551TIP3    H247145   1.301   5.222   4.275 -0.9032 -0.0471 -0.5490
 8552TIP3   OH247146   0.580   5.534   3.114 -0.3069  0.3140 -0.2757
 8552TIP3    H147147   0.540   5.450   3.140  0.4181  0.7578  2.7016
 8552TIP3    H247148   0.667   5.511   3.083 -0.7009 -0.1608 -1.0452
 8553TIP3   OH247149   3.668   5.387  11.758 -0.6502 -0.6549  0.1044
 8553TIP3    H147150   3.648   5.317  11.695 -0.2195 -1.3847  0.7591
 8553TIP3    H247151   3.682   5.465  11.704  2.1923 -1.7666 -0.9537
 8554TIP3   OH247152   4.194   3.250  14.478  0.1912  0.0898  1.1602
 8554TIP3    H147153   4.270   3.246  14.535  0.6978  1.0572  0.5766
 8554TIP3    H247154   4.226   3.219  14.393 -0.1837  0.0224  1.0418
 8555TIP3   OH247155   3.048   6.604  15.090 -0.1222 -0.0540 -0.2000
 8555TIP3    H147156   2.997   6.627  15.168  0.6312  0.7589  0.0681
 8555TIP3    H247157   3.002   6.647  15.018 -0.6673 -0.5849 -0.1815
 8556TIP3   OH247158   0.338   5.938   3.252 -0.4165 -0.0204 -0.0256
 8556TIP3    H147159   0.315   5.909   3.340 -0.2306  0.6067  0.2418
 8556TIP3    H247160   0.403   5.876   3.222 -0.0429  0.0980  0.5199
 8557TIP3   OH247161   5.281   5.159   2.135 -0.2809  0.0199 -0.4962
 8557TIP3    H147162   5.329   5.203   2.204 -0.6708 -0.9245  0.4080
 8557TIP3    H247163   5.306   5.205   2.054  0.8372  0.5824  0.1555
 8558TIP3   OH247164   6.598   0.797   3.886 -0.3848  0.9932 -0.3889
 8558TIP3    H147165   6.554   0.870   3.842 -0.4262  0.6898 -0.8562
 8558TIP3    H247166   6.568   0.802   3.977 -0.0581  1.8086 -0.3234
 8559TIP3   OH247167   1.694   4.941  13.366 -0.4958  0.8524  0.4464
 8559TIP3    H147168   1.617   4.885  13.373 -0.0562  0.1109 -0.4042
 8559TIP3    H247169   1.659   5.029  13.355 -1.2083  1.0282  3.2877
 8560TIP3   OH247170   6.429   1.040  13.785 -0.2818 -0.1997 -0.6741
 8560TIP3    H147171   6.477   0.966  13.747  0.8569  0.3380 -0.3148
 8560TIP3    H247172   6.338   1.010  13.789  0.3065 -2.0064  0.4764
 8561TIP3   OH247173   6.365   1.074   4.236 -0.1695  0.8719  0.0630
 8561TIP3    H147174   6.343   1.078   4.329  1.6991 -1.4718  0.6998
 8561TIP3    H247175   6.320   0.995   4.205  2.2968 -0.6041 -0.0021
 8562TIP3   OH247176   3.713   4.013   5.715  0.1923 -0.0549 -0.2002
 8562TIP3    H147177   3.689   4.090   5.664  3.0667  0.8960 -0.3126
 8562TIP3    H247178   3.707   3.940   5.653  0.2456  0.5455 -0.9238
 8563TIP3   OH247179   2.540   5.619   1.219  0.1701 -0.0960  0.3791
 8563TIP3    H147180   2.520   5.619   1.126 -2.0181 -0.8851  0.7931
 8563TIP3    H247181   2.525   5.709   1.247 -1.9284 -0.4208  0.4468
 8564TIP3   OH247182   5.344   6.023   5.499 -0.0588  0.1553 -0.3691
 8564TIP3    H147183   5.254   5.992   5.496  0.2405 -1.0385  1.2555
 8564TIP3    H247184   5.368   6.018   5.592  1.5411  0.8831 -0.6981
 8565TIP3   OH247185   2.156   4.798   4.622  0.2936 -0.4604 -0.4123
 8565TIP3    H147186   2.222   4.817   4.689  0.5557 -1.8654 -0.2377
 8565TIP3    H247187   2.085   4.756   4.670  0.4476 -1.3984 -0.9827
 8566TIP3   OH247188   4.112   3.281   4.456 -0.5755  0.0528  0.2790
 8566TIP3    H147189   4.185   3.288   4.518 -0.3508 -0.1822  0.0419
 8566TIP3    H247190   4.122   3.358   4.399 -0.1536 -0.2993 -0.1328
 8567TIP3   OH247191   5.202   5.739  14.508  0.9392 -0.3575  0.9181
 8567TIP3    H147192   5.260   5.757  14.582  0.0974  0.2346  1.4511
 8567TIP3    H247193   5.251   5.769  14.431  1.8628 -1.0687  1.2027
 8568TIP3   OH247194   3.330   1.629  15.845 -0.3595 -0.2210  0.2331
 8568TIP3    H147195   3.368   1.680  15.916 -2.7922  4.8987 -1.6265
 8568TIP3    H247196   3.250   1.591  15.883 -0.0955 -0.0803  0.9398
 8569TIP3   OH247197   3.840   1.115   3.876 -0.3023 -0.1145  0.2864
 8569TIP3    H147198   3.813   1.064   3.799  0.7287  0.3730 -0.4251
 8569TIP3    H247199   3.811   1.063   3.950 -2.7841  0.1842 -0.3956
 8570TIP3   OH247200   4.519   0.131   4.997  0.7682 -0.4219 -0.3420
 8570TIP3    H147201   4.559   0.065   5.053  0.8665 -0.3349 -0.3095
 8570TIP3    H247202   4.509   0.088   4.912  0.3921 -0.6347 -0.1938
 8571TIP3   OH247203   2.812   6.674   4.519 -0.4887 -0.5169  0.2359
 8571TIP3    H147204   2.741   6.695   4.458 -0.2959  2.9098  0.9928
 8571TIP3    H247205   2.774   6.689   4.605  0.4269 -1.2760  0.7857
 8572TIP3   OH247206   2.826   4.152  12.856 -0.1986  0.3348 -0.0967
 8572TIP3    H147207   2.882   4.228  12.873 -0.3562  0.9976 -2.1638
 8572TIP3    H247208   2.869   4.079  12.900  1.4383  1.1303 -0.2935
 8573TIP3   OH247209   5.738   2.183  12.097 -0.2619 -0.0981  0.0853
 8573TIP3    H147210   5.822   2.153  12.131 -0.0777 -0.3775 -0.6056
 8573TIP3    H247211   5.703   2.107  12.050  0.2411  0.7707 -1.7670
 8574TIP3   OH247212   2.125   6.399   4.153  0.2639  0.5688  0.4735
 8574TIP3    H147213   2.173   6.482   4.158  1.4479 -0.0295 -0.5295
 8574TIP3    H247214   2.186   6.338   4.111 -1.3176 -0.2721 -0.7195
 8575TIP3   OH247215   3.690   5.747   1.287  0.6720  0.0117 -0.3063
 8575TIP3    H147216   3.595   5.742   1.300  0.6419  1.1314  0.0260
 8575TIP3    H247217   3.719   5.656   1.284 -0.1812 -0.3456  1.3742
 8576TIP3   OH247218   6.691   4.028  11.781  0.0568 -0.6034  0.9712
 8576TIP3    H147219   6.770   4.070  11.815 -0.7634  0.8091  1.2002
 8576TIP3    H247220   6.720   3.939  11.758  2.1399  0.3627 -0.5549
 8577TIP3   OH247221   4.612   5.217  14.593  0.4226 -0.3267  0.3128
 8577TIP3    H147222   4.521   5.229  14.620  0.8779  0.6927  1.4980
 8577TIP3    H247223   4.606   5.178  14.505 -1.1463 -0.1252  0.2998
 8578TIP3   OH247224   4.531   3.951  16.791 -0.1357  0.3106  0.0495
 8578TIP3    H147225   4.465   4.018  16.805 -0.4699  0.4783 -2.0095
 8578TIP3    H247226   4.481   3.869  16.783  0.1018  0.1044  0.6400
 8579TIP3   OH247227   2.366   2.694   1.879 -0.6320  0.5006 -0.2381
 8579TIP3    H147228   2.306   2.625   1.907 -0.8664  0.5282 -0.6606
 8579TIP3    H247229   2.441   2.687   1.938  0.3686 -1.5621 -1.6215
 8580TIP3   OH247230   6.370   4.632   0.581 -0.0601 -0.0876 -0.2453
 8580TIP3    H147231   6.444   4.639   0.521 -0.7569  0.4651 -1.0576
 8580TIP3    H247232   6.379   4.707   0.639  1.6261 -1.5691  1.5642
 8581TIP3   OH247233   0.047   3.490   1.940  0.2530  0.2552  0.5500
 8581TIP3    H147234   0.087   3.553   1.880  0.5306 -1.0500 -0.6763
 8581TIP3    H247235  -0.027   3.537   1.977 -0.2355  0.9497 -1.1950
 8582TIP3   OH247236   6.159   1.051   4.812  0.0748  0.7048  0.3820
 8582TIP3    H147237   6.249   1.082   4.822 -0.1104  1.0479  1.0631
 8582TIP3    H247238   6.165   0.956   4.822  0.4289  0.6710 -0.1132
 8583TIP3   OH247239   5.059   4.414  14.972  0.5823 -0.4375 -0.1179
 8583TIP3    H147240   5.137   4.360  14.979 -0.5886 -2.1957  0.1400
 8583TIP3    H247241   5.029   4.401  14.882  0.4418  0.0176 -0.1380
 8584TIP3   OH247242   2.603   3.282   5.102  0.0312  0.1893 -0.2495
 8584TIP3    H147243   2.609   3.193   5.067 -1.9391 -0.6969  1.4227
 8584TIP3    H247244   2.617   3.339   5.026 -0.6023 -1.5757 -1.7603
 8585TIP3   OH247245   6.245   2.677  16.988 -0.0329  0.4805  0.0482
 8585TIP3    H147246   6.321   2.661  16.932 -0.2828 -1.1008  0.1131
 8585TIP3    H247247   6.250   2.609  17.055 -1.1995  0.7100  0.3876
 8586TIP3   OH247248   5.704   4.657   4.251  0.0293  0.1509  0.2172
 8586TIP3    H147249   5.785   4.677   4.205 -1.7476  2.0094 -2.3551
 8586TIP3    H247250   5.661   4.591   4.196 -0.1805 -0.9809  1.6649
 8587TIP3   OH247251   0.602   4.531   5.446 -0.7619  0.3951 -0.3673
 8587TIP3    H147252   0.663   4.584   5.396  1.0642 -0.1424  1.1916
 8587TIP3    H247253   0.544   4.594   5.488  0.5969  1.1331  0.4778
 8588TIP3   OH247254   4.995   5.903  14.200  0.2896 -0.2873  0.1083
 8588TIP3    H147255   5.075   5.916  14.149  0.6110 -0.2626  0.6130
 8588TIP3    H247256   4.986   5.984  14.250  0.5802 -0.7467  0.9113
 8589TIP3   OH247257   1.487   1.361  15.521 -0.0589  0.1157  0.2531
 8589TIP3    H147258   1.576   1.352  15.558 -0.3745 -1.7258  0.6838
 8589TIP3    H247259   1.437   1.293  15.566 -1.5697  0.7725 -0.3994
 8590TIP3   OH247260   6.172   4.036  15.329  0.3082  0.1305 -0.1010
 8590TIP3    H147261   6.077   4.023  15.338  0.1589 -1.3449 -2.8231
 8590TIP3    H247262   6.181   4.114  15.276  0.6652  0.5368  0.5415
 8591TIP3   OH247263   5.932   4.312  15.645  0.1334 -0.4627  0.2293
 8591TIP3    H147264   5.866   4.243  15.633 -0.8826  0.0224  2.5708
 8591TIP3    H247265   5.930   4.361  15.562 -0.1670 -2.3069 -0.9264
 8592TIP3   OH247266   1.655   4.780   1.727 -0.0416 -0.0701  0.2614
 8592TIP3    H147267   1.731   4.751   1.676  2.3333  0.3733  3.2113
 8592TIP3    H247268   1.635   4.867   1.694  0.8186 -0.1616 -0.5354
 8593TIP3   OH247269   6.421   3.232   1.677 -0.1631 -0.2380 -0.9231
 8593TIP3    H147270   6.354   3.167   1.656 -0.7693  0.4662 -1.1961
 8593TIP3    H247271   6.371   3.309   1.706  0.5670 -0.6332  1.6663
 8594TIP3   OH247272   0.513   5.603   2.369  0.3429  0.0275 -0.2712
 8594TIP3    H147273   0.575   5.532   2.387  0.7428  0.1413 -1.1373
 8594TIP3    H247274   0.565   5.670   2.325 -0.6701 -0.5495 -2.5186
 8595TIP3   OH247275   3.816   5.010  15.343 -0.7361  0.1882 -0.2672
 8595TIP3    H147276   3.808   5.071  15.269 -0.2197  0.2808 -0.2469
 8595TIP3    H247277   3.910   5.004  15.360 -0.7061 -1.3001 -0.8330
 8596TIP3   OH247278   6.168   5.729  14.204  0.4857 -0.1247 -0.1364
 8596TIP3    H147279   6.132   5.783  14.275 -0.3720 -0.7546 -0.0860
 8596TIP3    H247280   6.245   5.778  14.175  0.2275  0.6906  0.4969
 8597TIP3   OH247281   6.164   6.072   5.195 -0.6014  0.2825 -0.7799
 8597TIP3    H147282   6.112   6.061   5.275  1.1530 -1.5850  0.1966
 8597TIP3    H247283   6.120   6.018   5.129 -2.4451  2.3645 -1.3599
 8598TIP3   OH247284   4.574   2.499   6.486 -0.2323  0.3657  0.4009
 8598TIP3    H147285   4.549   2.465   6.400 -0.4105  2.0300 -0.2510
 8598TIP3    H247286   4.564   2.425   6.546 -0.8862 -0.6057 -0.8730
 8599TIP3   OH247287   1.353   3.198  12.797 -0.4747  0.6491 -0.1046
 8599TIP3    H147288   1.270   3.152  12.786  0.0697 -0.3915  0.0251
 8599TIP3    H247289   1.402   3.144  12.858  0.4665  1.0424 -0.5015
 8600TIP3   OH247290   1.108   5.246  17.196  0.0712 -0.2847 -0.6963
 8600TIP3    H147291   1.128   5.179  17.262  3.7834  2.5233  1.4898
 8600TIP3    H247292   1.163   5.222  17.121  2.7168  0.9017  0.6953
 8601TIP3   OH247293   0.798   5.753  16.947  0.1745 -0.3548  0.1997
 8601TIP3    H147294   0.842   5.838  16.936  0.0275 -0.1492  1.1062
 8601TIP3    H247295   0.748   5.742  16.866  1.4118 -0.3164 -0.5929
 8602TIP3   OH247296   1.341   1.200   1.003  0.3858  0.2972  0.1009
 8602TIP3    H147297   1.428   1.192   1.043  0.5392 -0.4599 -0.3503
 8602TIP3    H247298   1.345   1.282   0.953  0.0751  1.4251  1.8561
 8603TIP3   OH247299   5.657   3.333   0.664 -0.5332  0.4713  0.1087
 8603TIP3    H147300   5.625   3.290   0.585  0.2268  2.8232 -1.5780
 8603TIP3    H247301   5.584   3.389   0.691 -0.4463  0.3725  0.5595
 8604TIP3   OH247302   2.202   2.885  11.319 -0.0679  0.2357 -0.5701
 8604TIP3    H147303   2.163   2.804  11.354  0.1610  0.5101  0.3569
 8604TIP3    H247304   2.291   2.887  11.355  0.0963  0.6605 -0.9801
 8605TIP3   OH247305   4.544   2.534   0.649  0.3114  0.3449  0.2960
 8605TIP3    H147306   4.532   2.496   0.562  1.6842  1.1084 -0.2477
 8605TIP3    H247307   4.461   2.518   0.693  0.5411 -2.6243 -0.1442
 8606TIP3   OH247308   1.716   4.968  13.768  0.0507  0.2969 -0.5389
 8606TIP3    H147309   1.716   5.059  13.739  0.5673  0.8691  1.1179
 8606TIP3    H247310   1.795   4.930  13.730  1.0637  1.2085  0.5784
 8607TIP3   OH247311   4.526   6.538   5.341  0.3005  0.7029 -0.5678
 8607TIP3    H147312   4.498   6.508   5.427 -3.3983  2.5128 -0.9690
 8607TIP3    H247313   4.613   6.575   5.355 -0.3013  1.1748  2.4460
 8608TIP3   OH247314   1.829   1.367   1.792  0.2676  0.7055 -0.2167
 8608TIP3    H147315   1.913   1.378   1.749 -0.2189  1.1644 -1.0686
 8608TIP3    H247316   1.836   1.283   1.838  0.5753 -0.1239 -1.7324
 8609TIP3   OH247317   1.540   0.788  14.477 -0.0283  0.2965  0.1342
 8609TIP3    H147318   1.598   0.744  14.415 -1.1409  1.5206 -1.9073
 8609TIP3    H247319   1.459   0.737  14.474  0.2251 -0.2226  1.4126
 8610TIP3   OH247320   5.019   2.872  12.986  0.8289  0.3373 -0.3043
 8610TIP3    H147321   4.964   2.841  12.914  2.0538  0.3670 -1.2881
 8610TIP3    H247322   5.060   2.952  12.952 -0.1389  1.5312  1.1864
 8611TIP3   OH247323   5.122   6.460  16.677  0.0429 -0.2534  0.1185
 8611TIP3    H147324   5.198   6.413  16.710 -1.3967 -3.0051 -0.1206
 8611TIP3    H247325   5.119   6.439  16.583 -0.1725  1.0620 -0.1819
 8612TIP3   OH247326   5.259   0.719   0.312 -0.1713 -0.5174  0.4434
 8612TIP3    H147327   5.223   0.712   0.401  0.2833 -2.1669  0.5248
 8612TIP3    H247328   5.351   0.697   0.322  0.8237  2.9247  0.1109
 8613TIP3   OH247329   1.849   3.200  13.771 -0.6074 -0.0012  0.2893
 8613TIP3    H147330   1.849   3.182  13.865 -1.6908  0.2211  0.3450
 8613TIP3    H247331   1.870   3.116  13.730  1.3572  0.2132  0.7500
 8614TIP3   OH247332   2.267   5.038  16.785 -0.5703 -0.3246  0.4745
 8614TIP3    H147333   2.236   5.105  16.725  1.8016 -1.1313 -1.9028
 8614TIP3    H247334   2.301   5.086  16.860 -0.7187  0.9798 -0.2685
 8615TIP3   OH247335   6.314   1.289   3.652  0.3703 -0.4272  0.1470
 8615TIP3    H147336   6.266   1.370   3.670 -0.2663 -0.4234 -1.3905
 8615TIP3    H247337   6.294   1.232   3.727  1.7190  1.1706  1.8032
 8616TIP3   OH247338   2.364   5.165  13.714  0.3935 -0.6815 -0.3381
 8616TIP3    H147339   2.330   5.084  13.676 -0.1528 -0.5772 -0.0813
 8616TIP3    H247340   2.322   5.235  13.663 -2.3940 -0.4561  2.0110
 8617TIP3   OH247341   5.827   2.207   0.243 -0.3432 -0.9726  0.8351
 8617TIP3    H147342   5.867   2.281   0.196 -2.5496  0.4805  1.0803
 8617TIP3    H247343   5.748   2.187   0.192  0.8774 -4.1972 -0.0324
 8618TIP3   OH247344   2.612   4.117  15.914  0.0148  0.2221  0.5165
 8618TIP3    H147345   2.576   4.099  16.001 -0.8979  1.2808  0.3755
 8618TIP3    H247346   2.567   4.056  15.856 -0.2603  0.3360  0.6090
 8619TIP3   OH247347   1.630   1.555  11.371 -0.3233 -0.0738  0.0296
 8619TIP3    H147348   1.689   1.511  11.432  0.7211  0.0205 -0.8857
 8619TIP3    H247349   1.607   1.487  11.307 -2.1053 -0.4149  0.9773
 8620TIP3   OH247350   6.079   0.379   3.519  0.7576 -0.3610 -0.2337
 8620TIP3    H147351   6.088   0.318   3.446  1.6721  0.0686 -0.4935
 8620TIP3    H247352   6.167   0.411   3.534  0.4910 -0.0679  0.7433
 8621TIP3   OH247353   3.559   1.854   4.106  0.3195 -0.0657 -0.3324
 8621TIP3    H147354   3.516   1.863   4.191  0.8114 -1.2969  0.0643
 8621TIP3    H247355   3.652   1.846   4.127  0.7202  1.9232 -1.1411
 8622TIP3   OH247356   4.518   0.319   1.047 -0.4141 -0.1155 -0.2167
 8622TIP3    H147357   4.577   0.265   1.098  0.5948  0.2385 -0.9709
 8622TIP3    H247358   4.496   0.265   0.971 -0.5105  0.0095 -0.2782
 8623TIP3   OH247359   6.302   5.114   1.279  0.3497 -0.2438  0.1889
 8623TIP3    H147360   6.309   5.112   1.375  2.0429 -1.0415  0.0751
 8623TIP3    H247361   6.387   5.084   1.248 -0.1086  0.1982 -1.5866
 8624TIP3   OH247362   2.774   1.557  10.810  0.4245 -0.2973  0.3383
 8624TIP3    H147363   2.708   1.586  10.873  1.9446  1.5774  1.1557
 8624TIP3    H247364   2.799   1.636  10.763  0.6961 -1.3275 -1.3480
 8625TIP3   OH247365   0.278   4.128  11.398  0.3182  0.0965  0.4461
 8625TIP3    H147366   0.370   4.123  11.372 -0.1296 -0.8227 -1.1388
 8625TIP3    H247367   0.232   4.147  11.316 -0.9025  0.6349  1.2344
 8626TIP3   OH247368   2.094   0.394  14.259  0.2173 -0.6937  0.3760
 8626TIP3    H147369   2.101   0.299  14.263 -1.5442 -0.9717 -1.3692
 8626TIP3    H247370   2.178   0.427  14.292  0.5492 -2.8053  1.7948
 8627TIP3   OH247371   6.342   6.689  16.523  0.1137 -0.6775 -0.4607
 8627TIP3    H147372   6.275   6.722  16.462 -1.7933 -1.3202  1.2022
 8627TIP3    H247373   6.362   6.601  16.491 -0.1294 -0.6363 -0.7355
 8628TIP3   OH247374   5.895   2.731   2.936 -0.0303  0.6204 -0.1033
 8628TIP3    H147375   5.933   2.651   2.970 -2.2506 -0.9870 -1.1292
 8628TIP3    H247376   5.859   2.775   3.013 -1.5194 -0.9847  0.1892
 8629TIP3   OH247377   6.225   6.378  12.261 -0.3866 -0.1033  0.2495
 8629TIP3    H147378   6.132   6.355  12.253 -0.0129 -1.8719  0.7068
 8629TIP3    H247379   6.270   6.312  12.209  0.6279  0.9100 -0.2038
 8630TIP3   OH247380   4.492   0.121  15.002 -0.4056 -0.4137 -0.7002
 8630TIP3    H147381   4.518   0.135  15.093 -0.1248 -2.8009 -0.3291
 8630TIP3    H247382   4.461   0.206  14.972  0.5610  0.7016  1.2652
 8631TIP3   OH247383   3.317   4.554  12.162 -0.7795  0.0333  0.1928
 8631TIP3    H147384   3.341   4.546  12.070 -1.3522  1.4311 -0.1080
 8631TIP3    H247385   3.313   4.648  12.177 -0.7001 -0.1764  1.6563
 8632TIP3   OH247386   4.717   6.241  11.513  0.2264  0.0920 -0.5568
 8632TIP3    H147387   4.771   6.204  11.443 -1.1554 -2.3948 -0.4147
 8632TIP3    H247388   4.764   6.219  11.593  0.3193  0.2664 -0.5645
 8633TIP3   OH247389   3.707   6.636  15.548 -0.5897 -0.2780  0.3993
 8633TIP3    H147390   3.772   6.567  15.537  1.1824  1.1324  1.3516
 8633TIP3    H247391   3.650   6.628  15.472  1.1976 -1.0821 -0.9329
 8634TIP3   OH247392   5.090   0.037  10.514 -0.0530  0.5112 -0.1589
 8634TIP3    H147393   5.128  -0.020  10.581 -1.0525  0.2346  0.2005
 8634TIP3    H247394   5.067   0.117  10.561 -2.1833 -0.2524  0.2372
 8635TIP3   OH247395   2.594   6.499  12.496 -0.2718  0.5255  0.3490
 8635TIP3    H147396   2.506   6.483  12.531 -0.2497  0.6831  0.4785
 8635TIP3    H247397   2.580   6.532  12.408 -0.3867  1.6984  0.7932
 8636TIP3   OH247398   0.881   4.097  15.259  0.2340 -0.0802 -0.5691
 8636TIP3    H147399   0.824   4.107  15.335 -0.6662  2.0721 -1.4462
 8636TIP3    H247400   0.826   4.058  15.192  0.2717  0.3741 -0.8733
 8637TIP3   OH247401   2.401   6.277  15.341 -0.5573  0.1174 -0.2760
 8637TIP3    H147402   2.356   6.283  15.426 -0.5394  1.2735 -0.3390
 8637TIP3    H247403   2.493   6.265  15.364 -0.7003 -0.8259 -0.1459
 8638TIP3   OH247404   1.378   3.719  13.688  0.2592  0.4898  0.3451
 8638TIP3    H147405   1.335   3.707  13.772  1.2173 -0.1249  0.7603
 8638TIP3    H247406   1.311   3.695  13.623 -0.0278 -0.4877  0.9777
 8639TIP3   OH247407   1.918   2.737   0.429  0.1949  0.5809  0.5993
 8639TIP3    H147408   2.007   2.704   0.416 -0.0914 -0.0517  0.2357
 8639TIP3    H247409   1.861   2.673   0.386 -0.4542  0.8773  0.9951
 8640TIP3   OH247410   4.259   2.520  14.432 -0.0595  0.1592  0.2883
 8640TIP3    H147411   4.319   2.446  14.447  0.2049  0.7844  2.6886
 8640TIP3    H247412   4.307   2.578  14.374  0.1284 -1.0583 -0.8306
 8641TIP3   OH247413   2.376   3.757  11.368 -0.3929  0.0362 -0.4566
 8641TIP3    H147414   2.326   3.807  11.432 -1.6082 -0.3969 -1.0494
 8641TIP3    H247415   2.369   3.808  11.287 -1.8404 -1.1490 -1.1319
 8642TIP3   OH247416   4.152   5.836  16.716 -0.3612  0.3273 -0.1892
 8642TIP3    H147417   4.185   5.777  16.784 -0.6897  0.7068  0.3075
 8642TIP3    H247418   4.148   5.782  16.638  1.0569  0.1563 -0.1833
 8643TIP3   OH247419   5.721   2.125   0.496  0.4604  0.0086  0.3963
 8643TIP3    H147420   5.642   2.178   0.489 -0.4151 -1.2627  0.4292
 8643TIP3    H247421   5.778   2.156   0.425  0.9412  2.5257  1.7605
 8644TIP3   OH247422   6.615   6.346  11.348  0.1061  0.1672  0.2666
 8644TIP3    H147423   6.589   6.405  11.419  1.5162  2.4038 -0.9724
 8644TIP3    H247424   6.542   6.351  11.286 -0.5549 -0.8157  0.9211
 8645TIP3   OH247425   0.481   2.200  15.956  0.7211 -0.0407  0.1440
 8645TIP3    H147426   0.393   2.163  15.965  0.6789  0.3948  2.1170
 8645TIP3    H247427   0.487   2.227  15.865 -0.9577 -0.6396 -0.1872
 8646TIP3   OH247428   1.504   3.319  14.718  0.0142  0.4839  0.1095
 8646TIP3    H147429   1.574   3.385  14.712 -0.3709  1.1110  2.0168
 8646TIP3    H247430   1.436   3.361  14.770 -2.1885  0.1699 -2.3362
 8647TIP3   OH247431   1.391   1.749   4.273  0.6658  1.1208 -0.6130
 8647TIP3    H147432   1.333   1.815   4.235 -0.5990  0.0872 -0.5254
 8647TIP3    H247433   1.448   1.723   4.201 -1.5864 -0.6881 -1.8852
 8648TIP3   OH247434   6.753   4.489   4.638 -0.2175  0.3577 -0.7989
 8648TIP3    H147435   6.665   4.489   4.602  0.0938 -0.6706 -1.6104
 8648TIP3    H247436   6.809   4.514   4.565  0.0247  3.0099  0.2012
 8649TIP3   OH247437   0.218   5.992   2.703 -0.1999 -0.1425 -0.3151
 8649TIP3    H147438   0.239   5.927   2.636  2.0339  0.9319 -0.7344
 8649TIP3    H247439   0.301   6.009   2.747 -1.0696  1.2517  0.8617
 8650TIP3   OH247440   5.382   0.251  16.849 -0.1354  0.0260 -0.1204
 8650TIP3    H147441   5.306   0.296  16.886  0.1209  0.6576 -0.3608
 8650TIP3    H247442   5.370   0.160  16.875 -1.0674  0.0880 -0.2987
 8651TIP3   OH247443   4.362   2.630  11.504 -0.9358 -0.2943  0.4996
 8651TIP3    H147444   4.296   2.580  11.455 -0.5526 -0.0405 -0.2868
 8651TIP3    H247445   4.326   2.718  11.510 -0.5446 -0.0855 -0.1782
 8652TIP3   OH247446   4.811   6.045   5.636 -0.0688 -0.5419  0.2578
 8652TIP3    H147447   4.897   6.003   5.631  1.1028  1.7437 -0.3615
 8652TIP3    H247448   4.807   6.100   5.558 -0.8323  1.6049  1.7067
 8653TIP3   OH247449   0.403   4.100   5.453  0.1028 -0.3376 -0.3220
 8653TIP3    H147450   0.361   4.150   5.382  0.5446 -0.2628 -0.5334
 8653TIP3    H247451   0.439   4.167   5.511  0.9121 -0.4004 -0.7351
 8654TIP3   OH247452   0.320   5.080  10.757  0.0950  0.4154 -0.2167
 8654TIP3    H147453   0.406   5.086  10.714  0.2161 -0.6219 -0.1460
 8654TIP3    H247454   0.271   5.018  10.703  0.1963 -0.8054  1.0157
 8655TIP3   OH247455   3.618   2.334  14.131 -0.1295  0.4474  0.2324
 8655TIP3    H147456   3.629   2.242  14.158 -3.0962  0.2115  1.1105
 8655TIP3    H247457   3.618   2.383  14.213 -0.0579  1.0027 -0.0997
 8656TIP3   OH247458   1.644   5.702  11.386  0.3878  0.0349  0.0901
 8656TIP3    H147459   1.711   5.770  11.398  1.1830 -0.9944  2.1311
 8656TIP3    H247460   1.685   5.623  11.422 -1.0815 -1.1656 -0.7989
 8657TIP3   OH247461   2.488   5.933  10.701  0.4052 -0.0328 -0.7266
 8657TIP3    H147462   2.415   5.916  10.642 -1.0901  1.4057  0.5810
 8657TIP3    H247463   2.486   5.860  10.763  1.2771 -0.9620 -1.7643
 8658TIP3   OH247464   2.309   2.916  14.213 -0.0903 -0.2566  0.2810
 8658TIP3    H147465   2.321   2.863  14.135  1.1761 -2.1145  1.6481
 8658TIP3    H247466   2.266   2.857  14.276  0.6526  0.5597  1.5959
 8659TIP3   OH247467   4.284   4.487   5.361  0.3674 -0.0443  0.0846
 8659TIP3    H147468   4.298   4.460   5.452 -0.2409 -1.2292 -0.1553
 8659TIP3    H247469   4.347   4.435   5.311  1.3481  1.2811 -0.1015
 8660TIP3   OH247470   4.791   5.204   5.111 -0.2503  0.0762 -0.1627
 8660TIP3    H147471   4.788   5.195   5.207  0.9113  1.3834  0.0161
 8660TIP3    H247472   4.728   5.139   5.080  0.1267 -1.1220  1.4361
 8661TIP3   OH247473   3.171   4.040   3.533 -0.3591  0.6838 -0.1015
 8661TIP3    H147474   3.157   4.008   3.444  0.2384 -0.0220  0.0510
 8661TIP3    H247475   3.183   3.961   3.585  1.4703  1.1459  0.2319
 8662TIP3   OH247476   5.473   0.514   3.611  1.1469  0.4095  0.5168
 8662TIP3    H147477   5.475   0.439   3.550  1.3657  0.9654 -0.1781
 8662TIP3    H247478   5.385   0.551   3.599  1.7119  1.4453 -0.6356
 8663TIP3   OH247479   1.980   2.795  12.445 -0.1287 -0.0609  0.0223
 8663TIP3    H147480   1.940   2.821  12.528 -0.4317  0.0967 -0.1751
 8663TIP3    H247481   2.038   2.722  12.469 -2.2907 -1.9199 -0.0153
 8664TIP3   OH247482   3.425   2.285   4.985  0.3684 -0.0995 -0.7571
 8664TIP3    H147483   3.451   2.193   4.980 -0.2828 -0.3255 -0.0493
 8664TIP3    H247484   3.460   2.324   4.905 -2.3168 -1.7124 -2.8923
 8665TIP3   OH247485   6.268   3.776  14.421  0.1621 -0.5199  0.2100
 8665TIP3    H147486   6.356   3.788  14.383  0.3765 -0.6388  0.6640
 8665TIP3    H247487   6.285   3.740  14.508 -0.3599 -0.9929  0.1167
 8666TIP3   OH247488   2.088   3.634   1.390  0.1012  0.0182 -0.8794
 8666TIP3    H147489   2.059   3.590   1.470 -0.8068  1.0949 -0.5923
 8666TIP3    H247490   2.077   3.568   1.321  1.5912 -1.1706 -0.0518
 8667TIP3   OH247491   1.661   4.182   1.245 -0.1255  0.1818  0.0996
 8667TIP3    H147492   1.575   4.168   1.207 -0.0331 -2.4452  0.6573
 8667TIP3    H247493   1.719   4.124   1.196  0.6995 -0.4026  1.6694
 8668TIP3   OH247494   5.549   5.478   1.228 -0.0679 -0.3770  0.6701
 8668TIP3    H147495   5.487   5.416   1.189 -0.7935  1.9252 -2.1121
 8668TIP3    H247496   5.635   5.443   1.204 -0.4769  0.0330 -1.6887
 8669TIP3   OH247497   5.927   5.976  10.886 -0.4445 -0.1608 -0.0256
 8669TIP3    H147498   5.905   6.066  10.910 -0.0329 -0.5580  1.9953
 8669TIP3    H247499   5.864   5.954  10.817 -1.7594  1.0528  0.7318
 8670TIP3   OH247500   4.762   4.000   5.884  0.3085  0.2295 -0.5318
 8670TIP3    H147501   4.680   4.036   5.918  0.9194  0.0040  1.3220
 8670TIP3    H247502   4.821   4.001   5.960  1.8319 -0.1639 -1.6737
 8671TIP3   OH247503   4.475   4.924   5.212  0.9301 -0.9095  0.0870
 8671TIP3    H147504   4.442   5.008   5.243  0.7828 -1.1150  0.4948
 8671TIP3    H247505   4.435   4.860   5.271  1.1963 -1.2474 -0.1000
 8672TIP3   OH247506   3.599   1.540  16.703 -0.2943  1.0086 -0.2588
 8672TIP3    H147507   3.686   1.511  16.674 -0.1425 -1.1173  1.9609
 8672TIP3    H247508   3.611   1.632  16.723  0.9445  1.2173 -1.7362
 8673TIP3   OH247509   2.810   6.254   0.618 -0.3110  0.6886 -0.4528
 8673TIP3    H147510   2.846   6.301   0.543  1.0453  0.0026 -0.2645
 8673TIP3    H247511   2.827   6.161   0.599 -0.7840  0.4413  0.2783
 8674TIP3   OH247512   3.505   3.238   4.626 -0.0308 -0.4498 -0.0239
 8674TIP3    H147513   3.509   3.181   4.549  0.7367 -1.2008  0.5558
 8674TIP3    H247514   3.592   3.233   4.665 -0.4055 -0.0807  0.8927
 8675TIP3   OH247515   5.331   0.811  13.334 -0.1481  0.3467  0.1643
 8675TIP3    H147516   5.250   0.847  13.371  0.7279 -0.1098  2.7339
 8675TIP3    H247517   5.400   0.842  13.393  1.2462 -1.3017 -0.5150
 8676TIP3   OH247518   0.525   1.618   3.900 -0.7198 -0.0378 -0.2113
 8676TIP3    H147519   0.562   1.657   3.820 -2.0900 -0.5156 -1.1087
 8676TIP3    H247520   0.481   1.691   3.944 -1.5827 -0.1396 -0.8792
 8677TIP3   OH247521   0.189   2.127  15.607  0.0725  0.2094 -0.0995
 8677TIP3    H147522   0.229   2.175  15.534 -0.1275 -0.0011 -0.3477
 8677TIP3    H247523   0.232   2.041  15.605 -0.3028  0.0250 -0.2897
 8678TIP3   OH247524   5.447   1.889  13.405  0.2416 -0.0295 -0.2876
 8678TIP3    H147525   5.451   1.794  13.394  0.2397  0.0393 -0.9397
 8678TIP3    H247526   5.507   1.924  13.338  0.0840  0.4350 -0.1936
 8679TIP3   OH247527   0.543   6.690  15.717 -0.0611  0.4820  0.1864
 8679TIP3    H147528   0.483   6.702  15.791  0.9057  0.7782  0.9488
 8679TIP3    H247529   0.553   6.595  15.709 -0.3049  0.4444  0.3379
 8680TIP3   OH247530   1.581   6.792   3.837  0.1474 -0.2504  0.5359
 8680TIP3    H147531   1.493   6.828   3.841 -0.4381 -1.6442  0.7229
 8680TIP3    H247532   1.569   6.697   3.829  1.6187 -0.4172 -0.1846
 8681TIP3   OH247533   6.252   2.860  15.838 -0.0249  0.1050  0.3010
 8681TIP3    H147534   6.217   2.904  15.761  0.2459  1.0387  0.6893
 8681TIP3    H247535   6.207   2.776  15.840 -0.4679  0.3057 -0.5415
 8682TIP3   OH247536   5.181   4.517   3.377 -0.1438  0.1547  0.6162
 8682TIP3    H147537   5.258   4.467   3.350 -2.9296 -2.4265 -3.6922
 8682TIP3    H247538   5.194   4.604   3.339  0.0994 -0.7309 -1.4703
 8683TIP3   OH247539   2.130   0.653  16.423  0.3100  0.0438  0.4828
 8683TIP3    H147540   2.057   0.591  16.429  1.4961 -1.3089  2.0852
 8683TIP3    H247541   2.100   0.730  16.471 -0.9201  0.4557 -0.9091
 8684TIP3   OH247542   6.355   5.378   1.350 -0.0513 -0.4529 -0.0450
 8684TIP3    H147543   6.345   5.290   1.312  0.1653 -0.5310  0.0760
 8684TIP3    H247544   6.314   5.371   1.436 -0.5153 -0.2848 -0.2497
 8685TIP3   OH247545   4.635   4.153   1.378 -0.4683 -0.4780 -0.0282
 8685TIP3    H147546   4.720   4.177   1.341  0.3702  0.5581  2.3595
 8685TIP3    H247547   4.572   4.174   1.309  0.9728  1.2405 -0.9132
 8686TIP3   OH247548   4.886   0.293  14.836 -0.3480 -0.5136  0.1564
 8686TIP3    H147549   4.950   0.267  14.769 -0.1178  0.9702 -0.2284
 8686TIP3    H247550   4.892   0.224  14.902 -1.4263 -2.6591 -1.8460
 8687TIP3   OH247551   5.157   1.911   5.905 -0.1512 -0.7034  0.0483
 8687TIP3    H147552   5.069   1.899   5.942 -0.4815 -1.5443 -0.9551
 8687TIP3    H247553   5.195   1.824   5.906 -0.1495 -0.7452 -1.4951
 8688TIP3   OH247554   3.696   5.155   6.884 -0.0630 -0.0006 -0.1892
 8688TIP3    H147555   3.661   5.239   6.911  0.7337  0.1370  0.4578
 8688TIP3    H247556   3.783   5.175   6.848  0.3788 -0.5970  0.5069
 8689TIP3   OH247557   1.179   5.379  11.691  0.5245 -0.5308  0.0348
 8689TIP3    H147558   1.125   5.459  11.692  0.6915 -0.3969 -0.9332
 8689TIP3    H247559   1.264   5.409  11.660  0.7336 -1.0021  0.1593
 8690TIP3   OH247560   6.073   4.007  13.509  1.3364  0.6121  1.1469
 8690TIP3    H147561   5.988   3.969  13.532  0.7021 -0.5800 -2.5076
 8690TIP3    H247562   6.136   3.937  13.530  0.9300  0.0346  0.5088
 8691TIP3   OH247563   2.772   2.237   4.493 -0.0565  0.4481 -0.1399
 8691TIP3    H147564   2.807   2.282   4.570 -1.6983 -1.2795  1.7435
 8691TIP3    H247565   2.841   2.244   4.428  1.4508  1.9228  1.5062
 8692TIP3   OH247566   0.168   2.365  12.844 -0.2754 -0.0512 -0.1829
 8692TIP3    H147567   0.188   2.274  12.823  1.3224  0.5440 -1.4855
 8692TIP3    H247568   0.093   2.360  12.903 -0.3142 -2.1918 -0.3257
 8693TIP3   OH247569   2.667   6.310   1.266 -0.7213  0.1532 -0.3200
 8693TIP3    H147570   2.709   6.256   1.333 -1.1599  1.9041  1.4687
 8693TIP3    H247571   2.739   6.334   1.207 -0.4962 -2.1618 -1.0625
 8694TIP3   OH247572   2.719   0.449  17.121  0.2800  0.0495  0.5407
 8694TIP3    H147573   2.703   0.424  17.212  0.6598 -0.8868  0.3633
 8694TIP3    H247574   2.807   0.416  17.102 -0.3063 -0.9575 -0.5606
 8695TIP3   OH247575   3.742   3.929  13.262 -0.3236 -0.5040 -0.0946
 8695TIP3    H147576   3.810   3.913  13.327 -2.3426 -1.1493  1.9890
 8695TIP3    H247577   3.686   3.852  13.266 -1.0964 -0.0798 -1.8859
 8696TIP3   OH247578   5.147   6.603   5.568  0.0565  0.2628 -0.1608
 8696TIP3    H147579   5.211   6.571   5.632  1.5697  0.6307 -1.4209
 8696TIP3    H247580   5.074   6.542   5.575  1.0201 -0.8619  0.5366
 8697TIP3   OH247581   4.352   2.183  15.188  0.2645  0.0231 -0.8899
 8697TIP3    H147582   4.287   2.203  15.255  1.1820  1.5633 -0.3989
 8697TIP3    H247583   4.308   2.123  15.128 -1.0419 -0.2631  0.3165
 8698TIP3   OH247584   1.690   5.712  15.214 -0.3909 -0.6207  0.1954
 8698TIP3    H147585   1.777   5.684  15.245 -0.3044 -1.2892 -0.6187
 8698TIP3    H247586   1.680   5.669  15.129 -0.3409  1.7291 -1.0530
 8699TIP3   OH247587   5.147   6.456   3.129 -0.4941  0.3543 -0.1007
 8699TIP3    H147588   5.240   6.459   3.150 -0.7132 -0.2372  1.0527
 8699TIP3    H247589   5.115   6.544   3.148 -0.2174  0.4945 -0.2801
 8700TIP3   OH247590   0.699   5.136   5.660 -0.1416  0.1174  0.0639
 8700TIP3    H147591   0.710   5.211   5.719  1.0756  0.6316 -0.7869
 8700TIP3    H247592   0.780   5.087   5.668  0.0462  0.2011 -1.1793
 8701TIP3   OH247593   2.564   5.998   6.318  0.3968  0.1639 -0.0330
 8701TIP3    H147594   2.560   6.077   6.371 -0.5240 -0.3298  0.6731
 8701TIP3    H247595   2.613   5.936   6.371 -0.7053 -0.3984  0.3593
 8702TIP3   OH247596   5.562   2.680  17.054  0.6675 -0.0616  0.4603
 8702TIP3    H147597   5.547   2.648  16.965  1.5135  0.2366  0.2029
 8702TIP3    H247598   5.516   2.764  17.058  0.5442 -0.1231  0.3429
 8703TIP3   OH247599   1.318   0.490   0.323 -0.0550 -0.1485  0.1256
 8703TIP3    H147600   1.390   0.467   0.264 -2.0125  0.8886 -2.8860
 8703TIP3    H247601   1.347   0.571   0.365  1.1497 -0.5912  0.2081
 8704TIP3   OH247602   5.444   5.168  16.534  0.1549  0.4053  0.5262
 8704TIP3    H147603   5.415   5.118  16.457 -0.1820  0.4447  0.6279
 8704TIP3    H247604   5.411   5.257  16.519 -2.2334 -0.1409  1.9373
 8705TIP3   OH247605   4.197   6.057  12.885 -0.1942 -0.0368  0.1254
 8705TIP3    H147606   4.240   6.037  12.801 -0.6552 -0.3420 -0.0389
 8705TIP3    H247607   4.198   6.153  12.889  0.9148 -0.0426  0.3450
 8706TIP3   OH247608   3.480   3.122  15.121  0.7721  0.4090  0.4723
 8706TIP3    H147609   3.442   3.135  15.034 -2.5223 -0.3697  1.6097
 8706TIP3    H247610   3.480   3.026  15.133  0.8757  0.5115  1.3921
 8707TIP3   OH247611   0.861   3.998   0.760  0.1543  0.0137  0.0814
 8707TIP3    H147612   0.870   4.014   0.854 -1.6689  1.9798  0.0007
 8707TIP3    H247613   0.873   4.084   0.719  0.5163 -0.7279 -1.4668
 8708TIP3   OH247614   4.179   0.927  13.657 -0.3524  0.1206  0.1280
 8708TIP3    H147615   4.245   0.870  13.616 -2.2384 -0.9734 -1.5525
 8708TIP3    H247616   4.210   1.016  13.640  1.7261 -0.3289  1.2147
 8709TIP3   OH247617   5.135   0.577   1.657 -0.0066 -0.2510  0.4155
 8709TIP3    H147618   5.080   0.587   1.579  0.5893 -1.9518 -0.2809
 8709TIP3    H247619   5.212   0.530   1.626  1.3242  1.0446  1.6060
 8710TIP3   OH247620   6.464   2.309  11.145  0.3087 -0.2104  0.5270
 8710TIP3    H147621   6.545   2.287  11.190 -0.0280  2.3640  2.6116
 8710TIP3    H247622   6.448   2.401  11.166 -1.4974  0.3212 -2.4836
 8711TIP3   OH247623   4.675   3.993   3.261 -0.5266  0.0315  0.6396
 8711TIP3    H147624   4.580   4.007   3.260 -0.5414 -0.0241 -0.9902
 8711TIP3    H247625   4.690   3.944   3.342 -1.4655  2.6188  2.5191
 8712TIP3   OH247626   5.804   5.705  11.788 -0.3591 -0.0783  0.1668
 8712TIP3    H147627   5.798   5.630  11.730  0.9229 -0.3765  0.3915
 8712TIP3    H247628   5.715   5.739  11.793 -1.2831 -2.4268  1.1950
 8713TIP3   OH247629   6.341   6.800   5.054  0.8746  0.3375 -0.0037
 8713TIP3    H147630   6.431   6.825   5.076  1.0436 -1.2541  1.3518
 8713TIP3    H247631   6.291   6.882   5.061  1.8587  0.8731  1.3833
 8714TIP3   OH247632   4.139   6.771   3.817 -0.1488 -0.3417 -0.5743
 8714TIP3    H147633   4.048   6.756   3.790 -1.2830  1.3690  1.8721
 8714TIP3    H247634   4.188   6.698   3.780 -2.5536 -1.4055 -1.8531
 8715TIP3   OH247635   5.967   1.813  14.053  0.1196  0.0696 -0.4342
 8715TIP3    H147636   5.875   1.788  14.049 -0.6180  2.5219  0.0388
 8715TIP3    H247637   5.979   1.876  13.982  1.5468 -0.4778 -0.7153
 8716TIP3   OH247638   4.938   2.368   1.350 -0.0925 -0.3876  0.3989
 8716TIP3    H147639   4.993   2.434   1.393  0.9447 -1.4064  0.7158
 8716TIP3    H247640   4.853   2.410   1.340  0.9518  1.5542 -0.8638
 8717TIP3   OH247641   0.367   1.377   5.606  0.3482  0.2204  0.4763
 8717TIP3    H147642   0.420   1.300   5.588  1.0848  1.0769 -1.2655
 8717TIP3    H247643   0.277   1.344   5.614  0.7861 -0.9208  0.8371
 8718TIP3   OH247644   5.839   3.792   1.519 -0.3926 -0.0706  0.4712
 8718TIP3    H147645   5.905   3.820   1.456  0.3700 -0.1247  1.2337
 8718TIP3    H247646   5.756   3.821   1.481  0.1867  1.2552  0.1665
 8719TIP3   OH247647   3.183   2.316  14.954  0.0884  0.0301 -0.5169
 8719TIP3    H147648   3.141   2.313  14.868  1.7343 -0.8407 -1.3416
 8719TIP3    H247649   3.201   2.224  14.975 -1.0373  0.1507  1.1753
 8720TIP3   OH247650   6.597   0.322   0.951 -0.3183 -0.6735 -0.1129
 8720TIP3    H147651   6.556   0.302   1.035 -1.1134 -0.5255 -0.4588
 8720TIP3    H247652   6.524   0.341   0.892  0.1900 -1.3537 -0.9906
 8721TIP3   OH247653   0.088   4.817   0.007 -0.3449 -0.2345  0.3350
 8721TIP3    H147654   0.095   4.728   0.044 -0.0781  0.2934  1.6159
 8721TIP3    H247655   0.177   4.839  -0.019 -0.1772  0.1112  1.1618
 8722TIP3   OH247656   6.737   3.360   5.869 -0.0561 -0.3788 -0.2498
 8722TIP3    H147657   6.736   3.427   5.938 -0.8969 -0.4804 -0.1587
 8722TIP3    H247658   6.779   3.284   5.910  0.5492 -0.0429 -0.2329
 8723TIP3   OH247659   6.440   3.338   1.058 -0.7277  0.5018  0.3202
 8723TIP3    H147660   6.516   3.335   1.116  0.0589  1.3659 -0.6356
 8723TIP3    H247661   6.370   3.373   1.112 -0.1033  0.9377  0.8654
 8724TIP3   OH247662   5.489   1.965  13.684  0.1823 -0.3369  0.4506
 8724TIP3    H147663   5.540   1.894  13.723  0.5710 -0.5505 -0.4231
 8724TIP3    H247664   5.488   1.946  13.590 -0.7324  0.1647  0.3390
 8725TIP3   OH247665   2.456   4.354  13.907 -0.3758  0.1038 -0.3703
 8725TIP3    H147666   2.523   4.380  13.970 -0.3618  0.8721 -0.6915
 8725TIP3    H247667   2.453   4.258  13.913  1.0036  0.0285 -0.6201
 8726TIP3   OH247668   6.429   4.402  16.516  0.2530 -0.1139 -0.4419
 8726TIP3    H147669   6.450   4.314  16.547 -1.2062 -0.6823 -0.9815
 8726TIP3    H247670   6.344   4.393  16.473 -0.6594  1.8639  0.7937
 8727TIP3   OH247671   1.873   4.045   1.604 -0.1199 -0.1487 -0.2138
 8727TIP3    H147672   1.904   3.965   1.561 -0.6454 -0.3055 -0.3028
 8727TIP3    H247673   1.792   4.019   1.648  0.5082 -0.0303  1.0392
 8728TIP3   OH247674   6.110   3.606  14.281  0.0025 -0.2101  0.7220
 8728TIP3    H147675   6.174   3.665  14.321  0.4819 -1.2160  1.5194
 8728TIP3    H247676   6.163   3.534  14.246 -0.5224  0.0761 -0.7151
 8729TIP3   OH247677   2.894   4.015   1.851 -0.3454 -0.2493  0.2332
 8729TIP3    H147678   2.849   4.095   1.876 -1.0130 -0.3607 -0.5601
 8729TIP3    H247679   2.987   4.035   1.863 -0.5971 -0.1054  2.1163
 8730TIP3   OH247680   0.311   0.789   4.000 -0.6482  0.0437 -0.4913
 8730TIP3    H147681   0.307   0.801   4.095 -2.7560 -0.9099 -0.3896
 8730TIP3    H247682   0.225   0.819   3.969 -0.0991  0.0530 -2.0655
 8731TIP3   OH247683   1.180   2.700   0.645 -0.4528  0.1394 -0.3836
 8731TIP3    H147684   1.098   2.657   0.666  0.0201 -0.3447  0.5286
 8731TIP3    H247685   1.206   2.743   0.727  0.8972 -0.8815 -0.2490
 8732TIP3   OH247686   3.390   2.967   4.741  0.8620 -0.4378 -0.1949
 8732TIP3    H147687   3.364   2.929   4.825 -0.0972 -3.2175 -1.6133
 8732TIP3    H247688   3.375   3.061   4.751  0.2196 -0.7407  2.5102
 8733TIP3   OH247689   6.812   4.867   5.637 -0.0208  0.0975 -0.2274
 8733TIP3    H147690   6.776   4.783   5.609 -1.6233  0.3605  0.9420
 8733TIP3    H247691   6.875   4.845   5.705 -0.7692 -0.1462  0.3989
 8734TIP3   OH247692   1.699   3.093   1.468  0.1315  0.1863  0.4785
 8734TIP3    H147693   1.686   3.187   1.481  0.9284  0.3763  0.0158
 8734TIP3    H247694   1.719   3.059   1.555  1.5312  0.7560  0.4004
 8735TIP3   OH247695   5.988   0.018   2.643  0.5607 -0.2822 -0.0404
 8735TIP3    H147696   6.013  -0.069   2.672 -0.5328 -1.0390 -1.2409
 8735TIP3    H247697   5.892   0.020   2.652  0.4710  0.4270 -0.9324
 8736TIP3   OH247698   0.570   6.003   5.503 -0.3930  0.1203  0.0014
 8736TIP3    H147699   0.527   6.016   5.419 -1.4874 -0.5961  0.4248
 8736TIP3    H247700   0.519   5.933   5.545  1.0497 -0.5976  0.6245
 8737TIP3   OH247701   2.676   2.669  11.634  0.1333 -0.2066 -0.2002
 8737TIP3    H147702   2.760   2.707  11.606  0.1284 -1.6107 -2.3776
 8737TIP3    H247703   2.611   2.736  11.613  0.5049  0.0740 -0.4789
 8738TIP3   OH247704   3.034   4.607   5.564  0.0161  0.6452  0.3257
 8738TIP3    H147705   2.967   4.547   5.531 -0.3988  1.0992  0.3200
 8738TIP3    H247706   2.991   4.654   5.635  0.9164 -0.3627  1.5988
 8739TIP3   OH247707   4.986   5.868   5.698 -0.4878  0.0494 -0.5671
 8739TIP3    H147708   4.982   5.848   5.792  0.9810  0.4551 -0.3906
 8739TIP3    H247709   5.068   5.829   5.669 -1.5628 -1.2563 -2.0101
 8740TIP3   OH247710   1.042   2.888   0.302 -0.2867  0.1216 -0.0756
 8740TIP3    H147711   1.007   2.833   0.232 -1.6875  0.6503  0.1674
 8740TIP3    H247712   1.001   2.974   0.288 -0.4823  0.2757  1.2965
 8741TIP3   OH247713   3.875   4.097  11.396  0.0821  0.1992 -0.0606
 8741TIP3    H147714   3.923   4.180  11.396 -0.3689  0.5547  2.6401
 8741TIP3    H247715   3.942   4.029  11.400  0.4284  0.4454 -1.3424
 8742TIP3   OH247716   4.530   0.906  16.433  0.1246 -0.3773 -0.2135
 8742TIP3    H147717   4.479   0.826  16.422  0.5551 -0.4444 -2.2663
 8742TIP3    H247718   4.585   0.910  16.354  0.6571  1.5570  0.1983
 8743TIP3   OH247719   6.583   0.883  11.662 -0.0837  0.4048  0.3497
 8743TIP3    H147720   6.506   0.888  11.605 -0.7558  1.2534  1.3009
 8743TIP3    H247721   6.557   0.928  11.742  1.6149  1.2671  0.4674
 8744TIP3   OH247722   0.572   5.025  14.471 -0.0810  0.2609 -0.0324
 8744TIP3    H147723   0.522   4.946  14.450 -0.5247  0.6149 -0.3340
 8744TIP3    H247724   0.515   5.097  14.443  0.4366  0.6804 -0.0159
 8745TIP3   OH247725   6.680   3.608   4.788  0.0005 -0.3310 -0.9376
 8745TIP3    H147726   6.736   3.550   4.839  0.4439  1.9243  1.3338
 8745TIP3    H247727   6.609   3.631   4.848  0.9750  3.0986 -0.9105
 8746TIP3   OH247728   3.507   2.340  15.690  0.1600 -0.5644  0.2460
 8746TIP3    H147729   3.526   2.337  15.596 -0.8213  1.2979 -0.0704
 8746TIP3    H247730   3.436   2.404  15.697 -0.7027 -1.6532  2.1272
 8747TIP3   OH247731   1.943   0.223  13.752 -0.7908 -0.7822 -0.6306
 8747TIP3    H147732   1.969   0.271  13.673  1.0701  0.3594  0.5831
 8747TIP3    H247733   1.922   0.135  13.721  1.5905 -0.8861 -2.2257
 8748TIP3   OH247734   3.636   2.273   5.315  0.8570  0.1430  0.4589
 8748TIP3    H147735   3.591   2.298   5.395  2.1319 -0.9513  1.5758
 8748TIP3    H247736   3.620   2.345   5.255 -0.5717  0.7482  1.5149
 8749TIP3   OH247737   2.866   2.183  15.494 -0.1043  0.2895  0.7469
 8749TIP3    H147738   2.952   2.176  15.535 -0.4358  1.0583  1.6038
 8749TIP3    H247739   2.844   2.094  15.468  2.6455  0.4752 -3.0765
 8750TIP3   OH247740   6.186   3.421   2.297  0.2786  0.5922  0.1011
 8750TIP3    H147741   6.190   3.327   2.314  0.0129  0.7246  0.9496
 8750TIP3    H247742   6.234   3.461   2.370  1.6391  1.0563 -1.0124
 8751TIP3   OH247743   6.232   6.651   6.191  0.1101  0.1360 -0.4287
 8751TIP3    H147744   6.156   6.702   6.218 -0.8137 -0.5422 -1.6245
 8751TIP3    H247745   6.307   6.709   6.205 -0.8012  1.4488 -0.8674
 8752TIP3   OH247746   6.450   6.769  10.982 -0.1404  1.0200  0.1849
 8752TIP3    H147747   6.454   6.688  10.931 -1.0518  0.0329  1.6087
 8752TIP3    H247748   6.446   6.838  10.917  0.2675 -0.0961 -1.0751
 8753TIP3   OH247749   6.573   1.947  13.214 -0.3619  0.1555 -0.1575
 8753TIP3    H147750   6.635   1.943  13.287  0.3952  0.2201 -0.7802
 8753TIP3    H247751   6.588   1.867  13.165  0.0733  0.7244 -0.9741
 8754TIP3   OH247752   2.791   0.523   3.618 -0.4144 -0.3181 -0.2761
 8754TIP3    H147753   2.833   0.607   3.632 -1.1032 -0.2026  1.3329
 8754TIP3    H247754   2.825   0.466   3.687  0.5474 -1.6106 -1.7174
 8755TIP3   OH247755   4.259   5.644   4.928  0.1756 -0.0206 -0.5471
 8755TIP3    H147756   4.245   5.720   4.984 -0.3397 -0.1813 -0.4545
 8755TIP3    H247757   4.349   5.655   4.895 -0.0472  0.8524 -0.8898
 8756TIP3   OH247758   0.274   1.350  15.776  0.3035  0.4097 -0.0714
 8756TIP3    H147759   0.252   1.404  15.701  0.8744  0.8410  0.0632
 8756TIP3    H247760   0.366   1.369  15.793  0.9564 -1.6868 -0.9188
 8757TIP3   OH247761   3.780   3.888   2.344 -0.0111  0.6866  0.9368
 8757TIP3    H147762   3.771   3.800   2.380 -0.1138  1.2330  2.3351
 8757TIP3    H247763   3.843   3.931   2.402 -0.4739  1.7229  0.6912
 8758TIP3   OH247764   2.026   5.665  12.562  0.8448  0.8143 -0.9011
 8758TIP3    H147765   2.030   5.593  12.499  1.2535  0.4756 -0.4885
 8758TIP3    H247766   2.008   5.742  12.508  0.1469  0.3754 -1.3199
 8759TIP3   OH247767   3.716   2.067  13.674 -0.0324  0.1569  0.1126
 8759TIP3    H147768   3.690   2.102  13.759 -1.1102 -1.7032  0.6133
 8759TIP3    H247769   3.645   2.091  13.615 -0.9317 -1.3856  0.5295
 8760TIP3   OH247770   5.137   1.013   2.389 -0.1949 -0.2538 -0.0276
 8760TIP3    H147771   5.185   1.060   2.458  1.3424 -0.2216 -1.0593
 8760TIP3    H247772   5.064   0.972   2.434  0.8428 -0.3540  1.6494
 8761TIP3   OH247773   6.059   5.063   5.482 -0.6685 -0.4004  0.4964
 8761TIP3    H147774   6.069   4.969   5.467 -0.4884 -0.7044  2.3001
 8761TIP3    H247775   6.110   5.080   5.561 -0.2017  1.3491 -0.1286
 8762TIP3   OH247776   2.336   2.443   0.785  0.0123 -0.0272 -0.7070
 8762TIP3    H147777   2.249   2.481   0.773 -0.2105  0.2555  1.4433
 8762TIP3    H247778   2.325   2.350   0.763 -1.1653 -0.2431  0.6297
 8763TIP3   OH247779   3.844   0.289   6.306 -0.0261 -0.2809 -0.0532
 8763TIP3    H147780   3.752   0.296   6.332  0.0811  0.0540  0.2578
 8763TIP3    H247781   3.889   0.355   6.359  0.3525 -0.2500 -0.3997
 8764TIP3   OH247782   1.999   3.339  11.705  0.3650  0.2018  0.2877
 8764TIP3    H147783   2.092   3.339  11.684  0.2465 -0.4757 -0.2606
 8764TIP3    H247784   1.955   3.321  11.622 -0.1193 -2.4351  1.0170
 8765TIP3   OH247785   2.098   5.964  15.596  0.1431  0.5638 -0.1767
 8765TIP3    H147786   2.162   5.962  15.667 -0.0871 -2.1060  0.0453
 8765TIP3    H247787   2.133   5.903  15.530 -2.4232 -1.6172  0.2844
 8766TIP3   OH247788   5.914   5.581   1.357  0.1113 -0.0275  0.4047
 8766TIP3    H147789   5.995   5.587   1.307 -0.0205  0.2556  0.2239
 8766TIP3    H247790   5.846   5.567   1.292 -0.2084  1.4711  0.3801
 8767TIP3   OH247791   5.653   0.252   5.492  0.0649 -0.5503  0.3316
 8767TIP3    H147792   5.560   0.271   5.499 -0.6108 -2.3086 -2.3093
 8767TIP3    H247793   5.668   0.178   5.551 -0.5488 -1.0710 -0.1449
 8768TIP3   OH247794   0.520   4.492   6.346  0.1862 -0.3791 -0.2386
 8768TIP3    H147795   0.544   4.424   6.408 -1.3146 -0.4733  0.2859
 8768TIP3    H247796   0.535   4.452   6.260 -1.6146 -1.8138  0.0368
 8769TIP3   OH247797   2.924   6.707   3.019  0.0885 -0.5217 -0.5753
 8769TIP3    H147798   2.927   6.662   3.104 -2.1642  1.1566  0.5169
 8769TIP3    H247799   2.938   6.638   2.955  1.6479 -1.8944  1.1383
 8770TIP3   OH247800   2.935   2.560   5.404 -0.6061 -0.2518 -0.0942
 8770TIP3    H147801   2.972   2.517   5.326 -1.6396  1.2370 -1.4679
 8770TIP3    H247802   2.841   2.545   5.397 -0.8953  1.4227 -0.1233
 8771TIP3   OH247803   0.578   6.358  16.169 -0.0188 -0.2434  0.3508
 8771TIP3    H147804   0.563   6.326  16.081  0.5413  1.0148 -0.2296
 8771TIP3    H247805   0.618   6.284  16.216 -1.0824 -1.1826 -0.1962
 8772TIP3   OH247806   2.614   0.485  15.667 -0.1929  0.2695  0.3138
 8772TIP3    H147807   2.689   0.456  15.719  0.3123  0.4840 -0.2807
 8772TIP3    H247808   2.646   0.484  15.577 -0.2730  2.2907  0.2188
 8773TIP3   OH247809   5.490   1.390  11.433  0.4672 -0.5364  0.0393
 8773TIP3    H147810   5.503   1.422  11.344  1.7701 -0.7352  0.1435
 8773TIP3    H247811   5.561   1.328  11.447  0.6613 -0.0279  1.4388
 8774TIP3   OH247812   4.864   6.200   5.952 -0.0001 -0.4266 -0.0673
 8774TIP3    H147813   4.834   6.148   6.026  0.0161 -0.5428 -0.1427
 8774TIP3    H247814   4.957   6.177   5.943 -0.3656 -1.6001 -1.1100
 8775TIP3   OH247815   4.706   6.670   3.772  0.5721  0.2594 -0.0782
 8775TIP3    H147816   4.642   6.640   3.708  1.5560 -0.7440 -0.6379
 8775TIP3    H247817   4.727   6.759   3.746 -1.5156  1.1030  0.8867
 8776TIP3   OH247818   3.041   5.197  14.261  0.2592  0.6827  0.4992
 8776TIP3    H147819   2.978   5.264  14.234 -0.4836  1.2346  3.2517
 8776TIP3    H247820   2.987   5.129  14.302  1.1385 -0.9272 -0.8685
 8777TIP3   OH247821   1.913   1.485  15.376  0.5180 -0.7166  0.2331
 8777TIP3    H147822   1.854   1.539  15.324 -0.0308 -0.8499  0.7121
 8777TIP3    H247823   1.865   1.403  15.389  0.8716 -0.8834  0.4930
 8778TIP3   OH247824   3.155   2.563   2.568 -0.0866 -0.6704  0.1871
 8778TIP3    H147825   3.067   2.559   2.605 -0.2145  0.4193  0.0233
 8778TIP3    H247826   3.213   2.564   2.644 -0.3403  1.3523  0.4020
 8779TIP3   OH247827   3.575   1.319  15.679 -0.0740  0.4712  0.7372
 8779TIP3    H147828   3.623   1.237  15.689 -0.3669  0.1947 -0.0235
 8779TIP3    H247829   3.575   1.358  15.767  0.7038  0.0193  0.9497
 8780TIP3   OH247830   4.844   2.046   4.681  0.0138  0.3413 -0.1477
 8780TIP3    H147831   4.764   2.066   4.633  0.4818  1.1586 -0.6173
 8780TIP3    H247832   4.907   2.113   4.652  1.5539 -1.5568 -1.4947
 8781TIP3   OH247833   5.523   3.567   4.128 -0.3587 -0.1715  0.0962
 8781TIP3    H147834   5.544   3.611   4.045  0.4838 -1.2967 -0.3113
 8781TIP3    H247835   5.580   3.609   4.192  0.6853 -0.8625 -0.3536
 8782TIP3   OH247836   0.484   0.503   3.712  0.4053  0.3789  0.1636
 8782TIP3    H147837   0.526   0.550   3.784 -0.5598  2.9172 -0.8050
 8782TIP3    H247838   0.391   0.505   3.733  0.1272  1.0127 -1.0448
 8783TIP3   OH247839   6.411   5.075   2.391  0.1206  0.2278 -0.1889
 8783TIP3    H147840   6.463   5.053   2.468  1.6521 -2.5335 -1.8470
 8783TIP3    H247841   6.461   5.145   2.349  0.9637 -0.3704 -0.2216
 8784TIP3   OH247842   1.120   4.887  16.560  0.1930 -0.1926 -0.4499
 8784TIP3    H147843   1.122   4.847  16.473  1.6349  1.0495 -1.0306
 8784TIP3    H247844   1.140   4.815  16.620  0.2000 -0.8635 -1.2331
 8785TIP3   OH247845   4.580   3.528  12.913 -0.1752 -0.6984 -0.3534
 8785TIP3    H147846   4.650   3.501  12.972 -0.6101 -1.1096 -0.0114
 8785TIP3    H247847   4.624   3.575  12.843  0.2119  1.5206  1.2384
 8786TIP3   OH247848   1.080   5.242   5.541  0.1530  0.3154 -0.6282
 8786TIP3    H147849   0.987   5.238   5.516 -0.5978  1.5636  1.7272
 8786TIP3    H247850   1.083   5.203   5.628  1.9243  0.0634 -0.7619
 8787TIP3   OH247851   4.912   2.167  12.046 -0.2763 -0.4939  0.3936
 8787TIP3    H147852   5.007   2.170  12.040 -0.1361 -1.0203  1.8783
 8787TIP3    H247853   4.890   2.074  12.035 -0.4538 -0.6189  1.5937
 8788TIP3   OH247854   3.934   3.748  11.244 -0.2549  0.1545  0.3449
 8788TIP3    H147855   3.999   3.783  11.183 -0.9038  0.1695 -0.3431
 8788TIP3    H247856   3.850   3.759  11.199 -1.1920  3.2008  2.4955
 8789TIP3   OH247857   6.006   3.841   4.267 -0.5021  0.0382 -0.1260
 8789TIP3    H147858   5.982   3.793   4.347  3.1674  2.0252  2.4369
 8789TIP3    H247859   6.042   3.774   4.210 -0.5753 -1.0621  1.0529
 8790TIP3   OH247860   3.043   5.207  13.284 -0.2171  0.4943 -0.5143
 8790TIP3    H147861   3.017   5.134  13.228 -0.3128  0.6793 -0.7113
 8790TIP3    H247862   3.102   5.168  13.348 -0.8000  0.1110 -0.1984
 8791TIP3   OH247863   3.670   0.214  14.859  0.2758  0.4135  0.3395
 8791TIP3    H147864   3.736   0.250  14.918  1.9838 -0.9460 -0.6342
 8791TIP3    H247865   3.645   0.287  14.803 -0.1015  1.2884  1.6101
 8792TIP3   OH247866   0.472   6.805   5.305  0.1912 -0.1288 -0.0478
 8792TIP3    H147867   0.460   6.723   5.257 -0.7922  0.2985 -0.5544
 8792TIP3    H247868   0.424   6.870   5.255  0.1918  0.5850  0.8448
 8793TIP3   OH247869   5.049   5.187  13.567 -0.1968  0.6501 -0.5654
 8793TIP3    H147870   5.113   5.145  13.626 -1.2922 -0.6944 -0.2726
 8793TIP3    H247871   5.102   5.225  13.498  0.9767  0.1835  0.0421
 8794TIP3   OH247872   2.824   4.687   5.740  0.3966 -0.1630 -0.0664
 8794TIP3    H147873   2.750   4.709   5.796  0.2676 -2.1956  0.6561
 8794TIP3    H247874   2.786   4.671   5.654  0.5312  2.4781 -0.6893
 8795TIP3   OH247875   3.804   5.145   2.803 -0.5153  0.3421 -0.1003
 8795TIP3    H147876   3.763   5.126   2.719 -0.3625 -1.7084  0.2326
 8795TIP3    H247877   3.745   5.208   2.845 -1.0382  0.7281 -1.3729
 8796TIP3   OH247878   4.520   0.092   0.912  0.5332 -0.0352 -0.6096
 8796TIP3    H147879   4.544   0.074   0.821 -0.6845  0.4961 -1.0589
 8796TIP3    H247880   4.489   0.008   0.946  0.0450 -0.0253 -1.0096
 8797TIP3   OH247881   4.285   1.911  13.977  0.2363  0.5776  0.3187
 8797TIP3    H147882   4.206   1.890  14.026  0.5713  1.3735  1.2380
 8797TIP3    H247883   4.351   1.851  14.012  0.2153  0.4191  0.0842
 8798TIP3   OH247884   6.556   2.309   2.021  0.1103 -0.6130 -0.1385
 8798TIP3    H147885   6.498   2.378   2.055  1.6563 -0.0007  1.4453
 8798TIP3    H247886   6.636   2.356   1.997  0.4739 -1.6155 -0.9326
 8799TIP3   OH247887   3.583   3.312   2.043  0.3270  0.0720 -0.0171
 8799TIP3    H147888   3.488   3.327   2.050  0.4991  1.1932  0.2061
 8799TIP3    H247889   3.622   3.395   2.072  1.3564  0.0116 -1.1425
 8800TIP3   OH247890   5.756   5.905  10.695 -0.0662  0.1235  0.0415
 8800TIP3    H147891   5.666   5.935  10.710  0.8120  2.1457  1.8427
 8800TIP3    H247892   5.767   5.911  10.600 -1.9553 -0.6405 -0.2694
 8801TIP3   OH247893   1.682   1.642   4.686 -0.2933 -0.0741 -0.5704
 8801TIP3    H147894   1.691   1.731   4.651  0.8294  0.4034  0.8114
 8801TIP3    H247895   1.719   1.586   4.618  0.5908  0.6947 -0.7562
 8802TIP3   OH247896   3.996   4.969  17.135  0.5228  0.0232 -0.2838
 8802TIP3    H147897   4.027   4.933  17.052 -1.2817 -0.1751 -0.9128
 8802TIP3    H247898   4.076   4.994  17.182  1.6055 -0.5449 -1.7595
 8803TIP3   OH247899   2.657   0.968   3.214 -0.2573 -0.0210  0.3044
 8803TIP3    H147900   2.568   0.999   3.230  0.0286  0.7636  0.4231
 8803TIP3    H247901   2.651   0.873   3.222 -1.1226  0.0059  0.1129
 8804TIP3   OH247902   1.243   5.483  16.064  0.3768  0.9447 -0.0437
 8804TIP3    H147903   1.159   5.511  16.026 -0.9038 -1.3483  0.9157
 8804TIP3    H247904   1.248   5.530  16.148 -1.2236 -0.7045  1.0521
 8805TIP3   OH247905   5.138   5.055   1.628 -0.1893  0.1316  1.0193
 8805TIP3    H147906   5.053   5.079   1.665 -0.0568 -0.8864  2.0277
 8805TIP3    H247907   5.199   5.120   1.663 -0.3827  0.2769  1.0890
 8806TIP3   OH247908   0.292   6.159  16.233  0.6339  0.5723  0.1342
 8806TIP3    H147909   0.206   6.182  16.197  0.3965  1.0146  0.9276
 8806TIP3    H247910   0.340   6.121  16.160  0.0884  1.1869 -0.5669
 8807TIP3   OH247911   4.266   2.822  13.648  0.2499 -0.3131 -0.6282
 8807TIP3    H147912   4.306   2.886  13.589 -1.2285  0.4864 -0.8179
 8807TIP3    H247913   4.334   2.801  13.711  1.8895 -1.1918 -2.5841
 8808TIP3   OH247914   4.248   5.890  15.383  0.2627 -0.3775  0.3435
 8808TIP3    H147915   4.320   5.884  15.445 -0.5036  2.4519  1.6656
 8808TIP3    H247916   4.185   5.825  15.414 -0.1183  0.9846  2.6809
 8809TIP3   OH247917   2.105   1.461   3.979  0.4610 -0.1016 -0.0685
 8809TIP3    H147918   2.064   1.455   3.893  2.1719  1.4030 -1.0685
 8809TIP3    H247919   2.183   1.516   3.965  2.1910 -1.8577  1.9118
 8810TIP3   OH247920   4.087   1.823   0.713  0.2008  0.4586  0.3900
 8810TIP3    H147921   4.020   1.892   0.713 -1.4935 -1.0893  0.4301
 8810TIP3    H247922   4.129   1.831   0.799  0.5240  1.8539  0.1281
 8811TIP3   OH247923   4.640   5.636   0.715 -0.1776  0.6614 -0.6396
 8811TIP3    H147924   4.568   5.634   0.652  0.1070  0.7540 -0.9739
 8811TIP3    H247925   4.599   5.659   0.798 -1.0202 -2.1502 -0.1621
 8812TIP3   OH247926   5.406   1.141  12.991  0.5382 -0.3091  0.1674
 8812TIP3    H147927   5.315   1.117  13.005  0.4871 -0.1124  0.1694
 8812TIP3    H247928   5.452   1.057  12.981  0.2710 -0.3855 -0.4040
 8813TIP3   OH247929   0.886   3.134   1.807 -0.5795 -0.1560  0.7109
 8813TIP3    H147930   0.886   3.226   1.781 -2.0606 -0.6558 -1.3554
 8813TIP3    H247931   0.969   3.099   1.774 -1.5384 -0.2952 -1.7794
 8814TIP3   OH247932   6.630   5.188  15.204 -0.3061 -0.1376  0.6890
 8814TIP3    H147933   6.625   5.105  15.251  0.2725  0.3118  1.5773
 8814TIP3    H247934   6.708   5.231  15.240 -0.6023  0.7892  0.2491
 8815TIP3   OH247935   3.480   5.553   5.346 -0.9146 -0.2967 -0.1762
 8815TIP3    H147936   3.573   5.575   5.355 -1.0604 -0.0515  0.9589
 8815TIP3    H247937   3.436   5.611   5.409 -1.8433 -0.3798 -0.7300
 8816TIP3   OH247938   1.122   3.284   3.434 -0.0485 -0.3133  0.4566
 8816TIP3    H147939   1.112   3.367   3.388 -0.7831 -0.1594  0.8895
 8816TIP3    H247940   1.149   3.308   3.522 -1.4615 -0.4625  0.9480
 8817TIP3   OH247941   0.613   4.029   4.689 -0.1253 -0.3181 -0.4546
 8817TIP3    H147942   0.641   4.115   4.658 -1.8093 -0.0632 -1.4249
 8817TIP3    H247943   0.544   4.049   4.752  0.7905 -0.9377  0.7747
 8818TIP3   OH247944   1.559   2.642   1.448 -0.0894  0.3380 -0.0524
 8818TIP3    H147945   1.502   2.714   1.478 -0.6591 -0.2569  0.3127
 8818TIP3    H247946   1.637   2.650   1.503  0.0878  1.0085 -0.3862
 8819TIP3   OH247947   4.755   1.608  15.408  0.0234 -0.0272 -0.6134
 8819TIP3    H147948   4.718   1.655  15.333  0.5624  0.3530 -0.6513
 8819TIP3    H247949   4.680   1.567  15.450 -0.4301  0.6268 -0.7585
 8820TIP3   OH247950   2.314   2.547   3.329  0.3002  0.3069  0.1363
 8820TIP3    H147951   2.399   2.579   3.302  0.4785 -2.1314 -2.7223
 8820TIP3    H247952   2.315   2.454   3.305 -3.0204  0.1065  0.3266
 8821TIP3   OH247953   4.908   0.247   0.623  0.2045 -0.6934  0.0683
 8821TIP3    H147954   4.990   0.293   0.605  0.6019 -1.9680 -1.7175
 8821TIP3    H247955   4.857   0.257   0.542 -0.6662 -1.4220  0.5087
 8822TIP3   OH247956   3.467   4.334   4.676 -0.0142  0.0239 -0.1522
 8822TIP3    H147957   3.383   4.326   4.630  0.6394 -0.2546 -1.3378
 8822TIP3    H247958   3.475   4.426   4.698 -0.5667  0.0734 -0.1582
 8823TIP3   OH247959   1.138   2.156   4.047  0.0595  0.5925 -0.3203
 8823TIP3    H147960   1.151   2.148   3.953  1.1521  0.5106 -0.1824
 8823TIP3    H247961   1.106   2.245   4.060 -0.4511  0.4800 -0.7968
 8824TIP3   OH247962   6.804   2.499   3.605  0.1958 -0.3727  0.0314
 8824TIP3    H147963   6.872   2.491   3.538 -2.2057  1.3360 -2.8320
 8824TIP3    H247964   6.730   2.449   3.571 -1.4294  1.2976  0.8984
 8825TIP3   OH247965   4.946   2.229  16.073  0.3574  0.1465 -0.3311
 8825TIP3    H147966   4.866   2.193  16.036  0.5395  0.0715 -0.6509
 8825TIP3    H247967   4.994   2.152  16.105  1.4044 -0.0581 -2.2839
 8826TIP3   OH247968   4.987   1.027   4.990 -0.2978  0.3956  0.1629
 8826TIP3    H147969   4.946   0.961   5.046  1.3112  0.1225  1.0696
 8826TIP3    H247970   5.005   1.101   5.049  2.5636 -0.3797  0.3903
 8827TIP3   OH247971   6.204   2.433  12.506 -0.7853 -0.3487  0.4185
 8827TIP3    H147972   6.290   2.394  12.524 -0.2506  1.4778  2.1821
 8827TIP3    H247973   6.224   2.522  12.476 -2.0553  0.1183  0.8857
 8828TIP3   OH247974   4.416   2.939  15.936  0.1184  0.1850  0.4000
 8828TIP3    H147975   4.390   2.995  15.863  0.4202  0.7505  0.7313
 8828TIP3    H247976   4.338   2.884  15.951  0.1232 -0.0885 -0.4768
 8829TIP3   OH247977   0.704   5.639   1.704 -0.2122 -0.5863  0.6723
 8829TIP3    H147978   0.622   5.686   1.716  0.5290  0.9126  0.1824
 8829TIP3    H247979   0.679   5.547   1.697 -2.0268 -0.0202 -1.1238
 8830TIP3   OH247980   4.791   5.107   4.050  0.6133  0.3989 -0.1137
 8830TIP3    H147981   4.856   5.137   4.114  1.7143 -0.5251 -0.7527
 8830TIP3    H247982   4.842   5.057   3.986 -1.0174 -2.6385  0.7457
 8831TIP3   OH247983   0.177   2.979   1.798  0.0450  0.2174 -0.0224
 8831TIP3    H147984   0.169   2.933   1.882 -0.9510  1.2866  0.4922
 8831TIP3    H247985   0.239   2.926   1.748 -0.3574 -1.1656  0.8851
 8832TIP3   OH247986   5.751   2.505   0.365 -0.6168  0.0661 -0.3338
 8832TIP3    H147987   5.742   2.535   0.275  0.5703  0.6234 -0.3009
 8832TIP3    H247988   5.846   2.496   0.377 -0.7616 -0.0424  0.8378
 8833TIP3   OH247989   1.960   4.041   3.312  0.1072 -0.0258  0.2272
 8833TIP3    H147990   1.875   4.007   3.341 -0.7520  1.7774 -0.0503
 8833TIP3    H247991   1.965   4.129   3.351  1.8593 -0.0871  0.2287
 8834TIP3   OH247992   5.796   0.471   5.400 -0.1666  0.5273 -0.4157
 8834TIP3    H147993   5.819   0.402   5.336  0.7878 -0.4430  0.9141
 8834TIP3    H247994   5.714   0.442   5.438  0.6146 -0.3261  0.6906
 8835TIP3   OH247995   1.312   3.109   0.052 -0.6083 -0.4165 -0.3070
 8835TIP3    H147996   1.399   3.134   0.022 -0.7682  1.1050  0.4135
 8835TIP3    H247997   1.261   3.190   0.047 -1.2497 -0.6251  1.8533
 8836TIP3   OH247998   5.131   4.951   3.161  0.3511 -0.0337 -0.7823
 8836TIP3    H147999   5.215   4.995   3.164  1.1730 -1.3068 -2.8028
 8836TIP3    H248000   5.093   4.964   3.247  2.8071  0.2015  0.3315
 8837TIP3   OH248001   5.487   1.471  10.518 -0.0585  0.3216 -0.2223
 8837TIP3    H148002   5.541   1.534  10.566  0.6090 -0.1380 -0.3562
 8837TIP3    H248003   5.406   1.517  10.501  0.2690  1.0066  0.0420
 8838TIP3   OH248004   5.290   0.261  12.283 -0.3215  0.8319 -0.4983
 8838TIP3    H148005   5.328   0.338  12.241 -3.4584  2.5825 -0.4488
 8838TIP3    H248006   5.199   0.259  12.253 -0.4517 -2.7721 -0.2887
 8839TIP3   OH248007   6.547   3.214   4.542 -0.1126  0.3210  0.2160
 8839TIP3    H148008   6.604   3.234   4.616 -0.0138  1.0459 -0.0471
 8839TIP3    H248009   6.464   3.257   4.563  0.2024  1.3142 -0.5065
 8840TIP3   OH248010   3.842   1.685  14.242 -0.8313 -0.0729 -0.2482
 8840TIP3    H148011   3.892   1.604  14.249  0.8082  0.9642  0.7488
 8840TIP3    H248012   3.831   1.715  14.332 -1.1042  0.9866 -0.6124
 8841TIP3   OH248013   4.940   1.352  12.388  0.0177  0.7143 -0.6689
 8841TIP3    H148014   5.022   1.339  12.437 -0.3382  1.9312  0.3166
 8841TIP3    H248015   4.882   1.283  12.419 -0.6742  2.2701  1.7968
 8842TIP3   OH248016   4.327   1.836  13.703 -0.4274 -0.6466  0.0344
 8842TIP3    H148017   4.294   1.873  13.785 -0.5125  0.1789 -0.3604
 8842TIP3    H248018   4.408   1.885  13.687  0.6739 -2.1847  0.6485
 8843TIP3   OH248019   4.578   1.303  12.450 -0.3392 -0.0428 -0.0652
 8843TIP3    H148020   4.633   1.254  12.389  0.4831  1.0588 -0.2288
 8843TIP3    H248021   4.590   1.258  12.534 -1.8401 -1.8568 -0.7475
 8844TIP3   OH248022   0.819   2.440  14.021 -0.3567  0.2888  0.1474
 8844TIP3    H148023   0.800   2.496  13.946  0.3844 -0.7338 -0.8383
 8844TIP3    H248024   0.815   2.351  13.987  1.7709 -0.1492  0.8537
 8845TIP3   OH248025   1.034   5.032  11.970  0.4221 -0.2029  0.5489
 8845TIP3    H148026   1.011   5.074  12.053 -0.5393 -1.2958  0.8773
 8845TIP3    H248027   1.075   4.950  11.996  2.2328  0.4764 -0.0702
 8846TIP3   OH248028   0.702   0.839   5.085  0.5099  0.3588 -0.4008
 8846TIP3    H148029   0.754   0.763   5.056  1.7444  0.2615  1.8216
 8846TIP3    H248030   0.693   0.826   5.179 -1.1403  1.9002 -0.3042
 8847TIP3   OH248031   5.018   0.176   3.078 -0.1630 -0.1082 -0.8756
 8847TIP3    H148032   4.938   0.224   3.098 -0.4098 -0.3490 -1.2771
 8847TIP3    H248033   5.040   0.201   2.989  1.1181  1.2149 -0.2337
 8848TIP3   OH248034   2.948   2.203   6.637 -0.0342  0.4791  0.2877
 8848TIP3    H148035   3.026   2.252   6.665 -1.2701  1.3417  2.4887
 8848TIP3    H248036   2.934   2.229   6.546  1.2453  1.6500  0.3965
 8849TIP3   OH248037   3.316   3.454   4.209 -0.1075 -0.1507  0.8865
 8849TIP3    H148038   3.387   3.401   4.245  0.8853  1.2526  1.0872
 8849TIP3    H248039   3.327   3.540   4.251  0.0839  1.0579 -1.4663
 8850TIP3   OH248040   5.270   3.583   5.984 -0.2398 -0.2884  0.5522
 8850TIP3    H148041   5.270   3.488   5.994 -0.5652 -0.1367  2.2365
 8850TIP3    H248042   5.252   3.617   6.072  1.3648  1.3637  0.3142
 8851TIP3   OH248043   4.949   0.919  15.878  0.2842  0.7474 -0.3275
 8851TIP3    H148044   4.889   0.977  15.925  0.6306  2.4325 -1.8529
 8851TIP3    H248045   5.027   0.915  15.934  0.0773  1.3800  0.0156
 8852TIP3   OH248046   4.170   4.052   4.144  0.4316 -0.0936  0.0013
 8852TIP3    H148047   4.251   4.005   4.123  0.0186 -1.3408  1.0042
 8852TIP3    H248048   4.187   4.092   4.229  0.1466  0.0129  0.0096
 8853TIP3   OH248049   4.500   4.449   4.755 -0.5016  0.3105 -0.3600
 8853TIP3    H148050   4.458   4.526   4.794 -2.5153 -0.3062 -1.1964
 8853TIP3    H248051   4.574   4.431   4.812 -0.6053  2.2292  0.4642
 8854TIP3   OH248052   5.486   1.198  11.039 -0.5510 -0.3695  0.2653
 8854TIP3    H148053   5.401   1.231  11.010  0.8738  1.2009 -2.5349
 8854TIP3    H248054   5.502   1.121  10.986  0.7685  0.7527 -1.0408
 8855TIP3   OH248055   4.522   2.625  14.948 -0.0858  0.1496 -0.0081
 8855TIP3    H148056   4.428   2.628  14.929  0.2565  0.5603 -1.7756
 8855TIP3    H248057   4.548   2.716  14.956  0.1080  0.0268  0.8718
 8856TIP3   OH248058   1.020   0.911  13.041 -0.0735 -0.0269 -0.0073
 8856TIP3    H148059   1.090   0.956  13.088  0.4162 -1.8318  1.1095
 8856TIP3    H248060   0.942   0.926  13.094 -0.4224  1.3334 -0.8431
 8857TIP3   OH248061   1.996   3.434  16.708  0.0854 -0.1643 -0.3240
 8857TIP3    H148062   1.993   3.467  16.797  0.6037  1.0604 -0.7446
 8857TIP3    H248063   2.036   3.347  16.716 -0.0458 -0.1422  0.6457
 8858TIP3   OH248064   5.689   3.215   6.468 -0.3270 -0.0821  0.2108
 8858TIP3    H148065   5.744   3.151   6.513 -1.1705 -0.9506  0.0457
 8858TIP3    H248066   5.609   3.166   6.445 -0.8980  0.9704 -0.1163
 8859TIP3   OH248067   2.963   3.728  14.044  0.4948  0.2146  0.8118
 8859TIP3    H148068   2.878   3.758  14.077  0.6807  1.6730  0.0309
 8859TIP3    H248069   2.956   3.633  14.043 -0.8318  0.2812  1.5250
 8860TIP3   OH248070   0.674   2.606   0.538  0.3552 -0.7211 -0.3311
 8860TIP3    H148071   0.698   2.698   0.548  0.3783 -0.7017 -0.5742
 8860TIP3    H248072   0.581   2.603   0.561  0.0173 -0.4132 -1.6125
 8861TIP3   OH248073   5.236   5.653   6.708  0.8143  0.0922  0.1677
 8861TIP3    H148074   5.290   5.711   6.761  0.8360  0.3722 -0.1571
 8861TIP3    H248075   5.291   5.629   6.634  0.4233  0.5630 -0.2849
 8862TIP3   OH248076   1.610   5.352   5.296 -0.5545  0.2006  0.2315
 8862TIP3    H148077   1.519   5.332   5.274 -0.0083 -1.6368 -0.5321
 8862TIP3    H248078   1.605   5.413   5.369 -2.3917 -0.2765  0.5329
 8863TIP3   OH248079   2.934   0.740  14.883 -0.4279  0.4724 -0.1775
 8863TIP3    H148080   2.981   0.817  14.915 -0.5663  1.1011 -1.4198
 8863TIP3    H248081   3.002   0.674  14.870 -0.3847  0.1714  1.4505
 8864TIP3   OH248082   6.100   5.435  16.518 -0.8633  0.7727 -0.6874
 8864TIP3    H148083   6.158   5.364  16.547 -1.8763 -0.0066 -0.4798
 8864TIP3    H248084   6.129   5.455  16.429 -0.2772  0.4024 -0.5902
 8865TIP3   OH248085   2.000   3.708   3.095  0.1439  0.0022 -0.1156
 8865TIP3    H148086   2.043   3.691   3.179  0.0853 -0.9123 -0.2543
 8865TIP3    H248087   1.969   3.798   3.101 -0.7799 -0.3714  1.2672
 8866TIP3   OH248088   5.234   5.666  12.500 -0.3819 -0.2062  0.2931
 8866TIP3    H148089   5.269   5.676  12.589 -0.0094 -0.4524  0.1760
 8866TIP3    H248090   5.302   5.701  12.443 -0.0442 -1.2472  0.0260
 8867TIP3   OH248091   1.862   1.193  12.858 -0.7918 -0.2893  0.3189
 8867TIP3    H148092   1.908   1.124  12.905 -0.3350 -0.0981  0.1527
 8867TIP3    H248093   1.794   1.222  12.919  0.2728  0.4803  1.1902
 8868TIP3   OH248094   2.026   3.628   4.212 -0.1197  0.3457  0.2156
 8868TIP3    H148095   1.982   3.558   4.164  0.5741  1.2601 -1.8685
 8868TIP3    H248096   2.105   3.645   4.162  0.0787  2.1470  1.0696
 8869TIP3   OH248097   3.510   2.056  16.503  0.0898  0.2447 -0.1269
 8869TIP3    H148098   3.570   2.068  16.429  0.0753 -2.8905 -0.7823
 8869TIP3    H248099   3.424   2.045  16.462 -0.0326 -0.8114  0.4015
 8870TIP3   OH248100   2.985   3.964  12.122  0.0763 -0.5294  0.1755
 8870TIP3    H148101   2.991   4.034  12.187  0.9883  1.0721 -1.5380
 8870TIP3    H248102   3.064   3.910  12.137  0.3856 -0.0532  0.2739
 8871TIP3   OH248103   1.463   1.532   3.420 -0.0799  0.4548 -0.1080
 8871TIP3    H148104   1.416   1.587   3.483  2.0152  0.7708  1.2771
 8871TIP3    H248105   1.553   1.528   3.454  0.5847 -1.2361 -1.8881
 8872TIP3   OH248106   6.675   2.710  15.175 -0.0834  0.4094 -0.0703
 8872TIP3    H148107   6.697   2.767  15.248  1.7768 -0.3689  0.0276
 8872TIP3    H248108   6.759   2.685  15.136 -0.9500 -0.3295 -1.6083
 8873TIP3   OH248109   3.729   3.760   1.071 -0.1620  0.3669  0.4531
 8873TIP3    H148110   3.821   3.776   1.052 -0.4914  0.5585 -1.1996
 8873TIP3    H248111   3.720   3.665   1.068 -0.0858  0.3663  0.2144
 8874TIP3   OH248112   1.546   3.320   6.675  0.2348  0.8389  0.1959
 8874TIP3    H148113   1.475   3.381   6.695  0.6227  1.1065  0.7931
 8874TIP3    H248114   1.511   3.234   6.701  0.8680  1.2167  2.5735
 8875TIP3   OH248115   3.945   5.629  12.602  0.0482 -0.0914  0.0567
 8875TIP3    H148116   4.023   5.681  12.621  0.8851 -1.7733  1.5631
 8875TIP3    H248117   3.977   5.539  12.599 -1.7335 -0.7597  0.0381
 8876TIP3   OH248118   6.606   0.976   4.624  0.1494  0.1381 -0.0880
 8876TIP3    H148119   6.693   1.011   4.638  0.2337 -0.2024  0.2744
 8876TIP3    H248120   6.578   0.945   4.711 -1.4475  2.7381  0.4167
 8877TIP3   OH248121   1.830   2.278   4.290  0.1625 -0.3585  0.3892
 8877TIP3    H148122   1.734   2.284   4.286  0.2262  3.8314  0.7807
 8877TIP3    H248123   1.849   2.274   4.384  0.4043  0.4163  0.3713
 8878TIP3   OH248124   1.630   5.468   1.139 -0.1357  0.6933 -0.1221
 8878TIP3    H148125   1.710   5.488   1.092 -0.6333  1.8095 -0.5111
 8878TIP3    H248126   1.569   5.437   1.071 -0.3588  0.8271  0.0151
 8879TIP3   OH248127   4.866   4.625   3.217 -0.3873 -0.6935  0.6199
 8879TIP3    H148128   4.922   4.626   3.139 -0.9480 -0.6131  0.2046
 8879TIP3    H248129   4.867   4.716   3.248 -0.5226 -0.6289  0.4380
 8880TIP3   OH248130   3.743   4.463  14.424  0.0668  0.3448  0.2066
 8880TIP3    H148131   3.760   4.369  14.420  0.2844  0.3350  1.0536
 8880TIP3    H248132   3.649   4.470  14.442 -0.0949  0.3111 -0.6023
 8881TIP3   OH248133   2.620   3.856   2.067 -0.1435 -0.4040 -0.2957
 8881TIP3    H148134   2.708   3.845   2.029  0.4248 -0.3972  0.9744
 8881TIP3    H248135   2.561   3.855   1.991  0.8817 -1.1286 -1.1203
 8882TIP3   OH248136   2.628   2.021  16.364 -0.1431  0.1385  0.2612
 8882TIP3    H148137   2.712   2.059  16.391 -0.4117  0.2772  0.9399
 8882TIP3    H248138   2.609   2.061  16.279  0.1400  0.6386  0.4305
 8883TIP3   OH248139   0.626   6.364   1.239 -0.1623  0.2913 -0.2915
 8883TIP3    H148140   0.598   6.455   1.224  0.7617  0.5394 -0.5866
 8883TIP3    H248141   0.598   6.317   1.161 -0.0304  0.4695 -0.4463
 8884TIP3   OH248142   3.249   3.102  12.315 -0.2281  0.3465  0.1295
 8884TIP3    H148143   3.340   3.082  12.293  0.5348  2.6878  0.8505
 8884TIP3    H248144   3.223   3.168  12.251 -0.4997  1.6512  1.5509
 8885TIP3   OH248145   5.127   5.135   0.085 -0.3689  0.4312 -0.2604
 8885TIP3    H148146   5.096   5.224   0.103  0.1256  0.6318 -0.4088
 8885TIP3    H248147   5.089   5.113   0.000 -1.7709 -0.0892  0.4656
 8886TIP3   OH248148   2.190   1.028   2.488 -0.7099 -0.1208  0.3887
 8886TIP3    H148149   2.116   1.031   2.426 -1.8277 -1.4351  1.5771
 8886TIP3    H248150   2.149   1.018   2.573  0.8440 -1.5684  1.0343
 8887TIP3   OH248151   0.017   2.630  16.081 -0.0850 -0.0160 -0.2766
 8887TIP3    H148152  -0.041   2.556  16.095  0.0269  0.0692  0.6680
 8887TIP3    H248153  -0.042   2.706  16.078 -0.0077  0.1181  1.0853
 8888TIP3   OH248154   1.412   6.282  16.224 -0.1030  0.1937  0.3621
 8888TIP3    H148155   1.343   6.315  16.167  0.0500 -2.1731 -1.3273
 8888TIP3    H248156   1.476   6.244  16.164  2.3524  1.6301  1.9186
 8889TIP3   OH248157   6.305   5.727   4.916  0.1093 -0.3872  0.3281
 8889TIP3    H148158   6.231   5.671   4.936  0.3796 -0.5346  0.9370
 8889TIP3    H248159   6.302   5.738   4.820 -0.9312 -0.0459  0.3882
 8890TIP3   OH248160   0.472   4.460   2.207 -0.7959  0.3493 -0.4230
 8890TIP3    H148161   0.446   4.437   2.117  1.2736 -2.0410 -0.5482
 8890TIP3    H248162   0.493   4.376   2.248  0.4587  1.5481  1.5828
 8891TIP3   OH248163   4.790   4.477   3.683  0.1173  0.3904  0.3162
 8891TIP3    H148164   4.820   4.442   3.599 -1.1170  0.2572 -0.0897
 8891TIP3    H248165   4.711   4.427   3.703  0.8678 -0.2033  2.0171
 8892TIP3   OH248166   0.022   3.950  11.114  0.0154  0.3112 -0.1092
 8892TIP3    H148167   0.036   3.873  11.169  1.5952  0.1082 -0.7201
 8892TIP3    H248168   0.009   3.914  11.026 -0.1593  0.7120 -0.2492
 8893TIP3   OH248169   4.653   3.199  14.526 -0.7781 -0.3450 -0.6036
 8893TIP3    H148170   4.734   3.245  14.504 -0.6509 -0.2436  0.0609
 8893TIP3    H248171   4.586   3.267  14.528 -0.5246 -0.1186  0.7307
 8894TIP3   OH248172   1.166   0.721   0.490 -0.4641 -0.4846  0.3823
 8894TIP3    H148173   1.174   0.668   0.569 -1.9763  0.7838  1.4227
 8894TIP3    H248174   1.155   0.810   0.521 -1.5611 -0.0143 -1.2358
 8895TIP3   OH248175   0.025   6.824   0.646 -0.3143 -0.8012  0.0523
 8895TIP3    H148176   0.006   6.915   0.670  1.2872 -0.4423  0.0801
 8895TIP3    H248177  -0.060   6.781   0.647 -0.9576  0.3966  1.3304
 8896TIP3   OH248178   5.388   4.739  10.991  0.1260  0.2379 -0.0307
 8896TIP3    H148179   5.379   4.834  10.993 -2.4275  0.0327  1.4414
 8896TIP3    H248180   5.350   4.709  11.073 -0.8115 -2.1759 -1.2466
 8897TIP3   OH248181   2.874   0.372   2.016 -0.2372  0.3785 -0.6443
 8897TIP3    H148182   2.951   0.401   1.967  0.1099 -0.0199 -0.3377
 8897TIP3    H248183   2.848   0.449   2.067  1.0567  0.0003  0.6473
 8898TIP3   OH248184   0.325   6.219   2.097 -0.3941 -0.2756 -0.0881
 8898TIP3    H148185   0.277   6.162   2.037  1.7443 -1.1461 -1.0568
 8898TIP3    H248186   0.257   6.277   2.133 -2.2523 -1.8109 -0.8967
 8899TIP3   OH248187   0.811   2.015  13.060  0.8648  0.7243  0.1877
 8899TIP3    H148188   0.901   2.003  13.028  0.5876 -0.6981 -0.1415
 8899TIP3    H248189   0.768   2.065  12.991  0.8040 -0.6127 -0.7907
 8900TIP3   OH248190   0.014   0.102   1.715  0.1666 -0.2312 -0.4915
 8900TIP3    H148191   0.070   0.054   1.776 -1.3914  0.3363  1.5007
 8900TIP3    H248192  -0.075   0.084   1.746 -0.5533  3.5760  0.2044
 8901TIP3   OH248193   4.491   1.605   6.312 -0.0225 -0.3081  0.1875
 8901TIP3    H148194   4.467   1.605   6.404 -0.2517 -0.8269  0.1315
 8901TIP3    H248195   4.408   1.620   6.266  0.2444  1.0444  0.0892
 8902TIP3   OH248196   3.803   0.273  13.990 -0.0826 -0.7083 -0.0076
 8902TIP3    H148197   3.859   0.347  14.012  0.0320 -0.7951 -0.0055
 8902TIP3    H248198   3.852   0.196  14.019 -0.0636 -0.8045 -0.2955
 8903TIP3   OH248199   6.091   5.420   5.670  0.1368 -0.1210  0.8453
 8903TIP3    H148200   6.035   5.413   5.593  0.3091  1.2444  0.5754
 8903TIP3    H248201   6.167   5.367   5.649  1.1717  1.8818 -0.8600
 8904TIP3   OH248202   5.383   3.989  13.951 -0.0707 -0.5928 -0.5357
 8904TIP3    H148203   5.358   3.943  14.031  0.4608  1.6619  1.0568
 8904TIP3    H248204   5.332   4.071  13.954  1.5354  0.4911 -1.3705
 8905TIP3   OH248205   4.320   5.582  13.727  0.3570  0.2947  0.6171
 8905TIP3    H148206   4.258   5.613  13.661 -0.1039 -2.3996 -0.3515
 8905TIP3    H248207   4.267   5.568  13.805 -0.0952 -0.9061  0.1276
 8906TIP3   OH248208   0.849   3.883   3.015  0.7256  0.1347  0.2796
 8906TIP3    H148209   0.943   3.900   3.023  0.7649  0.1880 -0.2781
 8906TIP3    H248210   0.814   3.964   2.978  0.5871 -0.1940 -0.3204
 8907TIP3   OH248211   6.592   4.584  15.390  0.4450 -0.1251 -0.5625
 8907TIP3    H148212   6.683   4.557  15.387  0.2927 -0.6442 -0.5128
 8907TIP3    H248213   6.554   4.550  15.309  0.1169 -0.5649 -0.2314
 8908TIP3   OH248214   5.025   6.783  12.146  0.2917  0.4034 -0.5295
 8908TIP3    H148215   5.016   6.794  12.241 -0.9554  0.7955 -0.6782
 8908TIP3    H248216   5.075   6.703  12.136 -0.9730 -0.5561  0.4571
 8909TIP3   OH248217   0.943   2.551   5.071 -0.1713  0.0837 -0.0436
 8909TIP3    H148218   0.976   2.522   4.986  0.4102  0.0934  0.1753
 8909TIP3    H248219   1.021   2.561   5.125 -0.5008  0.5205  0.3571
 8910TIP3   OH248220   6.650   0.395  13.767  0.1174 -0.5752  0.2064
 8910TIP3    H148221   6.689   0.481  13.756  0.3677 -0.7574 -0.3610
 8910TIP3    H248222   6.609   0.398  13.854 -0.9614  0.5483 -0.3051
 8911TIP3   OH248223   0.055   1.721   2.703 -0.1761 -0.6757 -0.3129
 8911TIP3    H148224   0.063   1.802   2.653 -2.1613 -0.0483  0.2849
 8911TIP3    H248225   0.145   1.692   2.717  0.6332  1.8562  0.1637
 8912TIP3   OH248226   6.598   4.684   0.384  0.2567 -0.4075 -0.2061
 8912TIP3    H148227   6.577   4.772   0.352  0.2274 -0.7517 -1.1816
 8912TIP3    H248228   6.581   4.627   0.308 -0.0082 -1.2848  0.4978
 8913TIP3   OH248229   6.553   6.393   2.214 -0.0619 -0.4011 -0.2440
 8913TIP3    H148230   6.551   6.344   2.296  0.0504 -0.2174 -0.1328
 8913TIP3    H248231   6.475   6.448   2.217  0.5713  0.5071  0.2913
 8914TIP3   OH248232   5.808   2.126   5.842  0.3693  0.2955 -0.3580
 8914TIP3    H148233   5.838   2.036   5.851  0.0695 -0.0682 -2.4181
 8914TIP3    H248234   5.741   2.136   5.910 -1.3006 -1.8488 -1.5488
 8915TIP3   OH248235   3.615   4.331   3.284  0.0517  0.3667 -0.0019
 8915TIP3    H148236   3.695   4.279   3.292  0.4961  0.9262 -0.6569
 8915TIP3    H248237   3.585   4.314   3.195  0.6345  1.8027 -0.5146
 8916TIP3   OH248238   1.701   0.758   1.149  0.3582 -0.0898 -0.0350
 8916TIP3    H148239   1.616   0.801   1.142  0.2148 -0.5471 -1.2538
 8916TIP3    H248240   1.680   0.667   1.169  0.5060 -0.4152 -1.2783
 8917TIP3   OH248241   5.129   0.894  12.068 -0.1318 -0.7156 -0.1298
 8917TIP3    H148242   5.085   0.861  11.990  0.5411 -1.6963 -0.1102
 8917TIP3    H248243   5.063   0.887  12.137 -0.2569 -1.2760 -0.2985
 8918TIP3   OH248244   4.344   0.169  12.625 -0.0497  0.2452  0.5514
 8918TIP3    H148245   4.436   0.191  12.607 -0.5826  0.8640 -1.7374
 8918TIP3    H248246   4.332   0.083  12.586 -0.3518  0.0001  1.1800
 8919TIP3   OH248247   1.110   0.108   0.350 -0.3016 -0.3236 -0.7493
 8919TIP3    H148248   1.139   0.024   0.386  3.1468  0.8238 -0.4612
 8919TIP3    H248249   1.128   0.101   0.256  2.9672  0.9720 -0.3575
 8920TIP3   OH248250   5.719   3.639   2.098 -0.3016 -0.0141  0.2487
 8920TIP3    H148251   5.709   3.544   2.096 -1.0742 -0.0624  2.6752
 8920TIP3    H248252   5.638   3.673   2.060  0.0187 -0.3056 -0.7160
 8921TIP3   OH248253   1.879   2.641  14.796 -0.2358 -0.5059 -0.2023
 8921TIP3    H148254   1.816   2.706  14.766  0.6749  0.4178 -0.1940
 8921TIP3    H248255   1.931   2.621  14.718  0.7406  0.2635  0.2276
 8922TIP3   OH248256   4.373   1.492  14.073 -0.1164  0.5000  0.2453
 8922TIP3    H148257   4.406   1.481  14.162 -0.6527  0.3490  0.4300
 8922TIP3    H248258   4.448   1.524  14.023  0.5563 -0.7056  0.4443
 8923TIP3   OH248259   3.446   4.554   1.317 -0.4138  0.6524  0.3207
 8923TIP3    H148260   3.399   4.572   1.399  1.6371  2.9041  1.1007
 8923TIP3    H248261   3.442   4.636   1.268  1.4400  0.4562 -0.2231
 8924TIP3   OH248262   2.469   6.679   2.632 -0.7222  0.1811  0.2487
 8924TIP3    H148263   2.475   6.634   2.548 -2.6286  0.6808 -0.1964
 8924TIP3    H248264   2.558   6.712   2.648  0.0688 -1.3417 -0.7230
 8925TIP3   OH248265   6.808   0.037  12.881 -0.0036  0.2072 -0.2593
 8925TIP3    H148266   6.878   0.079  12.831 -0.9703  1.5535 -0.5386
 8925TIP3    H248267   6.780  -0.036  12.826  1.5648 -0.7450  0.1371
 8926TIP3   OH248268   3.944   6.650   2.897  0.5128 -0.1290  0.0832
 8926TIP3    H148269   3.995   6.719   2.856  2.0433 -0.9496  0.5490
 8926TIP3    H248270   3.980   6.643   2.986 -1.3644  0.2214  0.9194
 8927TIP3   OH248271   5.122   1.708  12.283 -0.4534 -0.4372 -0.3618
 8927TIP3    H148272   5.181   1.741  12.351 -1.1016  1.9196 -0.8509
 8927TIP3    H248273   5.034   1.720  12.319 -0.7265 -1.7726 -0.5423
 8928TIP3   OH248274   5.464   3.480   2.596 -0.1419 -0.4856 -0.2052
 8928TIP3    H148275   5.492   3.390   2.616 -0.2960 -0.6637 -0.7938
 8928TIP3    H248276   5.424   3.474   2.510  0.7825  0.3361 -0.7145
 8929TIP3   OH248277   1.567   0.570   0.937  0.1536 -0.5227 -0.2793
 8929TIP3    H148278   1.613   0.625   0.873 -0.5324  0.0085 -0.3226
 8929TIP3    H248279   1.625   0.568   1.013  0.4656 -0.2539 -0.5076
 8930TIP3   OH248280   0.113   4.708   3.418 -0.0302 -0.4752 -0.4018
 8930TIP3    H148281   0.188   4.657   3.449  0.9308  1.1385  0.0760
 8930TIP3    H248282   0.051   4.706   3.492  0.0457 -0.8342 -0.3452
 8931TIP3   OH248283   3.871   4.634   2.399  0.6918  0.1174  0.4561
 8931TIP3    H148284   3.899   4.713   2.444 -0.1504  0.0839  1.0509
 8931TIP3    H248285   3.946   4.574   2.406  0.0677 -0.4697  3.1858
 8932TIP3   OH248286   3.347   2.757  12.310  0.1775 -0.0847  0.5894
 8932TIP3    H148287   3.330   2.724  12.221 -0.3781  1.3842  0.1319
 8932TIP3    H248288   3.376   2.847  12.297 -0.3669  0.3020  1.9283
 8933TIP3   OH248289   4.666   0.626   4.588  0.2292 -0.3013 -0.2651
 8933TIP3    H148290   4.656   0.574   4.667 -3.7720  0.4372 -0.0816
 8933TIP3    H248291   4.627   0.572   4.519 -1.6934  1.2754 -0.5259
 8934TIP3   OH248292   6.102   2.279   6.037 -0.3328 -0.9288 -0.1943
 8934TIP3    H148293   6.136   2.230   5.962 -1.6353 -1.8401 -0.2301
 8934TIP3    H248294   6.092   2.368   6.005  1.1765 -0.8176 -0.4238
 8935TIP3   OH248295   2.045   2.109  15.433  0.3343  1.0275  1.0549
 8935TIP3    H148296   1.974   2.094  15.495  0.4152 -0.2565  0.8575
 8935TIP3    H248297   2.054   2.026  15.386  1.4223  1.4294  0.5211
 8936TIP3   OH248298   2.804   6.146  15.910 -0.3574 -0.1734  0.0584
 8936TIP3    H148299   2.815   6.055  15.884 -1.3040 -0.1490 -0.4680
 8936TIP3    H248300   2.722   6.173  15.868  0.6459  1.3545 -1.0113
 8937TIP3   OH248301   5.118   6.717   4.191  0.1007  0.2359 -0.2063
 8937TIP3    H148302   5.184   6.732   4.258 -0.6263 -0.3195  0.6595
 8937TIP3    H248303   5.167   6.706   4.110  1.0179  0.5194  0.3011
 8938TIP3   OH248304   6.167   4.789   2.043 -0.1103 -0.1970  0.7459
 8938TIP3    H148305   6.182   4.875   2.083 -0.0408  1.1092 -1.8680
 8938TIP3    H248306   6.079   4.796   2.005  0.4985 -0.6698 -0.8232
 8939TIP3   OH248307   0.274   4.199  12.949  0.2543  0.2507  0.3027
 8939TIP3    H148308   0.258   4.280  12.998 -0.4791 -1.0380  2.3403
 8939TIP3    H248309   0.187   4.165  12.930  0.5446  0.4049 -1.4387
 8940TIP3   OH248310   5.006   2.276   0.546 -0.3444 -0.1010  0.0742
 8940TIP3    H148311   4.961   2.235   0.472 -1.0270 -1.0605  0.9895
 8940TIP3    H248312   4.963   2.362   0.555  0.8068  0.6928 -1.5858
 8941TIP3   OH248313   4.658   5.249   6.134  0.2194  0.1404  0.4763
 8941TIP3    H148314   4.576   5.218   6.173  0.2696  0.3435  0.7447
 8941TIP3    H248315   4.722   5.181   6.155  0.1401  0.0222  0.3398
 8942TIP3   OH248316   4.746   0.514  12.639 -0.4867 -0.3043 -0.2754
 8942TIP3    H148317   4.661   0.547  12.667  0.1603 -1.1359  3.2125
 8942TIP3    H248318   4.809   0.570  12.685  0.7102 -2.4952  0.9281
 8943TIP3   OH248319   3.438   6.367  16.686  0.0075  0.4802 -0.3724
 8943TIP3    H148320   3.408   6.417  16.610 -1.3853  0.0902 -0.0967
 8943TIP3    H248321   3.358   6.341  16.732  0.8184  0.7150  1.2504
 8944TIP3   OH248322   1.218   5.857   3.217  0.2077 -0.5817  0.4001
 8944TIP3    H148323   1.290   5.798   3.243 -0.2673 -2.3241 -1.8690
 8944TIP3    H248324   1.211   5.845   3.122 -1.5626  1.3467  0.2212
 8945TIP3   OH248325   4.249   1.571   4.096  0.1491  0.1274 -0.0314
 8945TIP3    H148326   4.302   1.577   4.175  0.0755  2.3216 -0.0974
 8945TIP3    H248327   4.159   1.567   4.128  0.1824 -0.3540  0.0104
 8946TIP3   OH248328   0.656   4.566  13.242 -0.2090 -0.4938 -0.1617
 8946TIP3    H148329   0.644   4.653  13.278 -0.9516 -0.2205 -1.0328
 8946TIP3    H248330   0.730   4.574  13.182  1.3679 -1.0692  1.6309
 8947TIP3   OH248331   1.477   4.701   0.469  0.6489 -0.0241  0.1731
 8947TIP3    H148332   1.472   4.606   0.458 -0.6495 -0.0346  0.6648
 8947TIP3    H248333   1.559   4.715   0.518  0.4164 -0.9689  0.8646
 8948TIP3   OH248334   5.731   4.568   1.689 -0.3667  0.0892 -0.9683
 8948TIP3    H148335   5.749   4.635   1.623  0.2926  1.4677  0.5357
 8948TIP3    H248336   5.802   4.505   1.680 -0.5494 -0.0008 -1.8762
 8949TIP3   OH248337   0.991   6.493   3.219 -0.3441 -0.0511  0.4848
 8949TIP3    H148338   0.932   6.461   3.287  1.2804 -0.6463  1.6751
 8949TIP3    H248339   1.013   6.582   3.246 -0.2448 -0.0367  0.3558
 8950TIP3   OH248340   1.931   4.206  15.209 -0.0211  0.2294 -0.1883
 8950TIP3    H148341   2.001   4.141  15.216  0.9138  1.1903 -0.2944
 8950TIP3    H248342   1.977   4.290  15.202 -1.1794  0.8150 -1.0754
 8951TIP3   OH248343   1.554   4.724  13.193  0.0526  0.2495 -0.2600
 8951TIP3    H148344   1.462   4.722  13.168 -0.8191  1.2196  2.5303
 8951TIP3    H248345   1.573   4.634  13.222  0.4475 -0.3055 -2.0973
 8952TIP3   OH248346   3.711   5.634  16.817 -0.3281 -0.6693  0.2029
 8952TIP3    H148347   3.692   5.643  16.910 -1.3565 -0.4095 -0.0273
 8952TIP3    H248348   3.744   5.721  16.791 -1.8386 -0.1621 -0.0788
 8953TIP3   OH248349   5.709   1.790  13.579 -0.6870  0.3340  0.0927
 8953TIP3    H148350   5.680   1.735  13.507  1.2228  1.0147 -1.2707
 8953TIP3    H248351   5.731   1.728  13.649  0.1580 -0.5641 -0.9353
 8954TIP3   OH248352   4.168   4.199   0.954  0.1822 -0.0154  0.6649
 8954TIP3    H148353   4.107   4.225   1.023 -0.4806 -0.3984  0.2397
 8954TIP3    H248354   4.115   4.145   0.895  0.7401  0.2867 -0.1290
 8955TIP3   OH248355   6.638   5.365  17.180  0.3492  0.2046  0.2057
 8955TIP3    H148356   6.639   5.280  17.138 -2.0423 -0.8441  2.0454
 8955TIP3    H248357   6.574   5.417  17.131  0.6029  0.3885  0.0659
 8956TIP3   OH248358   0.274   2.422   2.390  0.1104 -0.0833  0.3200
 8956TIP3    H148359   0.349   2.370   2.360 -0.8833 -1.9519  0.8955
 8956TIP3    H248360   0.256   2.389   2.478 -1.4990  0.1823  0.1123
 8957TIP3   OH248361   1.484   1.230   3.677  0.2214  0.3653 -0.6108
 8957TIP3    H148362   1.412   1.249   3.617 -0.3729 -1.7021 -0.6452
 8957TIP3    H248363   1.484   1.134   3.684  0.6674  0.4867  2.1852
 8958TIP3   OH248364   5.240   3.131  14.756  0.1913  0.1167 -0.5449
 8958TIP3    H148365   5.163   3.102  14.706  0.2538 -0.9918 -0.0334
 8958TIP3    H248366   5.295   3.053  14.762  1.3492  0.8972 -0.8794
 8959TIP3   OH248367   3.991   1.671  17.100 -0.4928  0.1537  0.0753
 8959TIP3    H148368   3.928   1.738  17.125 -0.2722  0.2466  0.3881
 8959TIP3    H248369   4.021   1.697  17.012 -0.8293  0.1493 -0.0410
 8960TIP3   OH248370   5.026   3.538  12.990  0.5220 -0.0930 -0.9661
 8960TIP3    H148371   4.966   3.550  13.064  1.4666 -0.5621 -0.0867
 8960TIP3    H248372   5.056   3.448  12.997 -1.3440 -1.0132 -3.5142
 8961TIP3   OH248373   1.532   1.536  13.892 -1.0573  0.0388 -0.5935
 8961TIP3    H148374   1.472   1.593  13.939 -0.4575  0.3164 -0.1467
 8961TIP3    H248375   1.616   1.583  13.892 -0.3831 -1.0996  0.3313
 8962TIP3   OH248376   2.695   5.392  16.701 -0.7338  0.1053 -0.7282
 8962TIP3    H148377   2.669   5.300  16.699 -1.1786  0.2090 -0.0086
 8962TIP3    H248378   2.668   5.422  16.787  1.3339  0.3477 -0.1112
 8963TIP3   OH248379   0.776   0.998  13.112 -0.5289 -0.2574 -0.0428
 8963TIP3    H148380   0.757   1.001  13.206 -0.7963  0.8385 -0.1157
 8963TIP3    H248381   0.693   1.022  13.070 -0.3383 -0.4668 -0.5467
 8964TIP3   OH248382   3.907   6.211   1.043 -0.1610 -0.4526 -0.0699
 8964TIP3    H148383   3.978   6.159   1.080 -0.2163 -0.8673 -0.5494
 8964TIP3    H248384   3.950   6.273   0.985  0.0035  0.7258  1.2525
 8965TIP3   OH248385   5.758   5.310  11.770  0.7889 -0.5097 -0.4834
 8965TIP3    H148386   5.723   5.371  11.835  1.7814  0.2761 -0.6523
 8965TIP3    H248387   5.786   5.367  11.698 -0.4794 -1.3764 -1.6959
 8966TIP3   OH248388   1.074   2.997   3.951  0.1768 -0.4988 -0.1373
 8966TIP3    H148389   1.169   3.005   3.940 -0.1194  1.1248 -2.2253
 8966TIP3    H248390   1.051   2.916   3.907  0.5362 -0.5783 -0.1834
 8967TIP3   OH248391   3.263   1.958  15.693 -0.2079 -0.1631  0.1524
 8967TIP3    H148392   3.312   1.965  15.775 -2.0946  2.0476  1.1976
 8967TIP3    H248393   3.278   2.041  15.648 -0.5795 -0.6649 -0.9415
 8968TIP3   OH248394   4.929   0.528  15.029 -0.3477  0.3857 -0.2132
 8968TIP3    H148395   4.969   0.597  14.976 -3.6348  2.2114 -0.5618
 8968TIP3    H248396   4.892   0.467  14.965 -2.3854  1.4177 -0.1002
 8969TIP3   OH248397   0.008   6.393   2.477  0.4860 -0.8962  0.4424
 8969TIP3    H148398   0.076   6.373   2.541 -1.7154 -0.8567  2.9793
 8969TIP3    H248399  -0.041   6.465   2.517 -0.5219 -0.3039 -1.7214
 8970TIP3   OH248400   1.116   2.008   4.418  0.4328  0.0920  0.2661
 8970TIP3    H148401   1.107   1.947   4.491  1.3359 -0.7800 -0.3293
 8970TIP3    H248402   1.120   1.953   4.340 -1.5236  1.0518 -0.5878
 8971TIP3   OH248403   4.077   3.996  13.693 -0.2887 -0.0603  0.2012
 8971TIP3    H148404   4.155   4.045  13.666 -0.7784  1.4589  1.3794
 8971TIP3    H248405   4.098   3.965  13.781 -0.9198  0.1595  0.4342
 8972TIP3   OH248406   2.383   2.741  17.097 -0.2548  0.6064  0.3617
 8972TIP3    H148407   2.398   2.818  17.041  0.4366  1.6302  1.8842
 8972TIP3    H248408   2.383   2.776  17.186 -1.0219 -1.0241  1.0346
 8973TIP3   OH248409   6.564   4.020   4.888 -0.4363 -0.0629  0.2302
 8973TIP3    H148410   6.505   4.080   4.841  0.5805 -0.0376 -1.0680
 8973TIP3    H248411   6.651   4.059   4.877 -0.0197 -0.7418  1.0746
 8974TIP3   OH248412   4.046   4.358  16.379  0.6486 -0.1376 -0.2562
 8974TIP3    H148413   3.990   4.387  16.451 -2.0693 -0.0710 -2.2535
 8974TIP3    H248414   4.052   4.263  16.390  0.5874 -0.0873  0.2444
 8975TIP3   OH248415   1.424   4.777  11.703 -0.7456  0.6322 -0.2432
 8975TIP3    H148416   1.345   4.809  11.660 -1.5583  0.6337  1.1794
 8975TIP3    H248417   1.451   4.850  11.759 -0.1410  0.3708 -0.1875
 8976TIP3   OH248418   1.104   1.414   6.750  0.5611  0.1227 -0.1623
 8976TIP3    H148419   1.153   1.490   6.782  1.5873 -0.4491 -0.3259
 8976TIP3    H248420   1.155   1.338   6.780 -0.4185 -0.5081 -0.0391
 8977TIP3   OH248421   2.740   4.589  15.089  0.3086  0.4831  0.0265
 8977TIP3    H148422   2.647   4.584  15.111 -0.3746  0.9866 -2.3851
 8977TIP3    H248423   2.772   4.666  15.137 -0.0587 -0.5958  2.1297
 8978TIP3   OH248424   2.569   2.508   2.198 -0.2853 -0.4025  0.2478
 8978TIP3    H148425   2.639   2.453   2.163 -1.3711 -0.6929 -1.5843
 8978TIP3    H248426   2.570   2.586   2.143  0.8214  1.1960  2.4186
 8979TIP3   OH248427   5.082   1.404   1.302  0.0223  0.2726 -0.2435
 8979TIP3    H148428   5.109   1.490   1.335 -1.3248  0.2057  1.2030
 8979TIP3    H248429   5.127   1.341   1.359  1.6131 -0.0388 -1.7872
 8980TIP3   OH248430   2.766   2.831   5.707  0.0528 -0.0133  0.4681
 8980TIP3    H148431   2.763   2.927   5.701 -0.4201 -0.0677 -0.3136
 8980TIP3    H248432   2.854   2.811   5.737  0.8035  0.5876 -1.2200
 8981TIP3   OH248433   6.609   1.057   2.616 -0.1243  0.1195  0.3632
 8981TIP3    H148434   6.647   1.017   2.694 -0.9478  3.1635  2.5410
 8981TIP3    H248435   6.520   1.024   2.613  0.1231 -0.5507  0.2942
 8982TIP3   OH248436   4.107   0.697  11.383  0.0791 -0.4581 -0.2216
 8982TIP3    H148437   4.026   0.737  11.350  0.8446  3.5864  2.0936
 8982TIP3    H248438   4.163   0.691  11.305 -1.5562 -1.1234 -1.4271
 8983TIP3   OH248439   4.975   2.844  16.219  0.0515  0.6974  0.0964
 8983TIP3    H148440   4.967   2.767  16.275  0.0053  0.3542 -0.3757
 8983TIP3    H248441   5.045   2.895  16.260 -0.0269  0.4862  0.5026
 8984TIP3   OH248442   1.955   0.075  14.982 -0.5028 -0.3055 -0.3708
 8984TIP3    H148443   1.891   0.144  14.994  0.3926  0.5887 -0.6079
 8984TIP3    H248444   1.994   0.093  14.897 -0.5872 -1.3895 -0.6553
 8985TIP3   OH248445   6.650   6.025  16.946  0.1449 -0.9757  0.7257
 8985TIP3    H148446   6.609   6.031  17.032 -1.5401  0.5033 -0.1251
 8985TIP3    H248447   6.608   5.950  16.904  0.3435 -1.1647  0.8608
 8986TIP3   OH248448   5.872   5.970  13.487 -0.1403  0.0238 -0.4497
 8986TIP3    H148449   5.889   5.882  13.452  0.4617  0.7606 -2.1349
 8986TIP3    H248450   5.870   6.026  13.410  1.8025  1.8660  0.7290
 8987TIP3   OH248451   2.119   1.667  10.663  0.0690 -0.7234  0.4483
 8987TIP3    H148452   2.166   1.592  10.626  0.8277 -0.6632  1.2720
 8987TIP3    H248453   2.177   1.742  10.649 -0.3327 -0.4233  0.3564
 8988TIP3   OH248454   2.658   2.406  12.144 -0.2258 -0.1837  0.1267
 8988TIP3    H148455   2.585   2.351  12.116  0.5007 -1.4450  0.6418
 8988TIP3    H248456   2.676   2.462  12.068 -1.9194  0.4028  0.1012
 8989TIP3   OH248457   4.218   5.773  14.050 -0.1313  0.3761 -0.5724
 8989TIP3    H148458   4.189   5.693  14.006  0.2161  0.2707 -0.6063
 8989TIP3    H248459   4.150   5.837  14.029 -0.5122  0.0393 -0.3818
 8990TIP3   OH248460   6.728   2.078  12.182  0.1414  0.0389 -0.1465
 8990TIP3    H148461   6.752   2.005  12.126 -0.4088  0.4529 -0.9511
 8990TIP3    H248462   6.664   2.042  12.244  0.9245 -0.4738  0.3774
 8991TIP3   OH248463   0.580   2.634  11.619  1.0675  0.4449 -1.0024
 8991TIP3    H148464   0.644   2.638  11.548  1.3884  0.4895 -0.7106
 8991TIP3    H248465   0.614   2.693  11.686  1.5386 -0.7276 -0.1762
 8992TIP3   OH248466   2.085   2.377   1.014 -0.5962  0.0796  0.1921
 8992TIP3    H148467   2.019   2.314   1.045  0.5883 -3.7407 -4.0104
 8992TIP3    H248468   2.166   2.327   1.012  1.1343  2.7373 -0.6544
 8993TIP3   OH248469   4.434   0.488  15.919  0.1679 -0.1110  0.1630
 8993TIP3    H148470   4.462   0.546  15.990  0.5631 -0.8362  0.6128
 8993TIP3    H248471   4.491   0.511  15.845  0.1314  0.2621  0.2478
 8994TIP3   OH248472   1.242   1.965   1.582  0.0882  0.4538 -0.2841
 8994TIP3    H148473   1.203   1.879   1.594  0.3944  0.4893  1.1429
 8994TIP3    H248474   1.269   1.967   1.490 -1.9593 -0.0937 -0.9501
 8995TIP3   OH248475   1.708   3.515  14.792 -0.6857  0.0970  0.2099
 8995TIP3    H148476   1.703   3.513  14.887 -1.6185  1.6797  0.2332
 8995TIP3    H248477   1.742   3.602  14.771 -3.5846  1.0758 -0.9391
 8996TIP3   OH248478   2.572   2.525   3.874 -0.4491  0.1712  0.0315
 8996TIP3    H148479   2.658   2.502   3.837 -0.1692 -0.7680  1.2066
 8996TIP3    H248480   2.576   2.620   3.886  0.9661 -0.0253  1.3403
 8997TIP3   OH248481   3.381   2.557  12.051 -0.3807  0.1655 -0.9532
 8997TIP3    H148482   3.436   2.598  11.984  0.2550 -0.4354 -0.8080
 8997TIP3    H248483   3.351   2.476  12.010 -1.1201  0.4621 -1.0092
 8998TIP3   OH248484   5.297   3.544   1.604 -0.0353 -0.8441 -0.0866
 8998TIP3    H148485   5.309   3.599   1.681 -0.9034 -1.2670  0.3696
 8998TIP3    H248486   5.217   3.578   1.563  0.7906 -0.1848 -1.1942
 8999TIP3   OH248487   6.225   1.683  14.042  0.6350 -0.1028 -0.2481
 8999TIP3    H148488   6.275   1.752  14.086  0.0509  1.6100 -2.1254
 8999TIP3    H248489   6.134   1.700  14.065  0.4932 -0.2990 -0.6438
 9000TIP3   OH248490   2.561   6.414   0.389  0.8406 -0.2635 -0.2113
 9000TIP3    H148491   2.593   6.428   0.300 -0.0684 -0.3539 -0.5667
 9000TIP3    H248492   2.594   6.489   0.438  1.2881 -0.1738 -0.6382
 9001TIP3   OH248493   6.579   4.735   1.302 -0.1305 -0.2909  0.3731
 9001TIP3    H148494   6.651   4.737   1.366  1.4668  1.5092 -1.3627
 9001TIP3    H248495   6.586   4.649   1.261  0.7519 -0.3141  0.5475
 9002TIP3   OH248496   3.981   5.993   5.942  0.0883 -0.5530  0.3828
 9002TIP3    H148497   3.918   6.051   5.900 -0.9139 -0.7638  1.5420
 9002TIP3    H248498   3.964   5.907   5.903  0.6088 -0.3702 -0.2866
 9003TIP3   OH248499   5.311   4.475  14.433  0.1831 -0.6260 -0.1599
 9003TIP3    H148500   5.255   4.408  14.394  0.1672 -1.0310  0.5354
 9003TIP3    H248501   5.353   4.430  14.507  1.0166 -0.1774 -0.3538
 9004TIP3   OH248502   6.138   3.608   4.201  0.1111 -0.6402  0.3440
 9004TIP3    H148503   6.181   3.564   4.274 -1.1811 -0.5766  1.1694
 9004TIP3    H248504   6.081   3.542   4.163 -0.8830 -0.0685  0.7961
 9005TIP3   OH248505   6.502   2.996   5.347  0.2000 -0.1472 -0.3105
 9005TIP3    H148506   6.567   2.966   5.284  0.2943  0.8165 -0.6855
 9005TIP3    H248507   6.456   3.068   5.303 -1.2135 -0.8829 -0.0983
 9006TIP3   OH248508   1.314   6.519   1.572  0.1464  0.5505  1.1164
 9006TIP3    H148509   1.295   6.432   1.606 -0.8065  0.2370 -0.1103
 9006TIP3    H248510   1.229   6.553   1.544  0.9563 -0.2758 -3.2170
 9007TIP3   OH248511   4.528   5.575   4.596 -0.1111  0.4181 -0.0054
 9007TIP3    H148512   4.433   5.585   4.583  0.1131  0.1518 -2.2717
 9007TIP3    H248513   4.540   5.482   4.612 -0.0998  0.1367 -1.5115
 9008TIP3   OH248514   2.979   3.230  14.940  0.7531  0.3501  0.3237
 9008TIP3    H148515   2.987   3.256  15.031 -1.7339  0.2207  0.6574
 9008TIP3    H248516   3.013   3.140  14.938 -0.3096 -0.1215  1.4531
 9009TIP3   OH248517   5.663   5.323   6.166  0.4307 -0.1566  0.0883
 9009TIP3    H148518   5.656   5.364   6.253  0.5004  0.2698 -0.1083
 9009TIP3    H248519   5.754   5.336   6.140  0.1424  0.7089 -0.5333
 9010TIP3   OH248520   6.463   6.172   5.237 -0.1207  0.1270  0.5399
 9010TIP3    H148521   6.406   6.098   5.215 -0.4818  0.1504  1.3819
 9010TIP3    H248522   6.545   6.131   5.264 -0.3868  0.0147  1.1993
 9011TIP3   OH248523   2.521   2.223   2.684 -0.2052  0.1440  0.0356
 9011TIP3    H148524   2.560   2.308   2.663 -0.4431 -0.0578 -1.2690
 9011TIP3    H248525   2.442   2.245   2.734 -0.6878  0.7288 -0.9570
 9012TIP3   OH248526   0.675   1.885  14.381  0.2088 -0.0665 -0.0507
 9012TIP3    H148527   0.619   1.853  14.451 -1.0939  0.7128 -0.6958
 9012TIP3    H248528   0.706   1.805  14.337 -0.3587 -0.5161  0.3474
 9013TIP3   OH248529   3.765   3.372  14.071  0.1906 -0.1116 -0.1971
 9013TIP3    H148530   3.697   3.360  14.005 -0.1956  1.2149 -0.0744
 9013TIP3    H248531   3.772   3.287  14.115 -1.2763 -0.3051 -0.3105
 9014TIP3   OH248532   3.332   0.836  12.298 -0.2283 -0.1989  0.8160
 9014TIP3    H148533   3.253   0.845  12.245  0.4738  0.4429 -0.1564
 9014TIP3    H248534   3.386   0.910  12.273  1.0951 -1.1576  0.7504
 9015TIP3   OH248535   4.776   3.916  11.715  0.4291 -0.3503  0.3367
 9015TIP3    H148536   4.849   3.854  11.716 -0.2736 -1.2774 -1.2618
 9015TIP3    H248537   4.730   3.901  11.797  1.1835 -0.8102  0.6811
 9016TIP3   OH248538   1.141   5.147   6.455  0.7809 -0.7676  0.0055
 9016TIP3    H148539   1.167   5.236   6.481  0.1385 -1.0356  1.6868
 9016TIP3    H248540   1.120   5.103   6.538 -1.7254 -1.5737 -0.9454
 9017TIP3   OH248541   0.011   5.167  16.673  0.2898 -0.0131 -0.1473
 9017TIP3    H148542   0.017   5.189  16.580 -1.9237  1.4458 -0.0102
 9017TIP3    H248543  -0.012   5.075  16.674  2.5500 -0.6517 -0.9401
 9018TIP3   OH248544   6.012   2.142   0.905 -0.7419 -0.8702 -0.0889
 9018TIP3    H148545   6.012   2.124   0.811  2.3756 -0.9751 -0.1671
 9018TIP3    H248546   5.961   2.223   0.915 -0.4456 -0.4234 -1.9633
 9019TIP3   OH248547   2.253   3.212   0.449 -0.2849  0.0804 -0.5709
 9019TIP3    H148548   2.169   3.172   0.429 -0.9247  1.2420 -0.2974
 9019TIP3    H248549   2.240   3.306   0.433  0.6421  0.4181  0.4642
 9020TIP3   OH248550   2.813   2.348  15.695 -0.6264 -0.2265 -0.2563
 9020TIP3    H148551   2.902   2.352  15.731 -0.0549  3.8418 -1.6281
 9020TIP3    H248552   2.818   2.281  15.626  1.1812 -0.5495  0.1353
 9021TIP3   OH248553   4.115   2.474   5.555 -0.1223  0.6682 -0.2942
 9021TIP3    H148554   4.060   2.486   5.632  0.1456 -1.1080  0.2347
 9021TIP3    H248555   4.057   2.491   5.481 -0.2441  2.9253  0.2580
 9022TIP3   OH248556   5.863   5.172   2.314 -0.1245 -0.0342 -0.3144
 9022TIP3    H148557   5.862   5.125   2.231  1.3277  0.4638 -0.6243
 9022TIP3    H248558   5.908   5.254   2.296 -0.0323  0.2016  0.8962
 9023TIP3   OH248559   2.441   2.358   6.050  0.9749 -0.3545 -0.0074
 9023TIP3    H148560   2.520   2.371   5.998  0.5440  1.0250 -0.3473
 9023TIP3    H248561   2.450   2.419   6.123  0.7883 -1.0770  0.6336
 9024TIP3   OH248562   6.058   6.448   1.337 -0.4026 -0.1139  0.0960
 9024TIP3    H148563   5.982   6.467   1.392 -0.8100  1.1696 -0.8592
 9024TIP3    H248564   6.125   6.510   1.365 -0.2837 -0.1088 -0.1908
 9025TIP3   OH248565   6.438   0.819   1.955 -0.3474 -0.3594 -0.0679
 9025TIP3    H148566   6.379   0.796   2.027 -0.8514 -1.4081 -0.7869
 9025TIP3    H248567   6.502   0.747   1.952  0.0172 -0.0284 -0.2865
 9026TIP3   OH248568   0.222   2.311   4.859 -0.0787 -0.2503  0.0056
 9026TIP3    H148569   0.209   2.383   4.797 -1.9209 -0.7687 -0.2694
 9026TIP3    H248570   0.192   2.346   4.943 -1.4482 -0.8099 -0.2229
 9027TIP3   OH248571   3.361   1.988   4.276  0.4317 -0.2824 -0.3400
 9027TIP3    H148572   3.389   2.078   4.260 -3.1595  1.3192  1.3668
 9027TIP3    H248573   3.275   1.981   4.236 -0.3828 -2.2221  1.5363
 9028TIP3   OH248574   0.956   0.462  12.416  0.2387 -0.4444 -0.2073
 9028TIP3    H148575   0.997   0.390  12.367  1.1232  0.2949 -0.5838
 9028TIP3    H248576   0.905   0.418  12.485 -1.4161 -1.5291 -2.0372
 9029TIP3   OH248577   6.612   3.193  13.847 -0.0441 -0.1034 -0.5081
 9029TIP3    H148578   6.683   3.255  13.829  0.2825 -0.4363 -0.3726
 9029TIP3    H248579   6.652   3.107  13.836 -0.0705 -0.3119  0.8988
 9030TIP3   OH248580   2.934   4.275   4.100  0.3357 -0.4383 -0.0451
 9030TIP3    H148581   2.884   4.214   4.155  0.3013  0.9726  1.5658
 9030TIP3    H248582   2.875   4.294   4.027 -1.6007  1.1394  1.7726
 9031TIP3   OH248583   1.613   2.046   6.528 -0.2138 -0.5809 -0.1818
 9031TIP3    H148584   1.640   2.136   6.510 -0.4551  0.8432  4.9660
 9031TIP3    H248585   1.694   1.996   6.530  0.2275  0.1184 -0.5342
 9032TIP3   OH248586   1.387   0.655  14.176 -0.1575  0.9109  0.5511
 9032TIP3    H148587   1.338   0.606  14.110  0.9284  0.5381 -0.0014
 9032TIP3    H248588   1.345   0.632  14.259 -0.2135 -0.2844  0.2132
 9033TIP3   OH248589   2.976   0.466  10.965  0.3480  0.1581  0.1552
 9033TIP3    H148590   2.983   0.371  10.961 -1.3358  0.0469 -2.5036
 9033TIP3    H248591   2.890   0.482  11.006  0.4124  0.5240  0.1516
 9034TIP3   OH248592   4.023   0.794   0.216  0.1084  0.4841  0.8629
 9034TIP3    H148593   3.975   0.875   0.234 -0.3851  0.9641 -2.1691
 9034TIP3    H248594   4.101   0.823   0.169  0.0872 -0.7511  0.0281
 9035TIP3   OH248595   2.249   2.286   0.070  0.6114  0.4232 -0.3849
 9035TIP3    H148596   2.269   2.338  -0.008  0.3542  0.7554 -0.2301
 9035TIP3    H248597   2.263   2.196   0.042 -0.1612  0.4865 -1.0370
 9036TIP3   OH248598   4.223   6.421   3.950  0.1582 -1.0486  0.0950
 9036TIP3    H148599   4.310   6.392   3.921  1.0190  0.5000  0.9554
 9036TIP3    H248600   4.241   6.473   4.029 -1.4295  0.4214 -0.4617
 9037TIP3   OH248601   1.221   5.976  11.757  0.2291 -0.0082  0.4639
 9037TIP3    H148602   1.204   5.968  11.851  1.3977  0.0913  0.7059
 9037TIP3    H248603   1.218   6.071  11.741 -2.6681 -0.1335 -0.1744
 9038TIP3   OH248604   0.674   0.150  15.214  0.4209  0.1157  0.0388
 9038TIP3    H148605   0.586   0.177  15.240  1.1800  1.3141  1.5021
 9038TIP3    H248606   0.709   0.106  15.292  1.6564  1.0350  0.0160
 9039TIP3   OH248607   4.709   0.149   1.163 -0.1355  0.0202 -0.6820
 9039TIP3    H148608   4.698   0.055   1.178 -1.1013 -0.1263 -2.1301
 9039TIP3    H248609   4.750   0.155   1.077 -0.3707  0.9337 -0.7404
 9040TIP3   OH248610   0.155   4.346  13.652 -0.1522  0.5166  0.2099
 9040TIP3    H148611   0.203   4.367  13.572 -1.9602 -0.0718 -1.0957
 9040TIP3    H248612   0.218   4.300  13.707  0.9641  0.4074 -1.1170
 9041TIP3   OH248613   4.263   6.343  14.915  0.6485  0.4546 -0.3438
 9041TIP3    H148614   4.201   6.305  14.977  0.1072  0.4130 -0.8933
 9041TIP3    H248615   4.313   6.407  14.966 -0.7680  1.4746 -0.1924
 9042TIP3   OH248616   2.160   5.155   5.369 -0.1019  0.7754 -0.3773
 9042TIP3    H148617   2.086   5.097   5.351 -1.5718  2.5812 -0.5059
 9042TIP3    H248618   2.135   5.202   5.449  1.8001  0.0706  0.6772
 9043TIP3   OH248619   6.693   5.133  14.693 -0.1459 -0.0290  0.1183
 9043TIP3    H148620   6.717   5.207  14.637 -0.3339  0.4963  0.7245
 9043TIP3    H248621   6.721   5.159  14.780 -1.0683 -0.2720  0.4952
 9044TIP3   OH248622   2.545   6.125  13.117  0.6923 -0.0319 -0.3361
 9044TIP3    H148623   2.516   6.042  13.155  1.0421  1.2045  2.8940
 9044TIP3    H248624   2.501   6.192  13.169  1.9307  1.8474 -1.5749
 9045TIP3   OH248625   0.805   3.398   4.709 -0.0679  0.6512 -0.3019
 9045TIP3    H148626   0.730   3.345   4.683 -0.7175  1.3742  0.0404
 9045TIP3    H248627   0.881   3.340   4.699 -0.6557 -0.0493 -0.7754
 9046TIP3   OH248628   3.616   0.363  15.479  0.1551  0.1977  0.1886
 9046TIP3    H148629   3.640   0.297  15.543 -0.4582 -0.4393 -0.2216
 9046TIP3    H248630   3.564   0.426  15.527 -1.2834 -0.8823  0.0948
 9047TIP3   OH248631   4.453   5.902  14.573 -0.0563  0.0755 -0.0783
 9047TIP3    H148632   4.441   5.945  14.488 -0.5278  0.3424  0.1254
 9047TIP3    H248633   4.367   5.869  14.596  0.3490 -1.2956 -0.3936
 9048TIP3   OH248634   6.609   5.885  14.016 -0.2927  0.0331 -0.1177
 9048TIP3    H148635   6.552   5.917  13.946  1.1258 -0.6596 -1.6372
 9048TIP3    H248636   6.694   5.873  13.975  0.4864 -0.8167  1.6321
 9049TIP3   OH248637   3.076   2.787   2.945 -0.8986 -0.5457  0.3647
 9049TIP3    H148638   3.088   2.706   2.995  0.0321  0.2518  1.4738
 9049TIP3    H248639   3.159   2.799   2.899 -0.3110  0.7583  1.7020
 9050TIP3   OH248640   0.847   5.286  16.594 -0.0189  0.2772 -0.2888
 9050TIP3    H148641   0.753   5.303  16.596 -0.1232 -0.3259  1.6014
 9050TIP3    H248642   0.854   5.192  16.581  0.4489  0.6472 -3.7182
 9051TIP3   OH248643   1.248   5.261   2.356  0.0711 -0.2150  0.3537
 9051TIP3    H148644   1.186   5.327   2.388 -0.6655 -0.5923 -0.2801
 9051TIP3    H248645   1.208   5.178   2.379  0.0951 -0.4707 -0.5281
 9052TIP3   OH248646   2.459   0.494  11.524  0.1929 -0.5336  0.5760
 9052TIP3    H148647   2.439   0.443  11.445  0.2415 -0.6975  0.6670
 9052TIP3    H248648   2.456   0.429  11.595  0.5180 -0.4613  0.6587
 9053TIP3   OH248649   0.071   6.258   5.087  0.0221  0.1868  0.4305
 9053TIP3    H148650   0.100   6.281   4.999 -0.1314  0.9036  0.5633
 9053TIP3    H248651   0.051   6.164   5.081  0.3134  0.1545 -0.2104
 9054TIP3   OH248652   3.318   0.157  17.061 -0.4021  0.5220  0.2212
 9054TIP3    H148653   3.277   0.229  17.013 -0.2767  0.3825 -0.0983
 9054TIP3    H248654   3.351   0.198  17.141  0.1813  0.9464 -0.2251
 9055TIP3   OH248655   1.350   6.444   3.464  0.3337  0.0252 -0.4672
 9055TIP3    H148656   1.321   6.532   3.443  0.7690  0.2821 -0.0089
 9055TIP3    H248657   1.431   6.432   3.414  0.0127 -0.3050 -0.9222
 9056TIP3   OH248658   2.353   0.356  11.316  0.3734  0.1892  0.4391
 9056TIP3    H148659   2.327   0.265  11.335  2.5408 -0.5023  0.3117
 9056TIP3    H248660   2.410   0.349  11.239 -0.0287  1.7730 -0.0308
 9057TIP3   OH248661   5.213   5.142   0.470  0.6829  0.6167  0.5527
 9057TIP3    H148662   5.207   5.167   0.378  0.7425  0.5471  0.5301
 9057TIP3    H248663   5.259   5.058   0.469 -0.2137  0.1160  0.5648
 9058TIP3   OH248664   6.672   4.953  16.413 -0.5669  0.5770  0.0697
 9058TIP3    H148665   6.759   4.930  16.381 -0.0450  1.3176  0.9232
 9058TIP3    H248666   6.612   4.899  16.361  0.4311 -0.3751 -0.1172
 9059TIP3   OH248667   1.537   1.584  17.121 -0.0095  0.5516  0.1078
 9059TIP3    H148668   1.548   1.663  17.173  2.2245 -1.3693  2.8115
 9059TIP3    H248669   1.456   1.545  17.153 -0.8562  1.4162 -0.8930
 9060TIP3   OH248670   5.021   6.109  10.864 -0.5540 -0.3380 -0.3641
 9060TIP3    H148671   5.014   6.182  10.802 -0.2301 -0.9329 -1.1314
 9060TIP3    H248672   5.111   6.112  10.895 -0.7231 -0.0263  0.0962
 9061TIP3   OH248673   2.084   3.169   3.064 -0.4723 -0.4486  0.2751
 9061TIP3    H148674   2.076   3.214   2.980 -1.7050  0.1093  0.6753
 9061TIP3    H248675   2.158   3.213   3.107 -0.0391 -0.5254 -0.3739
 9062TIP3   OH248676   1.890   4.937   6.077 -0.1032  0.4419  0.2247
 9062TIP3    H148677   1.959   5.004   6.071  1.1457 -0.8989 -2.1704
 9062TIP3    H248678   1.928   4.869   6.132  1.1599 -0.8558 -2.0685
 9063TIP3   OH248679   6.769   5.851   0.017 -0.4164  0.1168 -0.1542
 9063TIP3    H148680   6.798   5.941   0.036 -0.4886  0.1889 -0.3768
 9063TIP3    H248681   6.701   5.834   0.081  0.3374 -0.1728  0.5866
 9064TIP3   OH248682   1.212   0.856   4.972  0.3311  0.2572  0.3363
 9064TIP3    H148683   1.287   0.798   4.958  0.1517  0.0192  0.3625
 9064TIP3    H248684   1.235   0.906   5.050 -0.1836 -0.8633  1.2177
 9065TIP3   OH248685   6.451   5.603  13.023  0.0288  0.9129  0.1283
 9065TIP3    H148686   6.543   5.627  13.031  0.8239 -1.7463 -0.1035
 9065TIP3    H248687   6.440   5.528  13.082 -1.5634  0.1730 -1.0269
 9066TIP3   OH248688   4.536   6.324  15.781 -0.6723  0.3048 -0.4219
 9066TIP3    H148689   4.555   6.296  15.692 -1.4651 -0.8579 -0.2543
 9066TIP3    H248690   4.497   6.412  15.771 -0.1733  0.4501 -1.1544
 9067TIP3   OH248691   3.729   1.476  12.000  0.1727 -0.3267 -0.7497
 9067TIP3    H148692   3.645   1.454  12.041 -0.1976 -1.5544 -2.0695
 9067TIP3    H248693   3.782   1.396  12.010  1.0587  0.2990 -0.2849
 9068TIP3   OH248694   5.600   3.075  17.180 -0.3485  0.1379 -0.1575
 9068TIP3    H148695   5.617   3.144  17.244  0.4709 -0.5420  0.3767
 9068TIP3    H248696   5.675   3.016  17.188  0.1969  0.4631 -2.3219
 9069TIP3   OH248697   4.567   1.944  11.763  0.0589 -0.0392 -0.4650
 9069TIP3    H148698   4.538   1.859  11.795 -0.4140  0.5609  0.7522
 9069TIP3    H248699   4.575   1.933  11.668  0.7152 -1.6369 -0.2390
 9070TIP3   OH248700   4.715   3.917   5.396  0.1576  0.2462 -0.0499
 9070TIP3    H148701   4.634   3.876   5.427  0.2541  0.4693  0.5128
 9070TIP3    H248702   4.782   3.850   5.408 -0.0719 -0.2026 -1.2279
 9071TIP3   OH248703   1.561   3.377  14.042 -0.0307  0.2556  0.1267
 9071TIP3    H148704   1.636   3.436  14.035 -1.4915  2.0003 -2.2115
 9071TIP3    H248705   1.600   3.291  14.059  2.3239  1.4216  1.0788
 9072TIP3   OH248706   5.863   3.829  13.576 -0.3132 -0.0407  0.6201
 9072TIP3    H148707   5.785   3.775  13.563  0.4832 -1.3485  1.1112
 9072TIP3    H248708   5.882   3.822  13.669  1.7411 -1.7293  0.1514
 9073TIP3   OH248709   4.061   4.512   5.759 -0.1107 -0.7429 -0.7533
 9073TIP3    H148710   4.013   4.582   5.715  0.8683 -0.1262 -0.8723
 9073TIP3    H248711   4.058   4.537   5.852  0.0801 -0.6407 -0.7745
 9074TIP3   OH248712   1.714   2.476  15.921 -0.6567 -0.6689 -0.3254
 9074TIP3    H148713   1.736   2.392  15.961  0.0063  0.4748  1.9133
 9074TIP3    H248714   1.645   2.512  15.977 -0.7618  0.3777 -1.0940
 9075TIP3   OH248715   3.604   4.106   5.044 -0.1275 -0.0262  0.2496
 9075TIP3    H148716   3.511   4.128   5.056  0.1030  0.6250  0.8883
 9075TIP3    H248717   3.638   4.176   4.989  0.3636  0.6642  1.4002
 9076TIP3   OH248718   1.881   3.836   1.420  0.7427 -0.1868 -0.2061
 9076TIP3    H148719   1.971   3.860   1.401  0.6697  0.2093 -0.0614
 9076TIP3    H248720   1.835   3.846   1.337  0.8255 -0.3727 -0.2759
 9077TIP3   OH248721   5.877   6.424   1.958  0.4916 -0.1200  0.3126
 9077TIP3    H148722   5.853   6.480   2.031  0.6018  0.0246  0.2377
 9077TIP3    H248723   5.851   6.474   1.880  0.8255 -0.0621  0.2383
 9078TIP3   OH248724   3.410   2.594   5.435  0.3286  0.4434  0.4808
 9078TIP3    H148725   3.392   2.547   5.353  0.5542  1.3621 -0.1115
 9078TIP3    H248726   3.328   2.641   5.453 -0.1364 -0.6903  1.4439
 9079TIP3   OH248727   0.160   0.547   5.062 -0.0898  0.0305 -0.3752
 9079TIP3    H148728   0.072   0.510   5.071  0.0637 -0.1936  0.2522
 9079TIP3    H248729   0.207   0.483   5.009 -0.4314  0.3808 -1.1197
 9080TIP3   OH248730   6.496   3.227  12.703 -0.5303 -0.5312  0.6084
 9080TIP3    H148731   6.453   3.197  12.623 -0.1747 -0.0081  0.2119
 9080TIP3    H248732   6.580   3.180  12.704 -0.2429 -0.0377  0.3124
 9081TIP3   OH248733   2.647   1.945  11.836  0.3118  0.0625  0.3670
 9081TIP3    H148734   2.591   1.931  11.759  2.6568  2.2548 -1.9166
 9081TIP3    H248735   2.606   2.019  11.881  0.0140  0.0397  0.1423
 9082TIP3   OH248736   3.536   5.144   4.434 -0.4067  0.0402 -0.0975
 9082TIP3    H148737   3.447   5.177   4.447  0.1493  2.6022 -1.9975
 9082TIP3    H248738   3.527   5.049   4.442 -3.1334  0.2626  0.6108
 9083TIP3   OH248739   1.012   4.093   3.642  0.2163  0.0566  0.0801
 9083TIP3    H148740   0.969   4.024   3.592  1.2260  0.2521 -1.1055
 9083TIP3    H248741   1.054   4.047   3.716 -0.4076 -0.3770  0.1693
 9084TIP3   OH248742   4.249   4.867   3.596 -0.2658  0.4125  1.0535
 9084TIP3    H148743   4.278   4.784   3.634 -1.2191 -0.2221  0.4528
 9084TIP3    H248744   4.212   4.915   3.670 -0.2098  0.0669  1.3106
 9085TIP3   OH248745   2.621   4.343  11.472 -0.0957  0.6362 -0.6196
 9085TIP3    H148746   2.679   4.274  11.505 -0.3755 -0.0810 -1.5635
 9085TIP3    H248747   2.670   4.424  11.484  0.3536  0.2443  0.2597
 9086TIP3   OH248748   5.654   4.084   2.484  1.0138  0.2536  0.1188
 9086TIP3    H148749   5.614   4.042   2.560  3.3482 -1.1178  0.7113
 9086TIP3    H248750   5.645   4.178   2.501 -0.4909 -0.0049  0.9381
 9087TIP3   OH248751   2.316   0.120  16.682  0.0145 -0.7423  0.1041
 9087TIP3    H148752   2.271   0.109  16.765 -0.7012 -0.2027 -0.2013
 9087TIP3    H248753   2.373   0.196  16.696  0.7401 -1.3388  0.4447
 9088TIP3   OH248754   6.055   2.672   3.248  0.0608 -0.3861 -0.2488
 9088TIP3    H148755   6.095   2.727   3.315  1.6525 -1.7693 -0.0128
 9088TIP3    H248756   6.086   2.710   3.165 -0.4961  0.2633 -0.1737
 9089TIP3   OH248757   4.191   5.065  14.558  0.3939  0.3672  0.4942
 9089TIP3    H148758   4.192   5.000  14.488  2.2630 -0.0678  0.8681
 9089TIP3    H248759   4.268   5.044  14.611 -0.2869  1.4500  1.9759
 9090TIP3   OH248760   1.458   5.154  15.805 -0.2972  0.0463  0.2164
 9090TIP3    H148761   1.425   5.178  15.892 -1.3956 -1.0671  0.1205
 9090TIP3    H248762   1.535   5.100  15.823  1.0944  1.9619  0.4393
 9091TIP3   OH248763   5.318   5.170   5.552  0.1410 -0.1544  0.2102
 9091TIP3    H148764   5.350   5.122   5.628  0.6397 -0.3481 -0.1095
 9091TIP3    H248765   5.231   5.199   5.576  0.5160  0.2789  1.0635
 9092TIP3   OH248766   5.182   4.341   6.231 -0.3674 -0.3890 -0.3980
 9092TIP3    H148767   5.190   4.408   6.163  0.7090  0.7397  0.7851
 9092TIP3    H248768   5.202   4.387   6.312 -2.1300 -1.5891  0.7739
 9093TIP3   OH248769   3.988   6.244  14.496  0.0546 -0.2956  0.1998
 9093TIP3    H148770   3.918   6.239  14.561  0.2605 -0.5437  0.3995
 9093TIP3    H248771   4.066   6.210  14.540  0.7031  1.4939  0.5237
 9094TIP3   OH248772   2.973   6.575   1.006  0.0043  0.0556  0.0632
 9094TIP3    H148773   2.954   6.666   1.029 -0.5114  0.0067 -0.1367
 9094TIP3    H248774   3.064   6.562   1.030  0.1433  0.6888 -0.1059
 9095TIP3   OH248775   5.734   1.077  12.030 -0.0915 -0.1718  0.0715
 9095TIP3    H148776   5.738   1.038  12.118 -1.0315  0.3215  0.3556
 9095TIP3    H248777   5.795   1.026  11.978 -0.1341 -1.0079  0.8165
 9096TIP3   OH248778   3.138   0.954  14.833 -0.2395  0.4647  0.1870
 9096TIP3    H148779   3.141   0.919  14.744  2.2264 -0.4986  0.5687
 9096TIP3    H248780   3.151   1.048  14.822 -0.3179  0.4021 -0.4933
 9097TIP3   OH248781   3.946   2.877  17.071  0.1625 -0.4350  0.3456
 9097TIP3    H148782   3.981   2.788  17.072 -0.8886 -0.9150 -1.2789
 9097TIP3    H248783   3.857   2.869  17.106  0.2537  0.0727  0.7033
 9098TIP3   OH248784   4.033   4.142  11.718 -0.7062  0.3902 -0.2936
 9098TIP3    H148785   4.034   4.235  11.695  2.3333  0.5615  0.0180
 9098TIP3    H248786   4.093   4.102  11.655  0.9612 -0.6466  1.8194
 9099TIP3   OH248787   0.183   6.726  11.934 -0.0210  0.1628 -0.1915
 9099TIP3    H148788   0.162   6.784  11.861 -0.0985  1.2314  0.6509
 9099TIP3    H248789   0.174   6.638  11.898  0.3144  0.6588 -1.5714
 9100TIP3   OH248790   4.533   4.905  10.721  0.3390  0.1858 -0.7313
 9100TIP3    H148791   4.467   4.964  10.685  0.0948  0.6885  0.4898
 9100TIP3    H248792   4.485   4.827  10.747  0.1839  0.6030  0.2770
 9101TIP3   OH248793   5.899   5.408  12.922 -0.1010 -0.9334  0.1558
 9101TIP3    H148794   5.926   5.341  12.860 -0.8496 -0.1591 -1.0451
 9101TIP3    H248795   5.808   5.427  12.898 -0.1192  0.0090  0.9266
 9102TIP3   OH248796   3.628   5.571  11.578 -0.7926 -0.1631  0.2695
 9102TIP3    H148797   3.540   5.549  11.549 -0.3347 -0.0873 -1.2296
 9102TIP3    H248798   3.675   5.596  11.498  0.5041  0.0893  1.0765
 9103TIP3   OH248799   1.712   2.976   3.697 -0.3797 -0.1964  0.4368
 9103TIP3    H148800   1.716   3.033   3.620 -0.5596  0.2150  0.7263
 9103TIP3    H248801   1.783   2.913   3.684 -2.2729 -2.1077 -1.6074
 9104TIP3   OH248802   5.528   5.444   5.080 -0.3054  0.4851 -0.5488
 9104TIP3    H148803   5.617   5.424   5.108 -0.4329  1.8656  0.9748
 9104TIP3    H248804   5.539   5.505   5.007 -0.0050  0.0436 -0.8752
 9105TIP3   OH248805   6.675   1.278   5.628 -0.1206 -0.2089  0.2313
 9105TIP3    H148806   6.628   1.200   5.657  0.5185 -0.8186 -0.3668
 9105TIP3    H248807   6.611   1.349   5.637 -1.3821 -1.1106 -1.1725
 9106TIP3   OH248808   1.287   0.574   1.409 -0.4363 -0.0459  0.1935
 9106TIP3    H148809   1.329   0.494   1.379 -0.4116  0.3686 -0.9260
 9106TIP3    H248810   1.358   0.636   1.423 -0.3252 -0.5934  2.3755
 9107TIP3   OH248811   6.830   3.728  14.742  0.6423  0.3661 -0.0507
 9107TIP3    H148812   6.872   3.696  14.822 -0.9828  1.7858  1.4638
 9107TIP3    H248813   6.736   3.720  14.760  0.1802 -1.1850 -2.6542
 9108TIP3   OH248814   2.175   5.064   0.943 -0.3248  0.2348 -0.0975
 9108TIP3    H148815   2.127   5.004   1.000  1.3717  0.0258  1.2116
 9108TIP3    H248816   2.127   5.063   0.861 -1.5986 -1.2038  0.6114
 9109TIP3   OH248817   1.949   5.845  16.566 -0.2621 -0.0439 -1.1782
 9109TIP3    H148818   1.873   5.897  16.540  0.8388  2.2916 -0.0203
 9109TIP3    H248819   2.013   5.859  16.496  0.2104  0.5448 -0.6297
 9110TIP3   OH248820   1.204   4.695   0.569 -0.2358 -0.1275  0.8486
 9110TIP3    H148821   1.182   4.755   0.640 -0.5559  2.5728 -1.3430
 9110TIP3    H248822   1.293   4.718   0.545 -0.1232 -1.0182  0.3731
 9111TIP3   OH248823   1.185   3.723  16.349  0.6961 -0.1705 -0.0376
 9111TIP3    H148824   1.142   3.807  16.365 -1.6237 -1.4349  0.7783
 9111TIP3    H248825   1.218   3.729  16.259 -2.0718  0.5666 -1.0972
 9112TIP3   OH248826   4.291   5.503   0.740  0.2173 -0.2654 -0.0563
 9112TIP3    H148827   4.219   5.505   0.802  1.6264  1.2572  1.6279
 9112TIP3    H248828   4.304   5.594   0.714  1.0433 -0.6043 -0.9294
 9113TIP3   OH248829   4.588   6.119   2.152  0.1020 -0.2897  0.1648
 9113TIP3    H148830   4.509   6.170   2.136  0.2219  0.6518  2.3024
 9113TIP3    H248831   4.557   6.039   2.194  0.1652 -0.6502 -0.4654
 9114TIP3   OH248832   2.297   3.840  16.829 -0.4640  0.0154  0.0401
 9114TIP3    H148833   2.275   3.928  16.798 -1.1178 -0.1418  0.0289
 9114TIP3    H248834   2.379   3.818  16.786 -0.1970  0.6947  0.1895
 9115TIP3   OH248835   2.147   3.798  14.476 -0.1830 -0.1102 -0.2117
 9115TIP3    H148836   2.067   3.761  14.512  0.2626 -1.1770 -0.2737
 9115TIP3    H248837   2.123   3.887  14.449 -1.1285 -0.1433  0.4874
 9116TIP3   OH248838   1.153   5.971  15.721  0.1837 -0.2694 -0.2019
 9116TIP3    H148839   1.199   5.945  15.641 -0.0498  1.7129 -1.0336
 9116TIP3    H248840   1.222   5.980  15.787  0.4133 -1.5941 -0.2337
 9117TIP3   OH248841   2.179   5.800  16.902  0.1282 -0.1489 -0.4548
 9117TIP3    H148842   2.185   5.894  16.917 -1.2895 -0.2165  0.7234
 9117TIP3    H248843   2.176   5.761  16.989 -1.8425 -1.0638 -0.8762
 9118TIP3   OH248844   0.172   3.666   5.333  0.4405  0.0068 -0.3906
 9118TIP3    H148845   0.186   3.642   5.241  0.9385 -0.0308 -0.3098
 9118TIP3    H248846   0.081   3.644   5.350 -0.4896  2.4747 -1.6378
 9119TIP3   OH248847   2.226   3.633   3.601  0.5724 -0.2867  0.6921
 9119TIP3    H148848   2.299   3.577   3.630  0.9194 -0.7449 -0.9261
 9119TIP3    H248849   2.259   3.722   3.612  0.5116 -0.4215  2.0825
 9120TIP3   OH248850   0.628   3.878   0.653 -0.3703  0.6306  0.2302
 9120TIP3    H148851   0.633   3.934   0.576  0.5503 -0.1661 -0.3098
 9120TIP3    H248852   0.694   3.913   0.713 -0.1990  0.4764  0.1317
 9121TIP3   OH248853   3.718   0.994  11.990 -0.0941 -0.8207  0.1562
 9121TIP3    H148854   3.738   1.082  11.957  0.9732 -0.9681  0.3796
 9121TIP3    H248855   3.803   0.952  12.002 -0.5488 -1.5905  0.8712
 9122TIP3   OH248856   2.407   0.372  14.624  0.0659 -0.6249  0.5342
 9122TIP3    H148857   2.377   0.323  14.700 -0.8945 -0.6618  0.1489
 9122TIP3    H248858   2.405   0.464  14.652 -2.0910 -0.4541  0.0247
 9123TIP3   OH248859   5.183   5.426   3.124 -0.2051  0.3153 -0.2749
 9123TIP3    H148860   5.225   5.401   3.042  0.4221 -0.3594  0.2423
 9123TIP3    H248861   5.091   5.441   3.100 -0.0221  0.1623 -1.1039
 9124TIP3   OH248862   4.200   4.353  16.895  0.4190 -0.3812 -0.6593
 9124TIP3    H148863   4.247   4.365  16.812  1.2992  0.2888 -0.0844
 9124TIP3    H248864   4.253   4.399  16.959 -0.1116 -1.1237  0.3367
 9125TIP3   OH248865   4.080   4.897  15.411 -0.3200 -0.2400  0.0468
 9125TIP3    H148866   4.062   4.891  15.505 -0.2410 -0.5904  0.0422
 9125TIP3    H248867   4.077   4.806  15.380  3.4143 -0.6661  0.4108
 9126TIP3   OH248868   0.174   5.204   5.359  0.5314  0.4740 -0.1963
 9126TIP3    H148869   0.153   5.112   5.346  1.0823  0.3363 -0.1413
 9126TIP3    H248870   0.160   5.218   5.453 -1.0015  0.8333 -0.4542
 9127TIP3   OH248871   2.826   2.320  14.925  0.0059  0.3882  0.1064
 9127TIP3    H148872   2.782   2.399  14.895  2.8128  1.0409 -2.8599
 9127TIP3    H248873   2.785   2.249  14.876 -0.5908  0.3567  0.6332
 9128TIP3   OH248874   4.048   6.532  14.490  0.2121  0.5637  0.0980
 9128TIP3    H148875   4.069   6.554  14.580 -2.1055 -0.8183  1.0446
 9128TIP3    H248876   4.018   6.441  14.493 -0.8826  0.7909 -1.8787
 9129TIP3   OH248877   0.310   5.980  14.432 -0.4949  0.0625 -0.1868
 9129TIP3    H148878   0.302   5.964  14.526 -1.0772 -0.5343 -0.3313
 9129TIP3    H248879   0.302   6.075  14.423 -0.0815  0.1571  0.3965
 9130TIP3   OH248880   6.305   2.310   0.247 -0.1530 -0.4256 -0.3636
 9130TIP3    H148881   6.399   2.294   0.262 -0.1454  1.3826  2.1984
 9130TIP3    H248882   6.261   2.240   0.295 -0.0399  1.5975  3.0058
 9131TIP3   OH248883   6.562   5.895  12.860  0.1217 -0.3336 -0.0319
 9131TIP3    H148884   6.566   5.982  12.902  0.9387 -0.0263 -0.7214
 9131TIP3    H248885   6.620   5.903  12.784 -0.5602 -1.1945 -0.6505
 9132TIP3   OH248886   3.440   5.128  14.898 -0.8329 -0.0368  0.4085
 9132TIP3    H148887   3.514   5.108  14.953  0.3603  0.2728 -1.0142
 9132TIP3    H248888   3.455   5.079  14.817 -1.9008  0.4281 -0.1089
 9133TIP3   OH248889   6.392   3.983   6.292 -0.3017 -0.5051 -0.0502
 9133TIP3    H148890   6.363   3.933   6.216 -2.2216 -3.8584  2.5868
 9133TIP3    H248891   6.324   4.050   6.304 -0.6599 -0.7773 -0.5264
 9134TIP3   OH248892   3.322   2.887   1.339 -0.1162 -0.9928 -0.4053
 9134TIP3    H148893   3.368   2.811   1.375  1.4441 -0.3117 -0.8810
 9134TIP3    H248894   3.357   2.897   1.250  0.1043  0.5801 -0.1681
 9135TIP3   OH248895   4.978   6.786   0.215 -0.0346 -0.2524  0.4084
 9135TIP3    H148896   4.919   6.757   0.286  0.2533 -3.1540 -0.3904
 9135TIP3    H248897   4.975   6.714   0.152  2.5438  0.5958 -0.7858
 9136TIP3   OH248898   0.885   1.849   2.259  0.2119 -0.2323  0.0776
 9136TIP3    H148899   0.794   1.876   2.246  0.9456  1.7702 -1.4464
 9136TIP3    H248900   0.908   1.882   2.345  0.1165  1.3077 -0.4512
 9137TIP3   OH248901   1.437   5.676   4.801 -0.4793 -0.2618  0.0380
 9137TIP3    H148902   1.369   5.674   4.733  0.5944 -0.5416 -1.0489
 9137TIP3    H248903   1.505   5.733   4.765  0.3706 -0.8854  0.6284
 9138TIP3   OH248904   4.814   0.758   2.669 -0.3193  0.6008  0.3403
 9138TIP3    H148905   4.732   0.723   2.635  0.5950 -0.3826 -0.9473
 9138TIP3    H248906   4.789   0.841   2.710 -2.2468 -0.6298  1.8248
 9139TIP3   OH248907   2.264   5.354  11.364 -0.1743  0.2755  0.2264
 9139TIP3    H148908   2.343   5.381  11.410  0.1642 -1.1321  0.5225
 9139TIP3    H248909   2.278   5.262  11.344 -1.4435  0.1836 -0.3459
 9140TIP3   OH248910   3.767   4.836   3.627  0.2024 -0.7029  0.1603
 9140TIP3    H148911   3.672   4.844   3.633  0.1032 -1.4227 -0.3079
 9140TIP3    H248912   3.784   4.812   3.536  1.0147  1.5909 -0.3801
 9141TIP3   OH248913   5.872   3.805  14.852  0.3809  0.2539 -0.1909
 9141TIP3    H148914   5.884   3.893  14.816  0.3331  0.6277  0.6828
 9141TIP3    H248915   5.811   3.817  14.925 -1.0740 -0.7859 -1.1635
 9142TIP3   OH248916   4.594   4.612  12.108  0.1993 -0.0648 -0.0721
 9142TIP3    H148917   4.587   4.666  12.030  0.8951  0.2700  0.0899
 9142TIP3    H248918   4.519   4.552  12.102  0.7251 -0.6290 -1.4347
 9143TIP3   OH248919   1.194   6.288  11.699  0.5478 -0.1642  0.0710
 9143TIP3    H148920   1.165   6.372  11.734  1.6824 -0.1916  1.1698
 9143TIP3    H248921   1.149   6.279  11.615 -0.7649  0.8224  0.6433
 9144TIP3   OH248922   1.570   0.699   3.807  0.7335  0.8028 -0.3743
 9144TIP3    H148923   1.584   0.762   3.878 -0.7402  1.1720 -0.3795
 9144TIP3    H248924   1.651   0.649   3.803  0.7442  0.5469  1.8164
 9145TIP3   OH248925   2.300   2.704  16.769 -0.3861 -0.2854  0.0524
 9145TIP3    H148926   2.214   2.711  16.809 -1.1167 -0.7772 -1.3448
 9145TIP3    H248927   2.359   2.679  16.840 -1.7612 -1.9290  0.6551
 9146TIP3   OH248928   2.732   1.893  13.774 -0.4356 -0.0778  0.7277
 9146TIP3    H148929   2.749   1.929  13.861 -0.9530 -0.1412  0.8632
 9146TIP3    H248930   2.789   1.942  13.716 -0.2987  0.1691  1.0663
 9147TIP3   OH248931   6.329   0.875  15.229 -0.5235 -0.2327 -0.2404
 9147TIP3    H148932   6.274   0.869  15.307 -1.3939  1.6290 -0.6679
 9147TIP3    H248933   6.406   0.821  15.250 -0.2349  1.0422  2.3322
 9148TIP3   OH248934   1.517   5.843  14.787  0.2802 -0.7296  0.1560
 9148TIP3    H148935   1.477   5.783  14.850  0.6125 -0.7122  0.3846
 9148TIP3    H248936   1.549   5.916  14.840  0.9702 -0.9313  0.0307
 9149TIP3   OH248937   3.168   4.090   2.182  0.7270 -0.2144  0.0035
 9149TIP3    H148938   3.234   4.113   2.247 -0.2535  2.4341  0.1896
 9149TIP3    H248939   3.166   4.165   2.122 -2.9222  0.4733  0.7295
 9150TIP3   OH248940   4.910   1.480  16.977  0.6744 -0.2439 -0.3758
 9150TIP3    H148941   4.951   1.395  16.961  0.8082 -0.6565  1.9226
 9150TIP3    H248942   4.979   1.533  17.018  0.9143  1.3803 -2.6669
 9151TIP3   OH248943   6.650   3.006  12.823 -0.0164 -0.6397 -0.1237
 9151TIP3    H148944   6.607   3.031  12.905  0.4283  0.9931 -0.3709
 9151TIP3    H248945   6.729   2.959  12.851 -0.8401 -1.8243  0.3357
 9152TIP3   OH248946   3.670   3.926  11.416  0.2172  0.3243  0.4983
 9152TIP3    H148947   3.618   3.993  11.461 -0.1398  1.8035 -1.9122
 9152TIP3    H248948   3.750   3.972  11.389  0.1949 -0.3201 -0.7684
 9153TIP3   OH248949   2.355   3.001   0.588  0.4243 -0.0337  0.1160
 9153TIP3    H148950   2.329   3.067   0.524  1.3437  1.1168  0.8865
 9153TIP3    H248951   2.298   3.016   0.663  1.5908  0.8684  0.8531
 9154TIP3   OH248952   5.440   3.077  15.582  0.3326  0.1168 -0.0085
 9154TIP3    H148953   5.382   3.138  15.627 -1.9746  0.1305 -2.7519
 9154TIP3    H248954   5.387   3.040  15.511  2.7191 -2.4139 -0.6543
 9155TIP3   OH248955   2.176   2.361  16.332 -0.4203 -0.5588  0.2581
 9155TIP3    H148956   2.264   2.397  16.345 -1.9466  2.9049  2.2660
 9155TIP3    H248957   2.132   2.425  16.277 -2.8869  0.0847  2.7731
 9156TIP3   OH248958   0.811   0.791  14.612  0.8153  0.2358 -0.3756
 9156TIP3    H148959   0.834   0.854  14.544  0.2457 -0.1398 -0.9199
 9156TIP3    H248960   0.786   0.845  14.687 -1.0066  0.7027 -1.2614
 9157TIP3   OH248961   0.927   5.734  15.738 -0.2498 -0.3293  0.4227
 9157TIP3    H148962   0.949   5.782  15.658  3.0890 -2.1600  0.0903
 9157TIP3    H248963   0.833   5.717  15.730 -0.1613  0.0399 -2.8533
 9158TIP3   OH248964   6.578   2.970  16.516  0.7852  0.3950 -0.3984
 9158TIP3    H148965   6.511   2.927  16.570  0.5947  1.4549  0.2286
 9158TIP3    H248966   6.661   2.941  16.554  0.6599  0.6463  0.0695
 9159TIP3   OH248967   1.763   1.272   6.276 -0.0198  0.6336  0.7301
 9159TIP3    H148968   1.833   1.320   6.320 -0.0017  0.9920  0.3198
 9159TIP3    H248969   1.727   1.215   6.344  0.8824  0.2053  0.8625
 9160TIP3   OH248970   4.242   4.797   3.873 -1.0661  0.0560  0.1599
 9160TIP3    H148971   4.177   4.736   3.908 -1.2021  0.1153  0.0138
 9160TIP3    H248972   4.203   4.883   3.884 -0.5774  0.1746  0.9931
 9161TIP3   OH248973   0.343   6.325  14.691  0.0660 -0.2104  0.0539
 9161TIP3    H148974   0.282   6.346  14.621 -1.0672  1.1669  1.3676
 9161TIP3    H248975   0.291   6.277  14.755  0.6118  0.0951  0.7407
 9162TIP3   OH248976   3.925   2.243   1.774 -0.6517  0.4290 -0.4845
 9162TIP3    H148977   3.882   2.312   1.825  0.2154  0.6112  0.0234
 9162TIP3    H248978   4.017   2.250   1.798 -0.6779 -1.6879  0.5115
 9163TIP3   OH248979   3.549   5.371  12.037  0.1824  0.0950  0.1500
 9163TIP3    H148980   3.575   5.420  11.959 -0.1801  0.0383 -0.0079
 9163TIP3    H248981   3.615   5.301  12.044 -0.7018 -0.9157 -1.0583
 9164TIP3   OH248982   5.478   2.673  16.267 -0.0571 -0.4794 -0.2083
 9164TIP3    H148983   5.536   2.738  16.306 -0.6609  0.3164 -0.5977
 9164TIP3    H248984   5.407   2.662  16.330  0.5943 -1.5966  0.3556
 9165TIP3   OH248985   5.742   0.694  15.921  0.1446  0.9400 -0.0506
 9165TIP3    H148986   5.807   0.631  15.890 -0.5742 -0.1621  0.6171
 9165TIP3    H248987   5.792   0.755  15.975  0.2029 -1.9850  3.5232
 9166TIP3   OH248988   3.670   2.870  17.144  0.6162  0.2964 -0.4388
 9166TIP3    H148989   3.608   2.894  17.075  0.0757 -2.1631 -0.9223
 9166TIP3    H248990   3.615   2.831  17.212  1.4561 -0.2102 -0.0369
 9167TIP3   OH248991   0.338   4.610   3.716  0.2540 -0.1663 -0.3568
 9167TIP3    H148992   0.306   4.571   3.798 -0.3045 -2.1008 -1.4480
 9167TIP3    H248993   0.305   4.700   3.719 -3.2861 -1.3259 -0.2606
 9168TIP3   OH248994   2.671   3.235   3.547 -0.1556  0.4198 -0.7984
 9168TIP3    H148995   2.616   3.166   3.509  0.3130 -1.6132  1.9205
 9168TIP3    H248996   2.678   3.212   3.639  0.6778  3.7638  0.1163
 9169TIP3   OH248997   5.257   2.642  15.595  0.0836 -0.0857  0.2569
 9169TIP3    H148998   5.166   2.615  15.610  0.2233 -0.2881  0.7736
 9169TIP3    H248999   5.291   2.659  15.683  0.8497 -1.0127  0.1460
 9170TIP3   OH249000   6.340   2.472   0.635  0.3080  0.3736 -0.0260
 9170TIP3    H149001   6.323   2.525   0.557  0.9096  3.0695  1.5301
 9170TIP3    H249002   6.331   2.382   0.606 -0.1638  1.2897 -3.0239
 9171TIP3   OH249003   4.684   2.979  10.707 -0.0150  0.1248  0.2046
 9171TIP3    H149004   4.618   3.045  10.728 -0.5927 -0.2171 -0.4710
 9171TIP3    H249005   4.681   2.972  10.611  0.2477 -0.6502  0.2433
 9172TIP3   OH249006   5.471   4.568  15.684  0.1960 -0.5163  0.3205
 9172TIP3    H149007   5.547   4.603  15.637  1.4150 -1.5605  1.4679
 9172TIP3    H249008   5.456   4.631  15.755 -0.4976  0.0796 -0.3357
 9173TIP3   OH249009   6.784   1.066  16.661  0.0016  0.0780 -0.0591
 9173TIP3    H149010   6.842   1.119  16.715 -0.7411  0.3526  0.4899
 9173TIP3    H249011   6.719   1.031  16.723 -1.4489  1.1781 -0.8923
 9174TIP3   OH249012   2.356   0.680  11.899  0.0986 -0.2037 -0.1787
 9174TIP3    H149013   2.334   0.588  11.887  0.3077 -0.1312 -1.2207
 9174TIP3    H249014   2.317   0.704  11.983 -1.4959 -0.7701 -0.7306
 9175TIP3   OH249015   0.409   1.692  11.213  0.3917 -0.1158 -0.2237
 9175TIP3    H149016   0.485   1.634  11.214 -0.1865 -1.0016 -2.2116
 9175TIP3    H249017   0.337   1.638  11.179 -1.0562  0.8129  1.1883
 9176TIP3   OH249018   2.912   5.592   3.967  0.3156  0.3191 -0.0147
 9176TIP3    H149019   2.882   5.614   4.055 -0.7892 -1.0166 -0.0154
 9176TIP3    H249020   2.884   5.665   3.912  0.5240  0.9002  0.6474
 9177TIP3   OH249021   4.852   5.137  13.372  0.1668  0.0598  0.3988
 9177TIP3    H149022   4.834   5.230  13.388 -1.3102 -0.1737  0.1993
 9177TIP3    H249023   4.912   5.113  13.443  0.3826  1.1018  0.5969
 9178TIP3   OH249024   2.450   6.238  16.950  0.0139 -0.1796 -0.2505
 9178TIP3    H149025   2.367   6.260  16.908  0.4402  0.5092 -0.7588
 9178TIP3    H249026   2.438   6.265  17.042  1.0897  4.0571 -1.1457
 9179TIP3   OH249027   4.073   4.433   2.433  0.6331 -0.2120  0.1562
 9179TIP3    H149028   3.999   4.384   2.469 -0.4287  1.4541  0.3018
 9179TIP3    H249029   4.140   4.366   2.419  0.1875 -1.3681  2.7854
 9180TIP3   OH249030   0.203   5.896   6.014 -0.1706 -0.0119 -0.0792
 9180TIP3    H149031   0.240   5.839   6.082 -0.7641  0.7125  0.8708
 9180TIP3    H249032   0.171   5.835   5.947 -0.5696 -0.7997  0.8047
 9181TIP3   OH249033   4.698   6.136  13.585  0.3492 -0.0504 -0.0880
 9181TIP3    H149034   4.641   6.203  13.547  0.1315 -0.4853 -0.5373
 9181TIP3    H249035   4.747   6.182  13.652  1.4692  0.9783 -1.5633
 9182TIP3   OH249036   2.869   1.339  14.097  0.2427 -0.0641  1.0260
 9182TIP3    H149037   2.945   1.301  14.053  1.8669  1.3129  2.4662
 9182TIP3    H249038   2.801   1.272  14.091  0.7546 -0.4611 -2.3339
 9183TIP3   OH249039   3.749   1.794   2.402 -0.3146 -0.0345 -0.3145
 9183TIP3    H149040   3.735   1.729   2.333 -0.7179 -1.2885  0.9014
 9183TIP3    H249041   3.697   1.870   2.375 -2.0784 -1.2274 -0.4378
 9184TIP3   OH249042   0.162   0.059  16.661  0.6399  0.2801 -0.5604
 9184TIP3    H149043   0.090   0.022  16.712 -0.3343  0.5228 -1.7193
 9184TIP3    H249044   0.201   0.124  16.719  0.5528 -0.5329  0.4366
 9185TIP3   OH249045   1.896   5.564  12.185  0.2830  0.0907  0.0720
 9185TIP3    H149046   1.818   5.540  12.235 -0.1342 -0.7967 -0.9683
 9185TIP3    H249047   1.963   5.579  12.251 -1.0784  2.1830  1.0780
 9186TIP3   OH249048   4.948   3.823  14.653  0.5174 -0.0500 -0.6925
 9186TIP3    H149049   5.029   3.866  14.628 -0.6150  2.3234 -0.5564
 9186TIP3    H249050   4.882   3.893  14.652 -1.6866 -2.0003 -1.5136
 9187TIP3   OH249051   6.327   3.987  13.688  0.2887 -0.3150 -1.0440
 9187TIP3    H149052   6.421   3.967  13.697  0.4950  0.7368 -0.7193
 9187TIP3    H249053   6.303   4.028  13.771 -0.4483 -0.5038 -1.1563
 9188TIP3   OH249054   2.781   1.752  13.032  0.2246 -0.3396 -0.2165
 9188TIP3    H149055   2.697   1.718  12.999  0.5910  0.6328 -2.3192
 9188TIP3    H249056   2.761   1.841  13.059  0.8165  0.4488 -2.1770
 9189TIP3   OH249057   4.590   0.284  12.633  0.1827  0.7426 -0.1034
 9189TIP3    H149058   4.671   0.234  12.634 -0.2894 -0.0364  0.1733
 9189TIP3    H249059   4.618   0.376  12.626  1.1711  0.6332  1.7364
 9190TIP3   OH249060   3.028   1.800  13.586 -0.6330  0.3156  0.0686
 9190TIP3    H149061   3.047   1.861  13.657 -0.2777  0.0082  0.2365
 9190TIP3    H249062   2.958   1.843  13.537  0.9169  1.7656 -0.9627
 9191TIP3   OH249063   1.314   5.927  15.211  0.0859 -0.4633  0.7699
 9191TIP3    H149064   1.236   5.956  15.258 -1.6468  0.4084 -2.3540
 9191TIP3    H249065   1.303   5.832  15.204 -1.0997 -0.2902 -0.1703
 9192TIP3   OH249066   2.618   2.533   4.817  0.0526  0.5334 -0.1718
 9192TIP3    H149067   2.691   2.482   4.783  0.8051  0.1834  1.8076
 9192TIP3    H249068   2.541   2.477   4.804  0.4635  0.0148 -0.3935
 9193TIP3   OH249069   0.956   3.922  13.669 -0.1880  0.4681  0.3106
 9193TIP3    H149070   1.012   3.978  13.723  0.1954  0.3068  0.0766
 9193TIP3    H249071   0.869   3.962  13.676  0.1264  1.2150 -0.0343
 9194TIP3   OH249072   6.549   4.710  11.298  0.1359  0.3893 -0.0513
 9194TIP3    H149073   6.598   4.699  11.380 -1.0473  1.6970  0.8668
 9194TIP3    H249074   6.569   4.799  11.270  0.1144  0.1261 -0.9177
 9195TIP3   OH249075   6.263   1.808   1.262 -0.6154  0.3552 -0.8285
 9195TIP3    H149076   6.205   1.881   1.242 -0.0314  0.6441 -1.5188
 9195TIP3    H249077   6.251   1.793   1.356 -0.4996  1.5451 -0.6076
 9196TIP3   OH249078   4.222   4.812  15.120 -0.3529 -0.1307  0.2234
 9196TIP3    H149079   4.204   4.899  15.085  0.6104 -0.4432 -1.1220
 9196TIP3    H249080   4.157   4.800  15.189 -0.9400  1.3698 -0.0350
 9197TIP3   OH249081   2.999   5.164  11.655 -0.2264 -0.3256 -0.3812
 9197TIP3    H149082   2.923   5.212  11.689 -0.3401  0.0209 -1.1076
 9197TIP3    H249083   3.021   5.209  11.574 -0.6063 -1.7560 -1.3202
 9198TIP3   OH249084   2.120   6.449  16.109 -0.0710  0.3217 -0.4219
 9198TIP3    H149085   2.085   6.377  16.056  1.8392 -1.3572  0.4852
 9198TIP3    H249086   2.212   6.453  16.086  0.1227  1.6464  0.4985
 9199TIP3   OH249087   2.427   2.605  13.464  0.1805  0.2238  0.3516
 9199TIP3    H149088   2.391   2.582  13.378  0.0601 -2.7143  1.0657
 9199TIP3    H249089   2.521   2.610  13.450  0.0557  1.1483 -0.2073
 9200TIP3   OH249090   4.432   0.786  12.492  0.4749 -0.0587 -0.3405
 9200TIP3    H149091   4.350   0.821  12.527 -1.1737 -3.1994 -0.6839
 9200TIP3    H249092   4.500   0.843  12.527 -1.8304  3.1365 -0.5961
 9201TIP3   OH249093   0.087   1.213   5.327  0.5244 -0.2465 -0.1945
 9201TIP3    H149094   0.084   1.217   5.423 -0.9933 -0.8502 -0.1866
 9201TIP3    H249095   0.098   1.120   5.307  1.9210 -0.0117 -0.6220
 9202TIP3   OH249096   4.142   3.237   5.545  0.0077  0.6345  0.0603
 9202TIP3    H149097   4.174   3.147   5.538  3.3276  1.5981  1.0228
 9202TIP3    H249098   4.050   3.228   5.570 -0.2338 -2.4419 -1.4479
 9203TIP3   OH249099   3.060   5.552   3.093  0.7681  0.5165  0.2824
 9203TIP3    H149100   2.987   5.600   3.131 -0.2395 -0.6925 -0.0679
 9203TIP3    H249101   3.048   5.560   2.999  1.2506  0.5329  0.2199
 9204TIP3   OH249102   1.800   3.323   2.057  0.3839  1.0944  0.2275
 9204TIP3    H149103   1.854   3.345   1.982  0.6375  0.7179  0.3024
 9204TIP3    H249104   1.849   3.356   2.133  0.6414  0.5080  0.3185
 9205TIP3   OH249105   3.667   5.358   4.534 -1.1108 -0.0205 -0.2424
 9205TIP3    H149106   3.659   5.265   4.514  1.8235 -0.2390 -0.8377
 9205TIP3    H249107   3.693   5.398   4.451  0.9009  0.7494  0.6997
 9206TIP3   OH249108   3.449   1.138   3.568 -0.0741  0.2588 -0.2090
 9206TIP3    H149109   3.448   1.144   3.664 -0.3203  1.3118 -0.2595
 9206TIP3    H249110   3.540   1.119   3.546  0.3476  1.6522  0.1763
 9207TIP3   OH249111   4.903   6.181  14.659 -0.1797 -0.0982  0.4118
 9207TIP3    H149112   4.823   6.139  14.691 -0.7347 -0.1678 -0.9801
 9207TIP3    H249113   4.871   6.248  14.598  0.8245 -1.2966 -1.5356
 9208TIP3   OH249114   6.338   2.905  14.683  0.3352 -0.4971 -0.1725
 9208TIP3    H149115   6.424   2.946  14.669  0.3114 -0.4452 -0.1682
 9208TIP3    H249116   6.306   2.888  14.594  0.3676 -0.5526 -0.1734
 9209TIP3   OH249117   0.316   0.625  14.627  0.3008 -0.0406  0.1842
 9209TIP3    H149118   0.335   0.618  14.721  3.3014  0.6223 -0.2756
 9209TIP3    H249119   0.400   0.609  14.584 -0.6285  1.2852 -2.3317
 9210TIP3   OH249120   5.926   4.210   0.651 -0.6573  0.1989 -0.0938
 9210TIP3    H149121   5.860   4.254   0.598 -0.1197  2.1238  0.7631
 9210TIP3    H249122   6.009   4.240   0.616 -0.2650 -0.3753  0.3325
 9211TIP3   OH249123   6.392   1.667   3.651 -0.5537  0.2139  0.0413
 9211TIP3    H149124   6.466   1.660   3.590 -1.3723 -0.1045 -0.9424
 9211TIP3    H249125   6.389   1.760   3.672  0.2373  0.2064  0.2445
 9212TIP3   OH249126   4.861   1.380   0.598  0.5030  0.1767 -0.5069
 9212TIP3    H149127   4.792   1.338   0.546 -0.9155  0.7696  0.7970
 9212TIP3    H249128   4.927   1.312   0.610 -0.5906 -0.9117 -0.5005
 9213TIP3   OH249129   3.849   6.109   5.713  0.1595 -0.5928  0.0623
 9213TIP3    H149130   3.921   6.073   5.662  1.1982  1.4858 -0.0164
 9213TIP3    H249131   3.773   6.057   5.686  1.3420 -1.9424 -0.8530
 9214TIP3   OH249132   3.945   4.655  14.535 -0.1823 -0.0589  0.5335
 9214TIP3    H149133   4.005   4.582  14.549  0.0332  0.0144  0.0532
 9214TIP3    H249134   3.861   4.614  14.516 -0.7581 -0.1528  3.0253
 9215TIP3   OH249135   3.611   2.520   3.495  0.5095 -0.8107  0.0594
 9215TIP3    H149136   3.644   2.470   3.570  0.0644 -1.1753  0.0122
 9215TIP3    H249137   3.516   2.512   3.500  0.3926  0.4528  0.3447
 9216TIP3   OH249138   6.102   3.612  16.735  0.0998 -0.0155  0.0366
 9216TIP3    H149139   6.185   3.618  16.782 -0.4325  0.4008  0.9492
 9216TIP3    H249140   6.119   3.550  16.664  0.7184 -1.3041  1.2401
 9217TIP3   OH249141   3.044   2.275  16.255 -0.6451 -0.0902 -0.2480
 9217TIP3    H149142   2.981   2.324  16.201 -0.0216 -1.2927 -2.1811
 9217TIP3    H249143   3.092   2.221  16.192  0.8829 -0.7760  1.4315
 9218TIP3   OH249144   5.439   2.869   3.685 -0.0189 -0.0150 -0.7818
 9218TIP3    H149145   5.386   2.887   3.762  1.0818 -0.1470  0.0396
 9218TIP3    H249146   5.525   2.908   3.705  0.5174 -0.7219 -1.6067
 9219TIP3   OH249147   2.399   0.011  13.009  0.0716 -0.1117 -0.6793
 9219TIP3    H149148   2.462   0.012  13.082 -0.1320  0.6643 -0.5056
 9219TIP3    H249149   2.378  -0.082  12.998 -1.6396 -0.1380  1.8013
 9220TIP3   OH249150   2.555   4.931  14.361  0.2065  0.0454  0.0195
 9220TIP3    H149151   2.466   4.926  14.327  0.7482 -0.1613 -1.4404
 9220TIP3    H249152   2.606   4.874  14.304  1.5077  1.1228  0.0505
 9221TIP3   OH249153   5.378   6.640   0.731 -0.1617  0.0739 -0.1052
 9221TIP3    H149154   5.450   6.668   0.788  0.8429 -1.0276 -0.7911
 9221TIP3    H249155   5.334   6.571   0.780 -0.2444  0.1826 -0.0262
 9222TIP3   OH249156   1.878   4.118  16.001 -0.2190 -0.1402  0.3871
 9222TIP3    H149157   1.963   4.131  15.958 -0.3624 -0.5442 -0.0229
 9222TIP3    H249158   1.900   4.095  16.091  0.1049 -0.2078  0.2941
 9223TIP3   OH249159   6.471   3.743   3.247  0.1000  0.2261  0.3207
 9223TIP3    H149160   6.413   3.760   3.172 -1.2089 -0.6845  1.0908
 9223TIP3    H249161   6.514   3.660   3.225 -0.6174 -0.2706  0.7539
 9224TIP3   OH249162   4.144   3.646   0.762  0.6171  0.5477 -0.4052
 9224TIP3    H149163   4.068   3.605   0.721  0.2604  0.6053  0.1973
 9224TIP3    H249164   4.208   3.575   0.771 -0.1563  0.0085  1.0277
 9225TIP3   OH249165   1.507   3.611   6.055 -0.1072 -0.9622 -0.3549
 9225TIP3    H149166   1.526   3.703   6.036  2.1235 -1.6161 -1.6884
 9225TIP3    H249167   1.480   3.609   6.146  0.1210  0.9702 -0.2215
 9226TIP3   OH249168   0.225   0.877  13.941  0.0356  0.5277 -0.1341
 9226TIP3    H149169   0.232   0.836  13.854  1.4209  0.4393 -0.0081
 9226TIP3    H249170   0.316   0.889  13.969 -0.3850 -0.1938  1.6621
 9227TIP3   OH249171   3.635   6.776  15.097 -0.4165  0.2756 -0.2814
 9227TIP3    H149172   3.561   6.797  15.041  0.4132  0.2627 -1.4074
 9227TIP3    H249173   3.698   6.733  15.040  0.8903  1.2060  0.3991
 9228TIP3   OH249174   0.721   1.599  15.439 -0.3939 -0.2488  0.5602
 9228TIP3    H149175   0.736   1.693  15.439  1.0490 -0.4396  2.2086
 9228TIP3    H249176   0.776   1.565  15.510 -0.2296 -2.4351 -0.5126
 9229TIP3   OH249177   6.468   3.772   0.011  0.4967 -0.4201 -0.0226
 9229TIP3    H149178   6.383   3.740   0.041 -0.3582  1.3408 -0.4131
 9229TIP3    H249179   6.518   3.787   0.091 -0.8154  1.7307  0.4811
 9230TIP3   OH249180   4.008   0.869   2.788 -0.5028 -0.1826  0.1126
 9230TIP3    H149181   3.984   0.782   2.756 -0.8623 -0.6925  1.6799
 9230TIP3    H249182   3.957   0.880   2.868  0.2334  1.1069  0.4325
 9231TIP3   OH249183   0.329   6.546   3.141 -0.1968 -0.2328 -0.1696
 9231TIP3    H149184   0.419   6.560   3.172  0.5512 -2.8336 -0.9201
 9231TIP3    H249185   0.331   6.459   3.101 -2.4781  0.6430 -2.4140
 9232TIP3   OH249186   1.873   2.252  14.364 -0.7592  1.0324  0.8641
 9232TIP3    H149187   1.940   2.199  14.407  0.2787  2.5974  1.2359
 9232TIP3    H249188   1.922   2.318  14.315 -1.9631  0.4297 -1.2726
 9233TIP3   OH249189   0.849   2.997  11.556 -0.2772  0.2912 -0.1302
 9233TIP3    H149190   0.818   3.067  11.498 -0.3819 -0.0998 -0.5499
 9233TIP3    H249191   0.770   2.966  11.600 -0.4032 -0.3086 -0.7657
 9234TIP3   OH249192   3.089   5.434  15.979 -0.2822 -0.0046 -0.1311
 9234TIP3    H149193   3.034   5.357  15.966 -0.2379 -0.9321  3.9647
 9234TIP3    H249194   3.028   5.504  16.002 -0.0442  0.1568  0.0153
 9235TIP3   OH249195   6.509   2.129   1.812 -0.3770  0.6027 -0.1172
 9235TIP3    H149196   6.544   2.167   1.893  0.5564  0.0377 -0.2484
 9235TIP3    H249197   6.495   2.205   1.755  1.0820  0.8244 -0.2303
 9236TIP3   OH249198   4.459   2.149   3.016  0.0309 -0.3693 -0.6220
 9236TIP3    H149199   4.364   2.149   3.004  0.1171  0.2985 -1.4181
 9236TIP3    H249200   4.489   2.071   2.969 -0.3907 -2.5275  2.4180
 9237TIP3   OH249201   2.644   0.736  14.249  0.2587 -0.2497  0.1454
 9237TIP3    H149202   2.602   0.651  14.237  0.3282 -0.1183 -1.2103
 9237TIP3    H249203   2.702   0.724  14.323 -0.9787 -0.8883  1.0526
 9238TIP3   OH249204   1.053   0.066  11.973  0.4447 -0.5835 -0.5786
 9238TIP3    H149205   1.080   0.157  11.966 -1.9870  0.2003 -0.5744
 9238TIP3    H249206   0.988   0.054  11.903 -2.7024 -0.9006  2.1511
 9239TIP3   OH249207   3.594   4.942  13.518  0.4023 -0.3473 -0.0402
 9239TIP3    H149208   3.546   4.983  13.446 -1.2225 -1.1019  0.5635
 9239TIP3    H249209   3.685   4.966  13.503  0.0313 -0.0339 -2.0389
 9240TIP3   OH249210   2.731   2.142  15.131 -0.0085  0.3631  0.2824
 9240TIP3    H149211   2.786   2.176  15.060  0.1424  0.3565  0.3960
 9240TIP3    H249212   2.793   2.100  15.191 -0.1742  0.0433  0.2333
 9241TIP3   OH249213   4.956   3.724   4.880 -0.3613 -0.5926  0.2606
 9241TIP3    H149214   4.976   3.717   4.787 -2.6020  0.9209 -0.4120
 9241TIP3    H249215   4.975   3.815   4.902 -3.4833  0.1827  0.2209
 9242TIP3   OH249216   3.722   1.774   3.832 -1.0757 -0.1704  0.1167
 9242TIP3    H149217   3.658   1.734   3.891  0.4900  0.5103  2.3814
 9242TIP3    H249218   3.807   1.744   3.865 -0.0138  2.2836 -0.1998
 9243TIP3   OH249219   0.453   2.489  15.703 -0.4334 -0.2008  0.1896
 9243TIP3    H149220   0.366   2.488  15.744 -0.7436 -0.4774 -0.4560
 9243TIP3    H249221   0.473   2.397  15.688  0.7375 -0.2810  1.8671
 9244TIP3   OH249222   0.295   0.436   4.783  0.1139  0.1640  0.5880
 9244TIP3    H149223   0.209   0.405   4.754  0.1674  0.7597 -0.2482
 9244TIP3    H249224   0.310   0.515   4.731  1.1275  0.1196  0.8014
 9245TIP3   OH249225   2.619   5.110   1.292  0.1288  0.1524 -0.3366
 9245TIP3    H149226   2.647   5.200   1.305  0.3464 -0.1952  1.9666
 9245TIP3    H249227   2.583   5.083   1.376 -0.4433 -1.7408 -1.1313
 9246TIP3   OH249228   3.747   6.342   5.644 -0.3434  0.6444 -0.4807
 9246TIP3    H149229   3.813   6.273   5.653  0.7352  1.4169 -1.9548
 9246TIP3    H249230   3.668   6.305   5.682  0.9444 -0.2798  1.4456
 9247TIP3   OH249231   0.311   2.894   1.573 -0.3116  0.2812 -0.1005
 9247TIP3    H149232   0.257   2.815   1.569  0.2207 -0.0253 -2.4095
 9247TIP3    H249233   0.309   2.929   1.485  0.8791  1.9102  0.4780
 9248TIP3   OH249234   2.269   1.466  13.858  0.6026 -0.0890 -0.1754
 9248TIP3    H149235   2.193   1.410  13.845  1.3742 -1.5385  1.1807
 9248TIP3    H249236   2.250   1.545  13.808 -1.2636 -0.8867 -0.7997
 9249TIP3   OH249237   5.750   3.918  12.907  0.3476  0.0456 -0.4473
 9249TIP3    H149238   5.811   3.850  12.936  0.5215 -0.2537 -1.4528
 9249TIP3    H249239   5.690   3.872  12.848  1.9366  1.1646 -3.1131
 9250TIP3   OH249240   2.886   2.399  14.281  0.4376  0.1726 -0.4753
 9250TIP3    H149241   2.867   2.371  14.370  0.0787  0.3115 -0.5062
 9250TIP3    H249242   2.835   2.479  14.269  2.1672  1.3960 -0.0751
 9251TIP3   OH249243   1.214   3.437   0.665 -0.1110 -0.0322  0.2978
 9251TIP3    H149244   1.208   3.362   0.724  1.3590  1.1951  2.1156
 9251TIP3    H249245   1.154   3.502   0.702 -0.0997  0.3164 -0.2764
 9252TIP3   OH249246   5.563   1.238  13.473  0.1993  0.0661  0.6934
 9252TIP3    H149247   5.503   1.169  13.447 -0.5100  1.0381 -0.3378
 9252TIP3    H249248   5.512   1.293  13.533 -0.6295  1.8901 -1.5215
 9253TIP3   OH249249   1.935   6.227   5.092 -0.5187  0.7893  0.1415
 9253TIP3    H149250   1.918   6.284   5.017  1.0119 -0.0732 -0.9171
 9253TIP3    H249251   1.869   6.158   5.086 -2.1387  2.1502  1.2113
 9254TIP3   OH249252   0.981   2.369  13.138  0.3458  0.2940  0.1493
 9254TIP3    H149253   1.031   2.292  13.111  0.8199  0.8234 -0.5351
 9254TIP3    H249254   1.005   2.382  13.230 -0.5867 -1.0039  0.6101
 9255TIP3   OH249255   0.557   0.824  16.988 -0.3701 -0.1457  0.1668
 9255TIP3    H149256   0.466   0.812  17.016 -0.3614 -2.7288 -0.6679
 9255TIP3    H249257   0.608   0.811  17.068 -0.6386 -1.5223  0.1422
 9256TIP3   OH249258   1.973   0.564   6.213 -0.0374  0.3399 -0.1108
 9256TIP3    H149259   2.065   0.541   6.202  0.0115 -0.2258  1.3044
 9256TIP3    H249260   1.927   0.480   6.218 -0.3974  0.5777  0.8855
 9257TIP3   OH249261   1.916   1.062   6.496 -0.7467  0.0702 -0.3637
 9257TIP3    H149262   1.969   1.140   6.510 -0.5060  0.3358 -2.4997
 9257TIP3    H249263   1.976   0.988   6.508 -0.7657  0.2212  0.7544
 9258TIP3   OH249264   6.657   3.713  12.582  0.6523  0.4762  0.1125
 9258TIP3    H149265   6.670   3.672  12.668  0.6986  0.6200  0.1758
 9258TIP3    H249266   6.562   3.710  12.568  0.6689  0.2231  0.0542
 9259TIP3   OH249267   1.820   2.507  16.858 -0.1797  0.0361  0.4734
 9259TIP3    H149268   1.761   2.494  16.933 -0.5186 -1.2105  0.0117
 9259TIP3    H249269   1.828   2.420  16.818 -0.0803  0.6949 -1.0004
 9260TIP3   OH249270   0.832   3.306   5.705 -0.2255 -0.6161  0.2782
 9260TIP3    H149271   0.905   3.244   5.709  0.8116  0.3514 -1.9857
 9260TIP3    H249272   0.770   3.267   5.644 -0.2412 -0.1049 -0.0390
 9261TIP3   OH249273   2.518   3.519   0.236 -0.5669 -0.8993 -0.0094
 9261TIP3    H149274   2.489   3.551   0.151 -0.7216 -0.0324  0.3662
 9261TIP3    H249275   2.492   3.426   0.237 -2.0518 -0.5110 -0.2485
 9262TIP3   OH249276   3.658   4.267   1.095 -0.5925  0.8919 -0.2750
 9262TIP3    H149277   3.632   4.278   1.186 -0.8817  1.9921 -0.4706
 9262TIP3    H249278   3.695   4.179   1.091  1.5790  1.6201  1.4426
 9263TIP3   OH249279   4.805   6.374  11.966  0.4811 -0.1386 -0.0593
 9263TIP3    H149280   4.895   6.406  11.960  0.4791  0.4333  2.0362
 9263TIP3    H249281   4.813   6.279  11.972  0.7648 -0.2815 -2.0865
 9264TIP3   OH249282   3.725   1.042   4.591  0.1854 -0.1147 -0.4452
 9264TIP3    H149283   3.729   1.043   4.686  0.2978 -0.4191 -0.4426
 9264TIP3    H249284   3.708   0.950   4.569  0.5427 -0.1173 -0.7276
 9265TIP3   OH249285   1.866   1.193   1.168  0.2631  0.0568 -0.0862
 9265TIP3    H149286   1.905   1.151   1.091  2.5907  0.3876  0.8095
 9265TIP3    H249287   1.825   1.121   1.216  0.0466 -0.3876 -0.9151
 9266TIP3   OH249288   6.449   3.348   2.136  0.5174 -0.5897 -0.1063
 9266TIP3    H149289   6.355   3.348   2.120  0.1582  2.8594  1.2372
 9266TIP3    H249290   6.488   3.373   2.052 -0.0432  0.7078 -0.0095
 9267TIP3   OH249291   1.697   1.506  13.579 -0.1046 -0.3619  0.1293
 9267TIP3    H149292   1.657   1.555  13.508  1.1140  1.0892  0.3893
 9267TIP3    H249293   1.660   1.418  13.571 -0.5045 -0.0654 -1.8630
 9268TIP3   OH249294   6.523   0.680   4.944 -0.5418 -0.1012 -0.0701
 9268TIP3    H149295   6.581   0.633   4.884 -0.6872 -0.5563  0.1399
 9268TIP3    H249296   6.535   0.635   5.028  1.7079  2.1573  0.9700
 9269TIP3   OH249297   4.000   4.625   3.655  0.1513  0.2187 -0.6704
 9269TIP3    H149298   3.990   4.705   3.708  0.8906  0.4947 -0.9326
 9269TIP3    H249299   4.095   4.612   3.650  0.0117 -1.4266  0.4700
 9270TIP3   OH249300   0.589   3.538  14.093 -0.3971 -0.1961 -0.0396
 9270TIP3    H149301   0.571   3.445  14.076 -0.7413  0.1163 -1.5060
 9270TIP3    H249302   0.678   3.539  14.129 -0.0788 -1.0378 -0.7657
 9271TIP3   OH249303   4.022   3.171   5.244 -0.7163 -0.2041 -0.0183
 9271TIP3    H149304   4.024   3.165   5.340  0.5407 -0.5460 -0.0573
 9271TIP3    H249305   4.109   3.201   5.220  0.9693 -5.2017 -1.3462
 9272TIP3   OH249306   5.439   1.114  16.818 -0.2536 -0.1096  0.3754
 9272TIP3    H149307   5.490   1.048  16.864  2.1660  0.9844 -0.5608
 9272TIP3    H249308   5.475   1.115  16.729 -1.1447  1.4864 -0.0161
 9273TIP3   OH249309   6.718   0.508   5.089 -0.0208 -0.1843  0.6001
 9273TIP3    H149310   6.692   0.417   5.102 -2.7960  0.2442 -0.9905
 9273TIP3    H249311   6.662   0.557   5.149 -0.2831  0.5891 -0.2469
 9274TIP3   OH249312   2.691   5.101  12.684  0.5005 -0.2318  0.6877
 9274TIP3    H149313   2.728   5.042  12.619 -1.5666 -1.1193  0.2361
 9274TIP3    H249314   2.636   5.161  12.634  0.0781  0.0450  1.4626
 9275TIP3   OH249315   4.400   1.443  16.691 -0.2661  0.3231 -0.5793
 9275TIP3    H149316   4.340   1.485  16.631 -2.7525 -1.1503  0.7246
 9275TIP3    H249317   4.417   1.509  16.759 -0.9420  0.5516 -0.6274
 9276TIP3   OH249318   6.320   5.394   1.815 -0.4015 -0.5420 -0.0781
 9276TIP3    H149319   6.354   5.483   1.808  0.8211 -0.8968  1.0369
 9276TIP3    H249320   6.255   5.388   1.745  0.0882  0.9520 -0.7031
 9277TIP3   OH249321   6.471   0.566  13.628  0.0533 -0.1992  0.5534
 9277TIP3    H149322   6.381   0.566  13.595  0.4801  0.1309 -0.6427
 9277TIP3    H249323   6.490   0.473  13.645 -1.1965 -0.1286  2.8747
 9278TIP3   OH249324   0.895   2.136  16.035 -0.5162  0.2686  0.4983
 9278TIP3    H149325   0.897   2.076  16.109 -0.8096  0.5256  0.7134
 9278TIP3    H249326   0.974   2.189  16.046 -0.7777  0.5855  0.8576
 9279TIP3   OH249327   6.831   6.501  15.219 -0.1187  0.2207  0.6513
 9279TIP3    H149328   6.786   6.430  15.173  0.0214 -0.0364  0.9123
 9279TIP3    H249329   6.864   6.558  15.150  2.0569 -1.3302  0.3270
 9280TIP3   OH249330   4.804   3.494  17.070  0.2525 -0.3901  0.0371
 9280TIP3    H149331   4.886   3.451  17.094  0.6799  1.4740  2.1672
 9280TIP3    H249332   4.823   3.587  17.073 -1.7584  0.0758 -0.1480
 9281TIP3   OH249333   5.005   0.889   6.046 -0.4522  0.7305 -0.3932
 9281TIP3    H149334   4.972   0.818   6.100 -1.2841  0.4204 -1.2803
 9281TIP3    H249335   5.100   0.875   6.043 -0.3941  0.7109  0.8932
 9282TIP3   OH249336   1.150   5.947  16.839  0.3919 -0.6824  0.3320
 9282TIP3    H149337   1.063   5.965  16.873  0.6460 -0.6190  0.9561
 9282TIP3    H249338   1.209   5.998  16.895  0.6279  1.6569 -1.8747
 9283TIP3   OH249339   3.382   4.946  16.002  0.3032  0.4685 -0.1813
 9283TIP3    H149340   3.390   4.873  15.941 -3.9850  0.6414 -1.2153
 9283TIP3    H249341   3.443   5.012  15.969  1.1040 -1.0115 -1.7779
 9284TIP3   OH249342   2.404   3.989   4.803  0.3250 -0.2737  0.9629
 9284TIP3    H149343   2.397   3.992   4.898  0.5815 -0.0486  0.9744
 9284TIP3    H249344   2.370   3.902   4.780 -0.1967 -0.1373  1.2155
 9285TIP3   OH249345   4.164   2.929  14.477  0.1532  0.6577 -0.0107
 9285TIP3    H149346   4.145   2.838  14.499  0.6627  0.4400 -0.4286
 9285TIP3    H249347   4.084   2.976  14.498 -0.7262 -0.1486 -1.3267
 9286TIP3   OH249348   2.118   1.748   5.858  0.7538 -0.2711 -0.2328
 9286TIP3    H149349   2.126   1.722   5.950 -0.0659  0.8166  0.1603
 9286TIP3    H249350   2.027   1.729   5.835  0.5985  0.6630 -0.4313
 9287TIP3   OH249351   0.435   5.928  14.939 -0.4974  0.3928  0.2816
 9287TIP3    H149352   0.502   5.984  14.901  1.1244 -0.5330  1.6777
 9287TIP3    H249353   0.400   5.978  15.012 -0.6490  0.4770  0.1525
 9288TIP3   OH249354   2.050   5.447   3.669 -0.3630 -0.3719  0.0712
 9288TIP3    H149355   2.010   5.530   3.643 -1.0898 -0.8706 -0.4354
 9288TIP3    H249356   2.139   5.450   3.632 -0.0731  0.5459  0.8107
 9289TIP3   OH249357   4.397   3.363  13.623 -0.5540  0.1634 -0.1272
 9289TIP3    H149358   4.313   3.331  13.656 -0.7939  0.6952 -0.2074
 9289TIP3    H249359   4.380   3.381  13.530  0.8207 -3.9150 -1.3753
 9290TIP3   OH249360   4.829   4.021   3.579 -0.0955 -0.3273 -0.1583
 9290TIP3    H149361   4.771   3.950   3.552 -0.3643 -0.4055  0.6018
 9290TIP3    H249362   4.786   4.101   3.549 -0.4015 -0.4120  0.0510
 9291TIP3   OH249363   5.941   1.086  14.954  0.1680 -0.7153 -0.1188
 9291TIP3    H149364   5.997   1.014  14.983  0.6110  0.5592  2.4113
 9291TIP3    H249365   6.001   1.154  14.924 -0.1539 -0.4486 -0.1704
 9292TIP3   OH249366   5.431   0.903   2.728  0.1054  0.3824 -0.3749
 9292TIP3    H149367   5.414   0.824   2.677 -0.6927 -1.5230  2.5566
 9292TIP3    H249368   5.345   0.928   2.762  0.4761  2.0540 -0.5881
 9293TIP3   OH249369   1.864   2.675   0.041 -0.3664  0.1225  0.1173
 9293TIP3    H149370   1.898   2.635   0.120 -0.3215 -0.5309 -0.2209
 9293TIP3    H249371   1.770   2.657   0.044 -0.1241 -1.5560 -0.8674
 9294TIP3   OH249372   5.321   5.249   1.742  0.8267 -0.1220  0.4279
 9294TIP3    H149373   5.326   5.302   1.822  3.4136  0.2655  0.0801
 9294TIP3    H249374   5.397   5.275   1.691  1.1076 -2.7860 -0.6740
 9295TIP3   OH249375   1.320   1.203  13.251  0.4682 -0.5057  0.2549
 9295TIP3    H149376   1.357   1.200  13.340  1.4425  0.2505 -0.0986
 9295TIP3    H249377   1.351   1.286  13.215 -1.2931 -0.0203 -0.2281
 9296TIP3   OH249378   3.425   6.668   0.646  0.2238 -0.2174 -0.3225
 9296TIP3    H149379   3.498   6.609   0.629  0.2715  0.3957 -2.5442
 9296TIP3    H249380   3.466   6.752   0.668  0.1516 -0.3178  0.2328
 9297TIP3   OH249381   2.146   2.939  16.959 -0.0233  0.2536 -0.3072
 9297TIP3    H149382   2.138   2.851  16.995  1.4726  1.4543  3.5421
 9297TIP3    H249383   2.072   2.987  16.995 -0.2369  0.8370 -1.4879
 9298TIP3   OH249384   5.928   5.404  15.732  0.1987 -0.2613  0.2233
 9298TIP3    H149385   5.985   5.480  15.718  0.9526 -0.8173  0.1780
 9298TIP3    H249386   5.879   5.425  15.812  0.1422  0.4147  0.0199
 9299TIP3   OH249387   2.067   3.619  11.357 -0.0080  0.0965 -0.4882
 9299TIP3    H149388   2.112   3.649  11.278  1.8042 -1.3044 -0.0644
 9299TIP3    H249389   2.138   3.605  11.420 -1.3319  0.4051  1.1421
 9300TIP3   OH249390   6.123   2.655   2.472 -0.0842 -0.0854  0.0524
 9300TIP3    H149391   6.140   2.657   2.566  0.4035 -0.5288 -0.0204
 9300TIP3    H249392   6.145   2.743   2.441  0.9216 -0.2860  0.1654
 9301TIP3   OH249393   4.284   3.743  11.285 -0.5590  0.3851 -0.2206
 9301TIP3    H149394   4.226   3.750  11.209 -0.5795 -2.2977 -0.5259
 9301TIP3    H249395   4.227   3.754  11.361 -1.0144  0.3640 -0.5592
 9302TIP3   OH249396   2.727   3.875   3.037  0.2334  0.4429  0.0005
 9302TIP3    H149397   2.678   3.899   2.958  1.6828 -0.1908 -1.1432
 9302TIP3    H249398   2.660   3.863   3.104 -1.2149 -0.6420 -1.5492
 9303TIP3   OH249399   6.616   3.347   0.852  0.2193  0.0895 -0.1972
 9303TIP3    H149400   6.590   3.269   0.804  0.0704  0.5738 -0.9276
 9303TIP3    H249401   6.554   3.353   0.924  0.7006 -0.8795  0.3064
 9304TIP3   OH249402   4.789   3.572  10.658  0.5234  0.6966  0.0974
 9304TIP3    H149403   4.738   3.652  10.669 -0.6092  0.3093 -1.6947
 9304TIP3    H249404   4.816   3.574  10.566  0.7329 -0.8056  0.0984
 9305TIP3   OH249405   0.795   0.050  13.650  0.1383 -0.4892  0.1499
 9305TIP3    H149406   0.725   0.029  13.711  1.6635 -0.7789  1.9047
 9305TIP3    H249407   0.838  -0.034  13.633 -1.1649 -0.7257 -2.6687
 9306TIP3   OH249408   2.873   0.183   4.436 -0.0467  0.5946 -0.6553
 9306TIP3    H149409   2.960   0.220   4.454  0.3374 -0.9565  0.9090
 9306TIP3    H249410   2.826   0.191   4.519 -1.1214  0.6050 -1.2445
 9307TIP3   OH249411   3.657   2.732   2.122  0.1073  0.2407 -0.4228
 9307TIP3    H149412   3.722   2.661   2.124  0.8611  0.9035 -0.5547
 9307TIP3    H249413   3.668   2.772   2.036  1.0366  1.6941  0.3084
 9308TIP3   OH249414   1.263   4.713   3.446 -0.1200 -0.0028  0.4816
 9308TIP3    H149415   1.307   4.789   3.486 -0.9062  0.2905  0.8177
 9308TIP3    H249416   1.311   4.698   3.365  0.1048  0.8070  0.4489
 9309TIP3   OH249417   5.953   1.042   3.389  0.4021 -0.0981  0.2528
 9309TIP3    H149418   5.953   1.025   3.294 -2.0002 -0.6593  0.2891
 9309TIP3    H249419   5.960   0.956   3.429 -0.2050 -0.0124  0.5544
 9310TIP3   OH249420   4.300   4.848  15.637 -0.5503 -0.0517  0.3634
 9310TIP3    H149421   4.375   4.827  15.692  2.0331  0.7016 -2.5584
 9310TIP3    H249422   4.285   4.769  15.585 -0.1121  0.6195 -0.8041
 9311TIP3   OH249423   1.093   3.870  11.880 -0.4995 -0.7312 -0.2333
 9311TIP3    H149424   1.084   3.810  11.954 -1.2038  0.3541  0.6019
 9311TIP3    H249425   1.168   3.836  11.830 -1.1159 -2.5014 -0.0170
 9312TIP3   OH249426   2.301   5.646  13.684  0.6202 -0.3307 -0.1494
 9312TIP3    H149427   2.384   5.600  13.696 -1.0394 -3.5195  0.0163
 9312TIP3    H249428   2.247   5.587  13.632 -1.6947  1.5015 -0.0101
 9313TIP3   OH249429   0.407   5.817  14.067 -0.3081  0.3315 -0.3603
 9313TIP3    H149430   0.320   5.848  14.092 -0.1646 -0.8305  1.7797
 9313TIP3    H249431   0.454   5.807  14.149  1.7641  0.5685 -1.4455
 9314TIP3   OH249432   1.335   6.476   1.282 -0.1762 -0.8065  0.3309
 9314TIP3    H149433   1.315   6.500   1.373  1.1442 -1.9380  0.9714
 9314TIP3    H249434   1.424   6.440   1.286 -0.1398 -1.0007 -1.3983
 9315TIP3   OH249435   4.516   3.768  13.610 -0.0988  0.2589 -0.3038
 9315TIP3    H149436   4.458   3.747  13.537  0.5944 -0.6985 -0.6020
 9315TIP3    H249437   4.600   3.788  13.569 -0.0569  1.0972  0.1578
 9316TIP3   OH249438   2.946   3.798   4.957 -0.1392 -0.0257 -0.5771
 9316TIP3    H149439   2.991   3.716   4.937  0.8688  0.2856  0.2937
 9316TIP3    H249440   2.865   3.794   4.906 -0.0627 -1.5066 -0.6431
 9317TIP3   OH249441   1.180   4.320   0.232 -0.2258  0.3888  0.0926
 9317TIP3    H149442   1.201   4.295   0.143 -1.1887 -2.7613  0.6304
 9317TIP3    H249443   1.262   4.311   0.280 -0.1502  0.0252 -0.1014
 9318TIP3   OH249444   2.670   6.624   0.562  0.4164  0.3992  0.2109
 9318TIP3    H149445   2.602   6.608   0.628  1.1569  0.7317  1.0804
 9318TIP3    H249446   2.749   6.644   0.614  1.3001 -0.4634 -0.7543
 9319TIP3   OH249447   6.569   6.752   0.046 -0.0206  0.0397 -0.0371
 9319TIP3    H149448   6.484   6.707   0.039 -0.3883  0.8033 -0.6430
 9319TIP3    H249449   6.622   6.695   0.101 -1.2190 -0.0189  1.0944
 9320TIP3   OH249450   5.843   5.508  16.432 -0.1162  0.3898 -0.1041
 9320TIP3    H149451   5.797   5.429  16.461  0.3751 -0.2090 -0.9259
 9320TIP3    H249452   5.923   5.510  16.484 -0.6302  0.9504  0.6902
 9321TIP3   OH249453   6.781   0.050   5.964  0.2886 -0.4691 -0.1465
 9321TIP3    H149454   6.867   0.069   6.001  0.2434  0.0730 -0.3107
 9321TIP3    H249455   6.718   0.077   6.031  0.2564 -1.5653  0.2825
 9322TIP3   OH249456   1.444   2.375  13.215  0.2631 -0.5563  0.2273
 9322TIP3    H149457   1.398   2.321  13.280  0.5696  1.1208  1.9078
 9322TIP3    H249458   1.510   2.422  13.266  0.4261  0.9222 -1.2825
 9323TIP3   OH249459   2.943   5.858   4.611 -0.1848  0.2086 -0.1032
 9323TIP3    H149460   2.903   5.924   4.555 -0.0680  0.1938 -0.2047
 9323TIP3    H249461   3.032   5.849   4.577 -0.3183 -0.2736 -0.3248
 9324TIP3   OH249462   0.941   6.780   1.182 -0.0839  0.0048 -0.3199
 9324TIP3    H149463   1.024   6.810   1.217  0.2752 -1.4876  0.1599
 9324TIP3    H249464   0.959   6.762   1.090  0.2695 -0.7718 -0.1089
 9325TIP3   OH249465   0.161   2.965  14.551 -0.4387  0.2682 -0.0989
 9325TIP3    H149466   0.109   3.034  14.592  0.0681  0.2204  0.6407
 9325TIP3    H249467   0.127   2.884  14.590  2.3345  0.3923  2.9844
 9326TIP3   OH249468   5.689   5.458   0.445 -0.4054 -0.6170  0.0384
 9326TIP3    H149469   5.660   5.459   0.353  0.8793 -0.7166 -0.3882
 9326TIP3    H249470   5.721   5.547   0.461 -0.0626 -0.7678  0.1992
 9327TIP3   OH249471   5.125   1.104   3.863 -0.3092  0.4655  0.0721
 9327TIP3    H149472   5.116   1.159   3.785 -0.4571  1.7198  0.9365
 9327TIP3    H249473   5.035   1.088   3.892 -0.2305  0.8876  0.5646
 9328TIP3   OH249474   6.134   6.686  16.351 -0.2413 -0.2333 -0.2230
 9328TIP3    H149475   6.127   6.704  16.258 -0.9665 -2.4235 -0.6627
 9328TIP3    H249476   6.066   6.741  16.391 -0.2196  0.3997 -1.0280
 9329TIP3   OH249477   4.402   4.711  16.113 -0.0455 -0.2285  0.1667
 9329TIP3    H149478   4.475   4.650  16.106 -0.6257 -0.9484  0.3885
 9329TIP3    H249479   4.325   4.657  16.130 -0.3219  0.6714  2.0726
 9330TIP3   OH249480   3.743   1.389  13.249 -0.7689  0.0094 -0.3038
 9330TIP3    H149481   3.693   1.455  13.297 -1.7961  0.4780 -1.9377
 9330TIP3    H249482   3.681   1.317  13.235 -0.1750 -0.5665 -0.0482
 9331TIP3   OH249483   3.942   5.968   4.352  0.1438  0.3625  0.1128
 9331TIP3    H149484   3.862   5.933   4.313  1.7457 -2.4310 -0.9887
 9331TIP3    H249485   3.924   5.971   4.446 -1.6345  1.0383 -0.2136
 9332TIP3   OH249486   5.826   3.199  15.025  0.1805 -0.1802  0.1238
 9332TIP3    H149487   5.861   3.260  15.090  1.3847  0.2422 -0.8736
 9332TIP3    H249488   5.877   3.218  14.946 -1.4345 -0.4814 -1.0227
 9333TIP3   OH249489   0.444   2.083  16.863 -0.3577  0.3773 -0.3955
 9333TIP3    H149490   0.459   2.153  16.926 -0.7188 -0.1116  0.2469
 9333TIP3    H249491   0.360   2.044  16.889  0.3292 -0.9609 -0.0879
 9334TIP3   OH249492   2.147   4.727  15.334  0.0804 -0.0133  0.1439
 9334TIP3    H149493   2.068   4.778  15.350 -0.2294  0.5564 -2.6469
 9334TIP3    H249494   2.116   4.643  15.300  0.6373  0.0070 -0.4523
 9335TIP3   OH249495   3.401   1.328   2.845  0.5128 -0.1037  0.7661
 9335TIP3    H149496   3.336   1.391   2.814  0.9907 -0.1953 -0.4423
 9335TIP3    H249497   3.379   1.315   2.937 -0.3906  0.8386  0.6968
 9336TIP3   OH249498   5.222   6.587   6.634 -0.0661  0.0645 -0.3303
 9336TIP3    H149499   5.201   6.653   6.568 -1.5691 -0.6965 -0.6578
 9336TIP3    H249500   5.149   6.589   6.695  1.5411  1.1371  1.6969
 9337TIP3   OH249501   0.469   4.882  15.618 -0.3596  0.2745 -0.4714
 9337TIP3    H149502   0.530   4.867  15.689 -0.8861  1.8496  0.3759
 9337TIP3    H249503   0.515   4.943  15.560  0.3715 -1.5914 -1.9454
 9338TIP3   OH249504   3.615   0.791  12.563  0.1813  0.0160  0.3042
 9338TIP3    H149505   3.671   0.847  12.509  2.5817 -3.4237 -1.1436
 9338TIP3    H249506   3.671   0.767  12.637 -0.3817 -1.2400  0.3407
 9339TIP3   OH249507   2.457   5.259  12.660  0.4360 -0.1675  0.1254
 9339TIP3    H149508   2.431   5.347  12.688 -0.1110 -0.3226  0.1176
 9339TIP3    H249509   2.444   5.258  12.565 -1.1760 -0.7731  0.3214
 9340TIP3   OH249510   6.568   2.771  13.611  0.3257 -0.1812 -0.2994
 9340TIP3    H149511   6.502   2.816  13.663  0.2352 -0.7897  0.1168
 9340TIP3    H249512   6.599   2.837  13.549 -1.6131 -0.2254 -1.3968
 9341TIP3   OH249513   3.160   1.436  14.552 -0.1812 -0.0014  0.2614
 9341TIP3    H149514   3.144   1.351  14.592 -2.0745  1.0176  1.8981
 9341TIP3    H249515   3.254   1.450  14.561 -0.0225 -1.4051  1.0379
 9342TIP3   OH249516   2.156   2.272   4.548  0.2281  0.9450 -0.5428
 9342TIP3    H149517   2.126   2.300   4.634 -0.6627  1.9169 -1.1371
 9342TIP3    H249518   2.223   2.337   4.524  1.1237  0.1573 -0.2189
 9343TIP3   OH249519   6.336   5.662  15.268 -0.2899 -0.2532 -0.2105
 9343TIP3    H149520   6.370   5.699  15.349 -1.4435 -0.0148  0.1860
 9343TIP3    H249521   6.378   5.712  15.198 -0.1918  0.3373  0.2726
 9344TIP3   OH249522   1.062   0.442   3.411 -0.0169 -0.0162 -0.2539
 9344TIP3    H149523   1.081   0.500   3.484 -1.0140  0.7534 -0.5899
 9344TIP3    H249524   1.125   0.468   3.343 -0.2799  0.4889 -0.3082
 9345TIP3   OH249525   5.221   0.171  16.120  0.5186 -0.1725  0.0152
 9345TIP3    H149526   5.249   0.091  16.076 -1.7301  0.1877 -2.3791
 9345TIP3    H249527   5.221   0.237  16.051 -2.7243  0.5799  0.5811
 9346TIP3   OH249528   1.231   5.828   4.961  0.2544  0.4637  0.2244
 9346TIP3    H149529   1.247   5.922   4.960 -1.6781  0.8645 -1.8751
 9346TIP3    H249530   1.313   5.790   4.931  0.9530  1.4888  0.7851
 9347TIP3   OH249531   1.301   4.932   0.684 -0.6582 -0.3016  0.1288
 9347TIP3    H149532   1.231   4.991   0.711 -0.4603 -0.3848  0.8380
 9347TIP3    H249533   1.373   4.990   0.656 -0.6588 -0.2097  0.3173
 9348TIP3   OH249534   6.468   3.785   0.594 -0.2123 -0.3016  0.5658
 9348TIP3    H149535   6.383   3.796   0.636 -0.3672  0.2257  0.1312
 9348TIP3    H249536   6.495   3.697   0.617 -0.2519  0.0053  1.8327
 9349TIP3   OH249537   4.468   4.782  14.176 -0.3336  0.8142  0.0416
 9349TIP3    H149538   4.444   4.830  14.255  1.8686  0.8423  0.7695
 9349TIP3    H249539   4.440   4.839  14.104 -2.3351  0.8080  0.7513
 9350TIP3   OH249540   5.070   3.954  12.160 -0.4556  0.4703 -0.3031
 9350TIP3    H149541   4.996   3.929  12.105 -1.3406 -0.2859  1.1775
 9350TIP3    H249542   5.090   3.876  12.211 -0.0172  1.2849  0.8346
 9351TIP3   OH249543   2.403   2.185   2.389  0.4044  0.7300 -0.4605
 9351TIP3    H149544   2.427   2.236   2.466  0.3341 -0.3790  0.3177
 9351TIP3    H249545   2.452   2.103   2.397  0.0440  0.4062 -1.3523
 9352TIP3   OH249546   5.204   3.841  12.406  0.3364  0.1198 -0.4563
 9352TIP3    H149547   5.123   3.804  12.440  0.0514  0.1373 -1.1092
 9352TIP3    H249548   5.272   3.779  12.433  0.1489  0.2420  0.3200
 9353TIP3   OH249549   0.497   5.634  11.958  0.0941  0.1103  0.3641
 9353TIP3    H149550   0.573   5.664  12.008 -1.1815 -0.0035  2.4877
 9353TIP3    H249551   0.449   5.713  11.936  0.5187  0.1389 -0.5148
 9354TIP3   OH249552   4.836   2.460   4.138  0.3027 -0.5134  0.3143
 9354TIP3    H149553   4.793   2.544   4.120  0.6272 -0.7216 -1.6522
 9354TIP3    H249554   4.777   2.415   4.198  0.2784  1.2330  1.6858
 9355TIP3   OH249555   2.222   2.474   3.837  0.2240 -0.5083 -0.3177
 9355TIP3    H149556   2.248   2.453   3.926 -0.2272 -1.8069 -0.4782
 9355TIP3    H249557   2.268   2.556   3.818 -1.5812  1.1536  1.9329
 9356TIP3   OH249558   5.596   4.133  11.721  0.2142  0.5226 -0.3554
 9356TIP3    H149559   5.689   4.157  11.721  1.1749 -2.7354 -0.2406
 9356TIP3    H249560   5.573   4.129  11.813  0.0776  0.8815 -0.3724
 9357TIP3   OH249561   6.653   6.445  12.614  0.0609  0.4660  0.3286
 9357TIP3    H149562   6.706   6.413  12.541  1.2217 -0.7429  1.6519
 9357TIP3    H249563   6.571   6.396  12.608  0.3845 -0.0624  0.1745
 9358TIP3   OH249564   5.143   2.080  15.709 -0.5994  0.0283 -0.1645
 9358TIP3    H149565   5.093   2.161  15.702  0.9337  0.9821 -0.5241
 9358TIP3    H249566   5.098   2.029  15.777 -0.7503  1.8097  1.1245
 9359TIP3   OH249567   5.854   2.891  14.245  0.4647 -0.2561 -0.2454
 9359TIP3    H149568   5.811   2.976  14.243 -0.4723 -0.7252 -0.5117
 9359TIP3    H249569   5.830   2.851  14.161  1.8784 -0.3152 -0.6459
 9360TIP3   OH249570   3.233   0.915  16.826  0.1093  0.2722 -0.5148
 9360TIP3    H149571   3.322   0.921  16.791  0.0791  1.4621 -0.4391
 9360TIP3    H249572   3.208   1.006  16.844 -0.2024 -0.2162  1.8151
 9361TIP3   OH249573   0.516   2.833  11.082 -0.5740  0.0279 -0.1702
 9361TIP3    H149574   0.575   2.762  11.056 -1.5120 -1.6721  2.0173
 9361TIP3    H249575   0.449   2.835  11.014  0.0622 -0.4176 -0.8243
 9362TIP3   OH249576   2.842   6.282  12.209 -0.2484  0.2375  0.3707
 9362TIP3    H149577   2.832   6.371  12.174 -0.5092 -0.2361 -0.7824
 9362TIP3    H249578   2.848   6.295  12.304 -0.7165  1.4472  0.2572
 9363TIP3   OH249579   6.021   3.586   3.290  0.7278 -0.6328 -0.3491
 9363TIP3    H149580   5.931   3.585   3.258  0.5480 -0.3081  0.1292
 9363TIP3    H249581   6.075   3.581   3.212  0.3985  3.6015 -1.0929
 9364TIP3   OH249582   2.791   1.926  15.950  0.1319  0.1700 -0.0073
 9364TIP3    H149583   2.834   1.912  16.034 -1.1655 -1.3535  0.4383
 9364TIP3    H249584   2.701   1.949  15.973 -0.4414 -1.0381 -0.9722
 9365TIP3   OH249585   0.812   0.030  15.666 -0.0115 -0.4359  0.3986
 9365TIP3    H149586   0.846  -0.057  15.686 -0.3848 -1.1507 -1.7996
 9365TIP3    H249587   0.750   0.048  15.737 -0.0193 -2.0087  0.8346
 9366TIP3   OH249588   2.280   5.449  14.217 -0.3319  0.3230  0.3508
 9366TIP3    H149589   2.207   5.441  14.155 -0.6566 -0.0621  0.7774
 9366TIP3    H249590   2.326   5.365  14.211 -0.3379  0.3003  0.5889
 9367TIP3   OH249591   0.412   2.850   2.997 -0.0150  0.2795  0.5215
 9367TIP3    H149592   0.473   2.836   2.925 -1.2350  0.0627 -0.4926
 9367TIP3    H249593   0.420   2.943   3.017  0.7139  0.2332  0.4709
 9368TIP3   OH249594   3.700   4.212  13.704 -0.5746  0.6104 -0.4233
 9368TIP3    H149595   3.726   4.213  13.612 -0.8690 -2.7747 -0.6890
 9368TIP3    H249596   3.780   4.231  13.752  0.3925 -0.8353 -1.3780
 9369TIP3   OH249597   4.195   4.381   4.646  0.1737  0.5077 -0.2572
 9369TIP3    H149598   4.283   4.388   4.682 -0.5928 -0.8096  2.1125
 9369TIP3    H249599   4.205   4.398   4.552  3.3382 -1.9355 -0.5042
 9370TIP3   OH249600   5.986   3.247  13.412  0.4567  0.0934  0.4172
 9370TIP3    H149601   5.956   3.203  13.492 -0.7410 -0.4235 -0.2943
 9370TIP3    H249602   6.073   3.209  13.396  0.6337  0.0662  1.3628
 9371TIP3   OH249603   2.856   2.784   0.970 -0.0987  0.3400  0.7140
 9371TIP3    H149604   2.788   2.851   0.970  0.2264  0.6769  1.4034
 9371TIP3    H249605   2.926   2.820   1.024  0.3175 -0.3183  0.6290
 9372TIP3   OH249606   1.973   5.385   2.115 -0.5783  0.1007  0.0032
 9372TIP3    H149607   1.891   5.337   2.132 -0.4084  0.2291  1.2319
 9372TIP3    H249608   1.972   5.457   2.177  0.4388  0.1528 -0.0280
 9373TIP3   OH249609   4.094   1.831  14.143 -0.0144 -0.1027 -0.2338
 9373TIP3    H149610   4.174   1.828  14.195 -0.0379  0.2934 -0.1752
 9373TIP3    H249611   4.024   1.810  14.205 -0.0892  0.7952 -0.0024
 9374TIP3   OH249612   3.906   6.820  15.803 -0.4283 -0.1395  0.0921
 9374TIP3    H149613   3.835   6.802  15.864 -0.3835 -1.2498 -0.1738
 9374TIP3    H249614   3.928   6.912  15.818 -1.3969 -0.0034  0.7149
 9375TIP3   OH249615   5.736   2.176   2.786 -0.4140 -0.5834  0.2130
 9375TIP3    H149616   5.691   2.103   2.827 -0.3395 -0.5963  0.2739
 9375TIP3    H249617   5.775   2.139   2.707 -0.2898 -0.6343  0.2971
 9376TIP3   OH249618   4.885   3.690  15.306  0.5021 -0.4057  0.0913
 9376TIP3    H149619   4.800   3.719  15.272  0.8489 -0.3612 -0.7523
 9376TIP3    H249620   4.949   3.721  15.242  1.0531 -1.4234  0.1292
 9377TIP3   OH249621   2.940   3.215  11.484  0.1103 -0.3176 -0.2717
 9377TIP3    H149622   2.858   3.228  11.436  0.3445 -0.1228 -0.6217
 9377TIP3    H249623   3.000   3.278  11.445 -0.0395  0.7215  1.1051
 9378TIP3   OH249624   1.799   1.103  14.101  0.0631  0.1330 -0.1066
 9378TIP3    H149625   1.822   1.174  14.161  2.3921 -0.7957  0.2087
 9378TIP3    H249626   1.846   1.123  14.020 -0.9826  0.0445 -0.7497
 9379TIP3   OH249627   2.357   1.075   3.019  0.2379  0.0897  0.4477
 9379TIP3    H149628   2.393   1.144   3.076  2.9567  1.3993 -2.4964
 9379TIP3    H249629   2.278   1.114   2.982  0.3334  0.5877  0.7477
 9380TIP3   OH249630   5.817   3.043  13.888 -0.3180  0.0583  0.4471
 9380TIP3    H149631   5.883   3.104  13.922 -2.4402  2.1658  1.1572
 9380TIP3    H249632   5.862   2.994  13.819  1.8567  1.6098  0.6501
 9381TIP3   OH249633   0.874   1.396   6.591  0.4246 -0.3799 -0.5171
 9381TIP3    H149634   0.895   1.320   6.537  1.8707  0.7209 -1.5641
 9381TIP3    H249635   0.951   1.409   6.646  0.1540  0.2764 -0.2777
 9382TIP3   OH249636   4.830   6.134  11.724  1.0544 -0.0117  0.2335
 9382TIP3    H149637   4.913   6.086  11.719  0.0295 -1.9666  1.0138
 9382TIP3    H249638   4.817   6.150  11.817 -0.1209 -0.9864  0.2518
 9383TIP3   OH249639   0.397   4.385   3.137 -0.4652 -0.0249  0.0585
 9383TIP3    H149640   0.421   4.334   3.059  1.1470  0.4699  0.2141
 9383TIP3    H249641   0.416   4.327   3.210  0.8434  0.5698  0.2088
 9384TIP3   OH249642   0.266   3.585  10.268 -0.1551  0.1525  0.2160
 9384TIP3    H149643   0.318   3.509  10.244 -1.1923 -0.1418 -1.2603
 9384TIP3    H249644   0.326   3.642  10.316  1.3349 -0.4815 -0.8243
 9385TIP3   OH249645   5.134   6.119   5.953 -0.2160  0.1254  0.2181
 9385TIP3    H149646   5.120   6.029   5.924  0.0308  0.4547 -0.9910
 9385TIP3    H249647   5.155   6.111   6.046  2.2685 -1.3155 -0.3745
 9386TIP3   OH249648   5.390   2.362  11.557 -0.6767  0.1457  0.3812
 9386TIP3    H149649   5.296   2.366  11.577 -0.8054  0.0629 -0.1783
 9386TIP3    H249650   5.420   2.281  11.599 -1.2760 -0.8661 -1.0424
 9387TIP3   OH249651   3.576   2.866  12.633  0.1461 -0.3725  0.1283
 9387TIP3    H149652   3.607   2.777  12.616 -2.0491 -0.9306 -1.4130
 9387TIP3    H249653   3.600   2.915  12.555 -0.4853 -0.1880  0.0388
 9388TIP3   OH249654   5.320   6.285  16.492 -0.1070  0.1225  0.0179
 9388TIP3    H149655   5.341   6.203  16.448  0.2987 -0.7293  1.7115
 9388TIP3    H249656   5.383   6.348  16.458 -0.2568 -0.3212 -1.1076
 9389TIP3   OH249657   4.776   6.100  11.981  0.3905 -0.6935 -0.3093
 9389TIP3    H149658   4.704   6.038  11.970 -0.1446  0.0058 -0.8716
 9389TIP3    H249659   4.796   6.098  12.075 -1.8107  0.6240  0.2638
 9390TIP3   OH249660   5.092   3.634   4.658 -0.8089 -0.5069 -0.3160
 9390TIP3    H149661   5.058   3.547   4.639 -0.5367 -0.5658 -0.5559
 9390TIP3    H249662   5.149   3.654   4.583 -0.1486 -0.5111  0.1751
 9391TIP3   OH249663   3.182   6.096  11.902 -0.3134 -0.0544 -0.5706
 9391TIP3    H149664   3.130   6.141  11.969  0.9498 -1.8007  1.7299
 9391TIP3    H249665   3.123   6.029  11.867 -0.7822  0.4603 -0.7906
 9392TIP3   OH249666   2.048   2.108  11.307  0.3948  0.2547  0.2615
 9392TIP3    H149667   2.005   2.036  11.262  1.4452 -0.9756  1.1369
 9392TIP3    H249668   1.990   2.183  11.295 -1.0571 -0.8943 -0.1235
 9393TIP3   OH249669   2.164   2.497  10.996  0.1719  0.1444  0.2465
 9393TIP3    H149670   2.122   2.573  11.036 -0.6596  1.0263 -2.1473
 9393TIP3    H249671   2.194   2.528  10.910  1.9927 -1.6048  0.1755
 9394TIP3   OH249672   4.768   2.486   0.803 -0.4868 -0.1751  0.4309
 9394TIP3    H149673   4.776   2.513   0.895 -0.8892  2.5595 -0.2488
 9394TIP3    H249674   4.674   2.484   0.787 -0.4068 -0.2806 -0.0272
 9395TIP3   OH249675   1.249   4.484  16.939 -0.8088 -0.5957  0.3086
 9395TIP3    H149676   1.201   4.503  17.019  1.4139 -1.3556  1.9231
 9395TIP3    H249677   1.280   4.394  16.949 -0.1535 -0.5874 -1.2464
 9396TIP3   OH249678   3.263   4.838  12.153  0.1960  0.7409 -0.3724
 9396TIP3    H149679   3.290   4.929  12.148 -0.6427  0.9540 -4.6857
 9396TIP3    H249680   3.168   4.841  12.165  0.2782  0.3304  0.5369
 9397TIP3   OH249681   5.206   3.470  11.380 -0.1116 -0.0346 -0.3292
 9397TIP3    H149682   5.135   3.416  11.346 -1.3615  0.9997  0.5320
 9397TIP3    H249683   5.169   3.513  11.457  1.0698  1.4509 -0.5258
 9398TIP3   OH249684   2.880   4.972  14.358  0.0599 -0.1023  0.4422
 9398TIP3    H149685   2.839   4.886  14.348 -0.3654  0.3501 -2.6272
 9398TIP3    H249686   2.809   5.031  14.379 -0.0563 -0.1362  0.1528
 9399TIP3   OH249687   6.605   5.474  15.769 -0.6110  0.6738  0.8273
 9399TIP3    H149688   6.667   5.425  15.822  0.7971  0.4335 -0.9515
 9399TIP3    H249689   6.570   5.540  15.828 -0.5728 -0.7811  2.5515
 9400TIP3   OH249690   2.436   4.861   1.252  0.0263 -0.5179 -0.6088
 9400TIP3    H149691   2.356   4.808   1.256  0.5147 -1.3914 -1.7254
 9400TIP3    H249692   2.433   4.916   1.330 -1.3793 -0.9459 -0.3400
 9401TIP3   OH249693   0.589   4.979   5.039  0.2460  0.1921  0.5587
 9401TIP3    H149694   0.592   5.020   4.952  1.4725 -0.5312  0.2340
 9401TIP3    H249695   0.517   4.916   5.033  0.1741  0.3098  0.1369
 9402TIP3   OH249696   2.058   4.825  16.987  0.1378  0.2617 -0.3608
 9402TIP3    H149697   1.994   4.845  16.919 -1.1239  0.1803  0.7819
 9402TIP3    H249698   2.097   4.910  17.008 -0.1871  0.4404 -0.4679
 9403TIP3   OH249699   2.413   4.344   0.893 -0.3012  0.1079 -0.4155
 9403TIP3    H149700   2.492   4.302   0.927 -0.2710 -0.5064 -1.1941
 9403TIP3    H249701   2.440   4.377   0.807 -0.9417 -0.3045 -0.7828
 9404TIP3   OH249702   4.381   0.317   5.119  0.0848 -0.3170 -0.0086
 9404TIP3    H149703   4.433   0.343   5.196 -0.4122 -0.4037  0.3619
 9404TIP3    H249704   4.440   0.261   5.068  0.7740  0.5756 -0.2192
 9405TIP3   OH249705   0.676   0.091  11.298 -0.0182 -0.3360  0.4386
 9405TIP3    H149706   0.697   0.087  11.391  2.5225  2.3774  0.1039
 9405TIP3    H249707   0.582   0.109  11.295 -0.4390 -1.9426  2.3799
 9406TIP3   OH249708   4.041   0.430  14.727 -0.3730 -0.7341 -0.4354
 9406TIP3    H149709   4.028   0.338  14.751  1.3290 -0.6993  0.8494
 9406TIP3    H249710   4.099   0.427  14.651  1.5212 -0.7517  0.9398
 9407TIP3   OH249711   4.065   4.296  11.337  0.7234 -0.1891  0.5169
 9407TIP3    H149712   4.133   4.231  11.316  0.0278 -0.9442  0.5154
 9407TIP3    H249713   4.044   4.336  11.252  0.3917 -0.7421  0.3322
 9408TIP3   OH249714   3.485   0.595  14.322 -0.6873  0.0937 -0.5188
 9408TIP3    H149715   3.515   0.649  14.249  0.2531  1.0581  0.5588
 9408TIP3    H249716   3.479   0.507  14.285 -0.3791  0.5894 -1.8028
 9409TIP3   OH249717   2.163   4.040  15.163 -0.4909 -0.5852 -0.3605
 9409TIP3    H149718   2.211   3.957  15.153 -0.9918 -0.8506 -0.5992
 9409TIP3    H249719   2.230   4.103  15.189  0.2145 -0.7073 -1.7690
 9410TIP3   OH249720   3.194   0.513   2.951  0.0983 -0.2340  0.0745
 9410TIP3    H149721   3.213   0.480   2.863  0.0776 -0.8947  0.3124
 9410TIP3    H249722   3.233   0.449   3.009  0.2783  0.3006  0.5528
 9411TIP3   OH249723   0.195   2.771  12.018  0.0741 -0.1815  0.4684
 9411TIP3    H149724   0.287   2.774  12.046  0.1051  1.7591  0.3522
 9411TIP3    H249725   0.146   2.804  12.094 -0.5493 -1.2880  0.5633
 9412TIP3   OH249726   1.187   1.425  15.253  0.5656 -0.7246 -0.5030
 9412TIP3    H149727   1.092   1.411  15.251  0.4278 -0.1814  1.1747
 9412TIP3    H249728   1.223   1.342  15.280  0.4193 -0.4324  0.6240
 9413TIP3   OH249729   2.899   4.622  13.376  0.0415  0.4020  0.1814
 9413TIP3    H149730   2.968   4.681  13.407  1.0744  1.1057 -3.0250
 9413TIP3    H249731   2.857   4.590  13.455  2.9575  1.2501  2.2487
 9414TIP3   OH249732   0.028   5.427   4.498  0.4334 -0.0087  0.5963
 9414TIP3    H149733  -0.055   5.447   4.541 -0.0738 -0.2510 -0.2526
 9414TIP3    H249734   0.046   5.336   4.522 -1.3526 -1.1791 -1.9875
 9415TIP3   OH249735   6.226   1.736  12.139 -0.3343  0.4942  0.3968
 9415TIP3    H149736   6.308   1.767  12.102  0.7091 -1.0973  1.2409
 9415TIP3    H249737   6.162   1.748  12.070  1.2369 -1.0236 -1.4218
 9416TIP3   OH249738   2.245   0.718   3.859 -0.1906 -0.2291  0.4817
 9416TIP3    H149739   2.180   0.648   3.870 -2.4424  1.4851 -0.9490
 9416TIP3    H249740   2.308   0.682   3.796 -1.9463 -0.6212 -1.1491
 9417TIP3   OH249741   4.013   2.663   0.319 -0.2117 -0.1904 -0.0621
 9417TIP3    H149742   4.072   2.600   0.276 -0.1317  0.4003 -0.8355
 9417TIP3    H249743   4.066   2.742   0.329 -1.0022  0.5111 -1.2140
 9418TIP3   OH249744   6.638   4.911  10.375  0.2641  0.2659  0.7755
 9418TIP3    H149745   6.667   4.876  10.460  0.9873  1.8964  1.2329
 9418TIP3    H249746   6.710   4.890  10.315  0.9589  1.4271  1.1773
 9419TIP3   OH249747   0.391   1.368  17.101 -0.4805  0.3140  0.5854
 9419TIP3    H149748   0.364   1.379  17.010  0.0008  0.1710  0.4235
 9419TIP3    H249749   0.309   1.371  17.151 -0.6329  1.9326  0.3027
 9420TIP3   OH249750   6.478   6.099  13.555  0.1096  0.6183 -0.4345
 9420TIP3    H149751   6.396   6.141  13.528 -0.3077  0.1905  0.1286
 9420TIP3    H249752   6.455   6.053  13.636  1.0120  0.8275 -0.0539
 9421TIP3   OH249753   1.339   2.463  11.531 -0.7106 -0.0176 -0.2774
 9421TIP3    H149754   1.301   2.402  11.467 -1.0812  1.3247 -1.3640
 9421TIP3    H249755   1.264   2.511  11.566 -0.3947 -0.0001  0.3852
 9422TIP3   OH249756   2.913   0.444   4.733 -0.3919 -0.0008  0.4187
 9422TIP3    H149757   2.866   0.378   4.784  1.2733 -1.6300 -0.0280
 9422TIP3    H249758   2.846   0.506   4.704 -1.9073 -1.1047  1.4601
 9423TIP3   OH249759   3.523   0.467   2.994  0.3133  0.5445 -0.3772
 9423TIP3    H149760   3.515   0.525   2.917 -0.5516  1.2848  0.2507
 9423TIP3    H249761   3.582   0.513   3.052  1.0190 -0.0487 -0.6132
 9424TIP3   OH249762   0.007   0.286  15.542 -0.2037 -0.2405  0.2644
 9424TIP3    H149763  -0.040   0.202  15.547 -1.7608  0.4652 -1.4663
 9424TIP3    H249764   0.024   0.298  15.448 -0.1096  1.4366  0.4731
 9425TIP3   OH249765   4.307   1.071  16.517  0.5010  0.1756 -0.2228
 9425TIP3    H149766   4.298   1.058  16.611 -3.1203  1.9128 -0.1682
 9425TIP3    H249767   4.395   1.038  16.496  1.3067 -0.5593  3.6506
 9426TIP3   OH249768   4.666   1.994   1.933 -0.1947  0.6550  0.3823
 9426TIP3    H149769   4.616   2.023   1.857  1.0784 -0.6268 -0.9958
 9426TIP3    H249770   4.669   1.899   1.925 -0.3920  0.4472  2.2916
 9427TIP3   OH249771   3.345   5.516   3.491  0.1176 -0.2848  0.1268
 9427TIP3    H149772   3.261   5.513   3.538  0.6469 -0.6877  1.0790
 9427TIP3    H249773   3.321   5.527   3.399 -0.9960 -0.9726  0.3204
 9428TIP3   OH249774   2.196   4.867  11.544 -0.0728  0.0429 -0.2292
 9428TIP3    H149775   2.270   4.927  11.545  0.0947 -0.1188  1.6382
 9428TIP3    H249776   2.176   4.852  11.637 -0.3173 -2.5071 -0.6092
 9429TIP3   OH249777   6.282   0.141  13.578  0.1288 -0.6102  0.1361
 9429TIP3    H149778   6.377   0.146  13.568  0.0214  1.6094 -0.2493
 9429TIP3    H249779   6.252   0.232  13.575 -2.2717 -1.3325 -2.1426
 9430TIP3   OH249780   6.605   3.915  13.723 -0.0853  0.0185 -0.2539
 9430TIP3    H149781   6.671   3.952  13.781 -1.8876  0.7706  1.4325
 9430TIP3    H249782   6.649   3.843  13.678  1.5358 -0.2457  1.6456
 9431TIP3   OH249783   4.934   0.193  11.480  0.1152  0.3824  0.2439
 9431TIP3    H149784   4.923   0.122  11.416 -0.5307 -0.7853  1.5805
 9431TIP3    H249785   4.846   0.212  11.511  0.5854 -1.4933  3.2160
 9432TIP3   OH249786   3.306   2.400  15.232 -0.1515  0.4343  0.0784
 9432TIP3    H149787   3.223   2.430  15.269 -1.2943 -1.7903 -0.5376
 9432TIP3    H249788   3.281   2.356  15.151  1.4167 -1.7640  0.7224
 9433TIP3   OH249789   1.970   2.260   4.793  0.5918  0.5365 -0.2851
 9433TIP3    H149790   1.958   2.268   4.887  0.2209 -0.3209 -0.2463
 9433TIP3    H249791   1.971   2.350   4.761  1.9726  0.8891  0.6752
 9434TIP3   OH249792   1.721   1.237   5.183 -0.2545 -0.2654 -0.2922
 9434TIP3    H149793   1.677   1.154   5.200  0.5460 -0.7816 -0.6551
 9434TIP3    H249794   1.677   1.300   5.240 -1.2810 -0.8067 -0.4700
 9435TIP3   OH249795   2.464   1.461   0.077  0.2755  0.2569  0.0451
 9435TIP3    H149796   2.372   1.466   0.102  0.0118  0.2203 -0.9037
 9435TIP3    H249797   2.486   1.369   0.085 -0.8650 -0.4578 -3.4210
 9436TIP3   OH249798   3.417   1.715   4.955 -0.2602  0.4313  0.0487
 9436TIP3    H149799   3.334   1.704   4.909  0.2118  1.5001 -1.1276
 9436TIP3    H249800   3.454   1.795   4.918  0.3124  1.1546  2.0900
 9437TIP3   OH249801   0.610   6.222  13.674  0.2353  0.3617  0.2246
 9437TIP3    H149802   0.589   6.315  13.684  0.4175  0.1260  4.0173
 9437TIP3    H249803   0.706   6.219  13.670  0.2835  0.2961  1.2402
 9438TIP3   OH249804   0.969   3.849  14.636 -0.1248 -0.4288  0.7132
 9438TIP3    H149805   0.983   3.789  14.710  1.5347 -0.8512  0.0931
 9438TIP3    H249806   1.024   3.925  14.656  0.8175 -0.8075 -0.3536
 9439TIP3   OH249807   4.993   5.702   1.327 -0.0716 -0.1941 -0.5874
 9439TIP3    H149808   4.922   5.673   1.383  0.2802 -1.5983 -0.8201
 9439TIP3    H249809   5.001   5.796   1.343 -0.0540 -0.5275  1.6211
 9440TIP3   OH249810   1.018   4.253  16.229  0.1965  0.0446  0.1592
 9440TIP3    H149811   1.085   4.285  16.169  0.7108 -0.7701  0.2866
 9440TIP3    H249812   1.066   4.212  16.300 -0.3798  1.5549  1.5010
 9441TIP3   OH249813   1.305   6.682   5.961  0.5760  0.1273  0.4320
 9441TIP3    H149814   1.385   6.629   5.970  0.0505 -0.5868  0.9895
 9441TIP3    H249815   1.282   6.675   5.869  1.0300  0.1597  0.3121
 9442TIP3   OH249816   4.656   2.792   5.687 -0.1512  0.6148  0.4490
 9442TIP3    H149817   4.570   2.787   5.729 -0.2543 -0.5786  0.1349
 9442TIP3    H249818   4.717   2.811   5.758 -0.3634 -1.0755  1.1321
 9443TIP3   OH249819   5.279   5.249  14.226 -0.2481 -0.2291 -0.9241
 9443TIP3    H149820   5.266   5.196  14.147  1.0422 -1.3332 -0.4437
 9443TIP3    H249821   5.341   5.316  14.200  0.7992 -1.0770 -0.6748
 9444TIP3   OH249822   1.346   6.335   3.711 -0.2391 -0.3155 -0.0534
 9444TIP3    H149823   1.361   6.349   3.618  0.8063  1.2397  0.3118
 9444TIP3    H249824   1.428   6.298   3.744 -0.2526  0.0796  0.4373
 9445TIP3   OH249825   5.060   5.844  12.919  0.0804 -0.1447 -0.0433
 9445TIP3    H149826   5.044   5.769  12.975  0.1084 -0.4308 -0.4131
 9445TIP3    H249827   4.992   5.906  12.942  0.1465 -0.2211  0.3684
 9446TIP3   OH249828   4.163   5.451  16.389 -0.2220  0.0759 -0.0025
 9446TIP3    H149829   4.165   5.357  16.371  1.1524  0.2409 -0.8433
 9446TIP3    H249830   4.082   5.482  16.348 -1.2953 -0.9062  1.3008
 9447TIP3   OH249831   2.912   0.344   2.667 -0.3884 -0.4161 -0.4928
 9447TIP3    H149832   2.842   0.307   2.614 -0.6642  0.2844 -0.6341
 9447TIP3    H249833   2.906   0.439   2.651  0.1937 -0.2965 -0.0257
 9448TIP3   OH249834   2.214   1.174  15.183  0.1299 -0.4563  0.4117
 9448TIP3    H149835   2.120   1.155  15.172  0.0779  0.1936 -0.3528
 9448TIP3    H249836   2.237   1.226  15.106  0.4946  1.7063  1.9127
 9449TIP3   OH249837   0.027   5.980  15.705 -0.5481 -0.0706  0.3517
 9449TIP3    H149838   0.013   5.888  15.725  0.6863 -0.3277  0.1529
 9449TIP3    H249839   0.105   6.004  15.756  0.7089  0.1303 -1.5701
 9450TIP3   OH249840   6.670   5.031   4.429 -0.5805 -0.3266  0.0574
 9450TIP3    H149841   6.692   4.964   4.493 -1.9545 -0.3759  0.5225
 9450TIP3    H249842   6.582   5.060   4.454  0.3495  2.4313  0.5243
 9451TIP3   OH249843   5.975   2.532  13.649 -0.0156 -1.0210 -0.1043
 9451TIP3    H149844   6.063   2.497  13.662 -0.0443 -0.3372  2.5175
 9451TIP3    H249845   5.931   2.466  13.595  1.7368 -1.9244 -0.5019
 9452TIP3   OH249846   0.515   4.037   0.838  0.1123  0.4012 -0.6949
 9452TIP3    H149847   0.467   4.010   0.917  1.0596  1.7580  0.3942
 9452TIP3    H249848   0.527   3.955   0.789 -0.4237 -0.5025  0.6004
 9453TIP3   OH249849   0.180   3.437   5.676 -0.2635 -0.4148  0.2717
 9453TIP3    H149850   0.199   3.407   5.765 -0.1827  0.8229  0.6955
 9453TIP3    H249851   0.085   3.432   5.668 -0.2645 -0.5906  0.4018
 9454TIP3   OH249852   1.168   3.434  16.334 -0.5880  0.6188 -0.1870
 9454TIP3    H149853   1.175   3.529  16.323 -1.2881  0.5456 -1.4329
 9454TIP3    H249854   1.175   3.420  16.429 -3.6163  2.2379  0.3969
 9455TIP3   OH249855   3.787   3.290   0.519 -0.7101  0.3977 -0.0427
 9455TIP3    H149856   3.727   3.226   0.557 -0.8270  0.1613 -0.6043
 9455TIP3    H249857   3.735   3.336   0.453 -0.6699  1.1920  0.4721
 9456TIP3   OH249858   1.648   2.314   1.809  0.9095  0.0073 -0.6890
 9456TIP3    H149859   1.645   2.227   1.770  1.0006 -0.0884 -0.4796
 9456TIP3    H249860   1.581   2.364   1.762 -1.7637 -1.1473  1.6300
 9457TIP3   OH249861   0.245   4.237  12.637 -0.2587 -0.1995 -0.1575
 9457TIP3    H149862   0.169   4.199  12.680  1.1327 -1.1060  1.6850
 9457TIP3    H249863   0.313   4.169  12.644  0.4319  0.1098 -2.7638
 9458TIP3   OH249864   2.217   0.503  15.995 -0.3116  0.1001  0.4336
 9458TIP3    H149865   2.244   0.447  16.067  1.0103 -0.2656 -0.3040
 9458TIP3    H249866   2.147   0.558  16.031  0.7042  0.3432  2.1505
 9459TIP3   OH249867   4.734   4.907   2.931  0.0325  0.3788  0.4486
 9459TIP3    H149868   4.666   4.875   2.872 -0.5280  0.0887  1.2270
 9459TIP3    H249869   4.812   4.859   2.906 -0.7770 -1.6869  1.5634
 9460TIP3   OH249870   6.019   4.955  15.415  0.3267  0.2749  0.2878
 9460TIP3    H149871   5.957   5.007  15.466  2.0119  0.3668  2.3792
 9460TIP3    H249872   6.096   5.012  15.404  0.6190 -0.3248 -1.0165
 9461TIP3   OH249873   5.602   3.294   2.312 -0.2547 -0.3633 -0.8886
 9461TIP3    H149874   5.521   3.252   2.340 -0.4646 -0.0883 -1.0753
 9461TIP3    H249875   5.669   3.226   2.322  0.0834  0.3151  2.2442
 9462TIP3   OH249876   4.283   2.865   1.860  0.5201 -0.3904 -0.1390
 9462TIP3    H149877   4.288   2.807   1.936  0.5221  0.4558  0.5201
 9462TIP3    H249878   4.189   2.871   1.841  0.5883 -1.6172 -1.0285
 9463TIP3   OH249879   1.488   0.658  11.409 -0.1871 -0.0669 -0.0231
 9463TIP3    H149880   1.557   0.591  11.401  0.5862  0.5040  1.5371
 9463TIP3    H249881   1.533   0.740  11.390 -0.2134  0.4043  1.7928
 9464TIP3   OH249882   1.790   0.561   0.478 -0.4245  0.7943  0.3567
 9464TIP3    H149883   1.867   0.617   0.485  0.9718 -1.1033  0.8820
 9464TIP3    H249884   1.761   0.572   0.388  0.8521  1.0339 -0.0406
 9465TIP3   OH249885   0.601   0.248   1.483 -0.1839  0.4727 -0.0255
 9465TIP3    H149886   0.570   0.338   1.472 -0.3557  0.2976 -1.0899
 9465TIP3    H249887   0.669   0.254   1.550 -0.4357  1.3326  0.1716
 9466TIP3   OH249888   4.042   5.364  12.594 -0.2147  0.0397 -0.0488
 9466TIP3    H149889   4.021   5.273  12.571  2.4072 -0.5446 -0.4691
 9466TIP3    H249890   4.108   5.356  12.663 -0.8272  1.6908  0.7809
 9467TIP3   OH249891   3.800   2.599   4.914  0.1391  0.1271 -0.1136
 9467TIP3    H149892   3.734   2.662   4.885 -2.0145 -2.9632 -2.6276
 9467TIP3    H249893   3.755   2.543   4.977  1.2963 -0.3035  0.3701
 9468TIP3   OH249894   4.899   1.537   6.127  0.0524 -0.2565  0.4440
 9468TIP3    H149895   4.851   1.455   6.134 -0.4508  0.1050  1.3790
 9468TIP3    H249896   4.852   1.599   6.183  0.2135  0.7834 -0.5183
 9469TIP3   OH249897   1.118   2.002  14.840 -0.4974 -0.5664 -0.4153
 9469TIP3    H149898   1.092   1.986  14.931  0.0759  0.3366 -0.0814
 9469TIP3    H249899   1.119   2.097  14.832  0.3390 -0.6261 -1.1191
 9470TIP3   OH249900   3.780   4.760  15.419  0.1272 -0.0511  0.1658
 9470TIP3    H149901   3.778   4.846  15.379 -1.1751 -0.6324 -1.0860
 9470TIP3    H249902   3.868   4.726  15.401 -0.0234  0.2097 -1.1200
 9471TIP3   OH249903   1.489   2.953   5.220  0.0167 -0.0978 -0.0738
 9471TIP3    H149904   1.437   3.032   5.207  1.1091  0.6157 -0.3244
 9471TIP3    H249905   1.463   2.895   5.149 -1.3917 -0.3146  0.5884
 9472TIP3   OH249906   3.903   2.302   6.214 -0.0485  0.4155 -0.4234
 9472TIP3    H149907   3.993   2.312   6.243 -0.1614  0.3138 -0.0358
 9472TIP3    H249908   3.899   2.351   6.132  0.2738  0.6969 -0.2744
 9473TIP3   OH249909   4.928   2.679  14.308  0.2034  0.7977 -0.1431
 9473TIP3    H149910   4.993   2.700  14.240  0.9433  0.0565  0.3166
 9473TIP3    H249911   4.898   2.591  14.285 -0.8098  1.2173 -0.4705
 9474TIP3   OH249912   3.397   0.417  15.657  0.2446 -0.2249 -0.5002
 9474TIP3    H149913   3.416   0.334  15.700 -0.3016  0.3842  0.9997
 9474TIP3    H249914   3.312   0.403  15.614 -0.3218 -0.1821  0.5598
 9475TIP3   OH249915   4.609   3.657   1.723 -0.5536  0.3898  0.6973
 9475TIP3    H149916   4.633   3.736   1.772 -0.7367  1.0808 -0.2857
 9475TIP3    H249917   4.566   3.690   1.644 -0.8176 -0.7083  0.3603
 9476TIP3   OH249918   4.864   6.163  14.938  0.4640 -0.0944  0.2427
 9476TIP3    H149919   4.933   6.199  14.883  0.3329  2.9031  1.8409
 9476TIP3    H249920   4.783   6.198  14.902 -0.0333 -1.4607 -0.0453
 9477TIP3   OH249921   1.643   4.701  11.967  0.3459 -0.3788  0.7775
 9477TIP3    H149922   1.548   4.706  11.983  0.3367 -1.1800  1.0397
 9477TIP3    H249923   1.665   4.610  11.986  0.7564 -0.8348 -1.6032
 9478TIP3   OH249924   4.045   3.825  15.444 -0.4518  0.0681 -0.6817
 9478TIP3    H149925   4.051   3.920  15.446 -0.1369  0.0315  0.3841
 9478TIP3    H249926   4.011   3.801  15.530  0.1238 -0.8197 -0.6909
 9479TIP3   OH249927   1.353   2.267  13.940  0.0529 -0.9494  0.3625
 9479TIP3    H149928   1.400   2.340  13.981  1.7080 -2.7306  1.8368
 9479TIP3    H249929   1.269   2.264  13.986 -0.8836  1.1659 -1.0605
 9480TIP3   OH249930   1.406   4.856   2.656 -0.2845  0.2189  0.0738
 9480TIP3    H149931   1.376   4.947   2.648  1.2446  0.7505  0.0978
 9480TIP3    H249932   1.377   4.830   2.744 -2.8248 -0.1730 -0.7937
 9481TIP3   OH249933   6.676   4.982  15.916  0.2109 -0.0834 -0.2470
 9481TIP3    H149934   6.762   4.981  15.959  0.5102 -1.0098 -0.8386
 9481TIP3    H249935   6.616   5.017  15.982  0.7233 -1.0777  0.7835
 9482TIP3   OH249936   2.225   4.079  16.717 -0.4451 -0.3090  0.3721
 9482TIP3    H149937   2.281   4.128  16.776 -1.0925  0.7940  0.0955
 9482TIP3    H249938   2.279   4.066  16.638 -0.1236 -0.4272  0.6098
 9483TIP3   OH249939   5.565   6.467   0.517  0.1773 -0.2640 -0.1385
 9483TIP3    H149940   5.607   6.538   0.565 -0.6393  0.1188  0.0356
 9483TIP3    H249941   5.535   6.406   0.585 -0.5859  0.0557 -0.1845
 9484TIP3   OH249942   5.755   1.819   1.332  0.6211  0.0283  0.0909
 9484TIP3    H149943   5.736   1.911   1.347  1.9026  0.4255 -0.5546
 9484TIP3    H249944   5.813   1.795   1.405  1.3008  0.0972 -0.4101
 9485TIP3   OH249945   2.059   5.681   2.561  0.0578 -0.9697 -0.6840
 9485TIP3    H149946   2.059   5.588   2.585  1.0990 -0.5809  1.0359
 9485TIP3    H249947   2.109   5.723   2.631 -1.1281  1.0175 -0.9563
 9486TIP3   OH249948   2.642   5.765  14.264 -0.3782 -0.0571 -0.5494
 9486TIP3    H149949   2.712   5.827  14.283 -0.3997 -0.2120  0.0449
 9486TIP3    H249950   2.565   5.801  14.308 -0.6255 -0.0117 -1.0011
 9487TIP3   OH249951   5.116   0.350   5.249  0.4113 -0.1085 -0.0577
 9487TIP3    H149952   5.124   0.420   5.185  2.9973  0.8213  1.1403
 9487TIP3    H249953   5.175   0.281   5.217 -3.2978 -2.6873 -2.1200
 9488TIP3   OH249954   5.267   6.371   0.502  0.0846  0.0378 -0.1203
 9488TIP3    H149955   5.263   6.361   0.597 -0.4034  1.1646 -0.0122
 9488TIP3    H249956   5.292   6.462   0.488 -1.0206  0.2162 -1.0805
 9489TIP3   OH249957   0.983   3.305  11.520  0.0486 -0.5100  0.1290
 9489TIP3    H149958   0.918   3.282  11.454 -1.0852  1.8362  0.3233
 9489TIP3    H249959   0.937   3.362  11.581  2.0608  0.6109  0.7259
 9490TIP3   OH249960   3.492   5.725   4.065  0.0129 -0.3331 -0.2149
 9490TIP3    H149961   3.537   5.641   4.056 -1.1078 -0.9111 -0.5096
 9490TIP3    H249962   3.424   5.724   3.998  0.2850  1.0259 -0.5522
 9491TIP3   OH249963   4.613   1.519  13.168  0.1517 -0.1440 -0.2837
 9491TIP3    H149964   4.595   1.474  13.086  0.7422  0.1445 -0.5785
 9491TIP3    H249965   4.650   1.451  13.225 -0.8268 -0.4881 -0.0352
 9492TIP3   OH249966   2.457   2.248  12.047 -0.3287 -0.1715  0.6065
 9492TIP3    H149967   2.365   2.273  12.033  0.5142  2.9378 -0.1392
 9492TIP3    H249968   2.492   2.236  11.959  0.4384  0.6804  0.7828
 9493TIP3   OH249969   4.503   3.606  11.210  0.4080 -0.5664 -0.1524
 9493TIP3    H149970   4.415   3.641  11.223  1.4563  1.6244  1.8230
 9493TIP3    H249971   4.541   3.662  11.142 -0.1220 -2.4737 -2.1403
 9494TIP3   OH249972   2.186   4.184  11.573 -0.0856 -0.2422 -0.2688
 9494TIP3    H149973   2.093   4.185  11.595 -0.1384  1.7484 -0.4303
 9494TIP3    H249974   2.188   4.179  11.478  0.0245 -1.5467 -0.2187
 9495TIP3   OH249975   4.254   6.735   4.091  0.0363 -0.5887 -0.1460
 9495TIP3    H149976   4.214   6.796   4.029  1.1408  0.9313  0.5837
 9495TIP3    H249977   4.180   6.689   4.131 -1.0164  1.9352  0.9589
 9496TIP3   OH249978   4.998   6.737  10.306 -0.1546 -0.0730 -0.4103
 9496TIP3    H149979   5.090   6.757  10.286  0.0320 -0.7421 -0.2435
 9496TIP3    H249980   4.986   6.772  10.395 -0.3522  0.9010 -0.8039
 9497TIP3   OH249981   4.545   5.487  11.769 -0.4399  0.5470  0.5136
 9497TIP3    H149982   4.604   5.413  11.777 -1.2837 -0.2331 -0.2249
 9497TIP3    H249983   4.480   5.474  11.838  0.1680  1.3404  1.2514
 9498TIP3   OH249984   4.714   2.290  16.434  0.3512 -0.5715  0.6981
 9498TIP3    H149985   4.781   2.332  16.487  0.5832  1.2909 -0.9468
 9498TIP3    H249986   4.632   2.333  16.460  0.7366  2.0536 -1.8329
 9499TIP3   OH249987   0.508   0.578  15.965  0.4810 -0.2039  0.0883
 9499TIP3    H149988   0.454   0.648  16.002 -0.9004 -1.0522 -0.2515
 9499TIP3    H249989   0.556   0.620  15.894  1.1149  0.8179  1.0923
 9500TIP3   OH249990   0.308   2.108  12.733  0.2400 -0.3699  0.0332
 9500TIP3    H149991   0.284   2.045  12.665  1.4400 -0.4145 -0.3717
 9500TIP3    H249992   0.388   2.148  12.701 -0.7831  1.8051 -0.0075
 9501TIP3   OH249993   6.675   5.059   2.126 -0.4834  0.4911 -0.2099
 9501TIP3    H149994   6.651   5.140   2.171  1.5905  0.6043  0.8125
 9501TIP3    H249995   6.771   5.060   2.123 -0.4232 -1.6168 -0.7554
 9502TIP3   OH249996   5.520   3.241   3.184 -0.1675  0.0527  0.2211
 9502TIP3    H149997   5.526   3.294   3.105  0.8779  0.1094  0.3174
 9502TIP3    H249998   5.460   3.170   3.162 -0.9468  0.8254 -0.1696
 9503TIP3   OH249999   0.938   5.358  13.500 -0.1035  0.8863  0.2347
 9503TIP3    H150000   0.958   5.286  13.560  0.0651  2.5005  2.2236
 9503TIP3    H250001   0.941   5.436  13.555 -1.1219  2.3410 -1.6672
 9504TIP3   OH250002   4.311   5.149   4.768  0.0194  0.4871  0.5030
 9504TIP3    H150003   4.281   5.171   4.856 -2.5763  0.0169 -0.1745
 9504TIP3    H250004   4.252   5.079   4.740  2.0011 -0.6931 -0.9315
 9505TIP3   OH250005   6.599   0.830  15.828 -0.3151  0.0295 -0.3338
 9505TIP3    H150006   6.596   0.891  15.902 -0.2049 -0.6024  0.2010
 9505TIP3    H250007   6.676   0.776  15.844 -0.3744 -0.2113 -0.8341
 9506TIP3   OH250008   0.375   4.598  13.658  0.4837 -0.1664 -0.1455
 9506TIP3    H150009   0.376   4.673  13.717  0.6599  0.3849 -0.8425
 9506TIP3    H250010   0.463   4.596  13.619  0.7867 -1.2783  0.5295
 9507TIP3   OH250011   4.707   2.803  16.130  0.8247 -0.2202  0.1789
 9507TIP3    H150012   4.786   2.816  16.182  0.9222 -0.4505  0.0909
 9507TIP3    H250013   4.635   2.813  16.192  0.9341 -0.3223  0.3247
 9508TIP3   OH250014   5.781   1.682   5.832  0.0885 -0.5617  0.0650
 9508TIP3    H150015   5.700   1.688   5.781  0.7319 -1.8015 -1.1826
 9508TIP3    H250016   5.753   1.682   5.923 -1.2652 -0.2724 -0.3419
 9509TIP3   OH250017   3.993   6.296  16.868  0.3526  0.5668 -0.3361
 9509TIP3    H150018   3.941   6.242  16.808  1.5852 -0.7350 -0.2809
 9509TIP3    H250019   4.061   6.335  16.812 -1.4959  3.5331 -0.7207
 9510TIP3   OH250020   6.274   4.883   4.808  0.4244  0.4409  0.0500
 9510TIP3    H150021   6.203   4.899   4.746 -0.8067 -1.5115  0.8340
 9510TIP3    H250022   6.231   4.882   4.894  1.1871 -1.6720  0.4733
 9511TIP3   OH250023   3.978   3.941  16.871  0.3041  0.5273  0.2149
 9511TIP3    H150024   4.012   3.909  16.787 -1.7388 -0.5899 -0.2516
 9511TIP3    H250025   4.056   3.969  16.919  1.5582  1.0663 -1.9784
 9512TIP3   OH250026   5.627   1.048   3.123  0.2336  0.1295 -0.0083
 9512TIP3    H150027   5.672   0.991   3.186  0.2781  0.9101  0.6745
 9512TIP3    H250028   5.601   0.989   3.053  0.3399 -0.7287  0.6549
 9513TIP3   OH250029   5.518   0.115  14.453  0.1419  0.3789  0.5386
 9513TIP3    H150030   5.487   0.086  14.539  0.5710 -2.9130 -0.2846
 9513TIP3    H250031   5.470   0.062  14.390 -1.8463  4.2169 -1.5647
 9514TIP3   OH250032   6.299   6.564   2.866  0.2234  0.1536 -0.0140
 9514TIP3    H150033   6.248   6.640   2.894  1.8119  1.1507  0.2918
 9514TIP3    H250034   6.265   6.492   2.918 -0.9415  0.7690  0.1032
 9515TIP3   OH250035   1.923   5.796  16.039 -0.2710 -0.0190 -0.3559
 9515TIP3    H150036   2.010   5.794  16.077 -0.7228  0.2544  0.7231
 9515TIP3    H250037   1.929   5.739  15.962  0.4057 -1.4039  0.6695
 9516TIP3   OH250038   0.850   3.104   0.483 -0.1409  0.1425  0.1012
 9516TIP3    H150039   0.847   3.106   0.387  0.4002 -0.8581  0.0454
 9516TIP3    H250040   0.847   3.195   0.509 -2.0103  0.4085 -0.8055
 9517TIP3   OH250041   0.192   0.967  15.335  0.1084 -0.1999 -0.4926
 9517TIP3    H150042   0.224   0.877  15.331  0.7938  0.0662 -2.9515
 9517TIP3    H250043   0.234   1.004  15.412  1.7914 -1.3069 -0.8231
 9518TIP3   OH250044   3.067   1.274  15.347  0.6232  0.4053 -0.1220
 9518TIP3    H150045   3.130   1.269  15.276 -0.6254  1.5114 -1.3902
 9518TIP3    H250046   3.070   1.189  15.390  1.6170 -0.1757 -1.3203
 9519TIP3   OH250047   2.685   3.418  10.634 -0.1702 -0.0005  0.3299
 9519TIP3    H150048   2.779   3.425  10.649 -0.0472 -0.0187 -0.3883
 9519TIP3    H250049   2.666   3.325  10.648 -0.2446  0.1590  1.3353
 9520TIP3   OH250050   0.173   0.049  11.695  0.5769  0.7682  0.2586
 9520TIP3    H150051   0.220   0.038  11.613  0.8544  2.3942  0.1556
 9520TIP3    H250052   0.086   0.012  11.679  1.9065 -2.8829  0.6602
 9521TIP3   OH250053   5.097   6.083   3.577 -0.0894  0.2025  0.1844
 9521TIP3    H150054   5.061   6.144   3.641 -0.6342 -0.3169  0.3846
 9521TIP3    H250055   5.097   6.131   3.494 -0.3550  0.5252  0.3712
 9522TIP3   OH250056   0.016   5.978   5.049  0.0661 -0.3900 -0.2931
 9522TIP3    H150057  -0.063   5.959   4.999 -1.9143  1.4031  1.8874
 9522TIP3    H250058  -0.015   5.993   5.138  3.0548 -0.7610  0.9531
 9523TIP3   OH250059   3.455   6.146   4.299  0.0240 -0.0900 -0.0054
 9523TIP3    H150060   3.361   6.132   4.307 -0.1812  0.3461 -1.4350
 9523TIP3    H250061   3.493   6.097   4.372 -1.3931  0.9555  1.4919
 9524TIP3   OH250062   5.188   0.055   5.523  0.0359 -0.3650 -0.3529
 9524TIP3    H150063   5.216   0.070   5.432  5.2816 -2.8924  0.4452
 9524TIP3    H250064   5.198  -0.039   5.536  0.0788 -0.0259  2.9603
 9525TIP3   OH250065   6.598   5.049   5.645  0.2630 -0.0441 -0.2993
 9525TIP3    H150066   6.636   5.132   5.676 -0.3035 -0.2885  1.1422
 9525TIP3    H250067   6.671   4.987   5.649  1.2851  0.7943 -3.4864
 9526TIP3   OH250068   6.100   0.684  12.002  0.0569 -0.1197  0.2488
 9526TIP3    H150069   6.033   0.675  11.935  1.1683 -0.6947 -0.8183
 9526TIP3    H250070   6.052   0.712  12.080 -1.7112 -2.3755  0.0775
 9527TIP3   OH250071   3.377   2.268   2.526  0.5596 -0.6554 -0.1297
 9527TIP3    H150072   3.338   2.247   2.441  0.2367  0.3972 -0.2627
 9527TIP3    H250073   3.302   2.278   2.585  0.7502 -0.7994  0.1377
 9528TIP3   OH250074   1.876   3.074  13.142  0.0490  0.5614  0.1609
 9528TIP3    H150075   1.840   3.148  13.191 -1.6938 -2.0607  3.2615
 9528TIP3    H250076   1.959   3.055  13.186 -1.3760 -1.6116  2.1932
 9529TIP3   OH250077   3.020   5.602  14.338 -0.4758  0.3317 -0.1472
 9529TIP3    H150078   3.021   5.535  14.406  3.7779  0.2915  0.0004
 9529TIP3    H250079   3.098   5.585  14.285 -1.0193  3.1896 -2.1406
 9530TIP3   OH250080   2.513   0.633  12.431 -0.4316 -0.0698  0.2544
 9530TIP3    H150081   2.509   0.537  12.430  0.9882 -0.1501  0.4651
 9530TIP3    H250082   2.606   0.653  12.429 -0.7064  1.3132  0.4564
 9531TIP3   OH250083   5.214   3.690  13.467  0.0221  0.5510 -0.1058
 9531TIP3    H150084   5.243   3.763  13.521  0.5760 -0.4943  1.0842
 9531TIP3    H250085   5.150   3.728  13.407  0.7541  2.1096  0.0549
 9532TIP3   OH250086   5.473   0.204   7.031  0.3355 -0.2954  0.0735
 9532TIP3    H150087   5.504   0.283   6.988  1.2489 -0.1373  0.9745
 9532TIP3    H250088   5.434   0.152   6.961  0.2568  0.6886 -0.6321
 9533TIP3   OH250089   3.048   0.744   1.419 -0.0748 -0.3610 -0.4653
 9533TIP3    H150090   3.103   0.814   1.384  1.4878 -0.6452  1.2798
 9533TIP3    H250091   3.108   0.686   1.465 -1.5166 -2.1150 -0.6202
 9534TIP3   OH250092   3.836   3.631  11.897  0.1073  0.0152  0.2458
 9534TIP3    H150093   3.918   3.586  11.915 -0.1311 -1.0127 -1.1034
 9534TIP3    H250094   3.849   3.670  11.811 -0.2460  1.2573  0.7339
 9535TIP3   OH250095   1.121   1.758  13.001 -0.1489 -0.4329  0.3077
 9535TIP3    H150096   1.068   1.680  12.989 -2.6861  0.9271  1.8563
 9535TIP3    H250097   1.082   1.823  12.942  0.7791  0.1937  0.3524
 9536TIP3   OH250098   0.351   3.555  15.189 -0.1854 -0.9188  0.0358
 9536TIP3    H150099   0.395   3.547  15.274 -0.5620 -0.8861  0.2343
 9536TIP3    H250100   0.259   3.539  15.208 -0.6991  1.6985  0.1007
 9537TIP3   OH250101   6.179   6.823  11.584  0.0971 -0.6077 -0.2576
 9537TIP3    H150102   6.185   6.831  11.680  0.0403 -0.9053 -0.2282
 9537TIP3    H250103   6.124   6.746  11.571 -1.6268  0.6059 -0.5149
 9538TIP3   OH250104   2.464   4.586   2.571  0.0693  0.0394 -0.2399
 9538TIP3    H150105   2.415   4.504   2.583  1.1351 -0.5815  0.0262
 9538TIP3    H250106   2.414   4.650   2.621 -1.4525 -0.1561 -1.4469
 9539TIP3   OH250107   0.844   4.607   5.875  0.1971  0.0728  0.3854
 9539TIP3    H150108   0.858   4.610   5.780  1.2555 -0.5402  0.5084
 9539TIP3    H250109   0.906   4.541   5.906  0.4974  0.9011  1.6162
 9540TIP3   OH250110   6.353   5.749   5.916  0.7109 -0.1190 -0.3931
 9540TIP3    H150111   6.348   5.665   5.960  0.1057  0.1381  0.0392
 9540TIP3    H250112   6.300   5.738   5.837  0.1986  0.0083 -0.0736
 9541TIP3   OH250113   3.175   4.341   3.861 -0.1129 -0.0094 -0.0545
 9541TIP3    H150114   3.116   4.377   3.795 -1.2150 -1.4802  0.0838
 9541TIP3    H250115   3.214   4.418   3.903 -1.1703  0.9730 -0.8191
 9542TIP3   OH250116   4.726   5.570   5.290 -0.2129  0.4513 -0.2721
 9542TIP3    H150117   4.688   5.519   5.220 -0.5980  0.1951  0.1201
 9542TIP3    H250118   4.679   5.654   5.288  1.1821  1.2646 -1.6443
 9543TIP3   OH250119   5.597   6.468   4.245 -0.7912  0.5990  0.0815
 9543TIP3    H150120   5.674   6.524   4.255 -0.2471 -0.3009  1.2911
 9543TIP3    H250121   5.603   6.406   4.318 -0.7736 -1.7272 -1.7749
 9544TIP3   OH250122   3.780   6.799   5.905  0.0575 -0.1303 -0.8019
 9544TIP3    H150123   3.773   6.814   5.999  0.2508 -0.4353 -0.7389
 9544TIP3    H250124   3.872   6.779   5.890  0.3247  1.2874 -1.2624
 9545TIP3   OH250125   1.814   4.413  13.796 -0.1602 -0.0047 -0.0832
 9545TIP3    H150126   1.739   4.364  13.761  0.5431  0.1160 -1.8114
 9545TIP3    H250127   1.889   4.356  13.782  0.5781  1.2429 -1.5453
 9546TIP3   OH250128   4.395   4.580   0.864  0.1910  0.4876 -0.5551
 9546TIP3    H150129   4.413   4.630   0.784  1.2752 -0.4018 -0.8893
 9546TIP3    H250130   4.400   4.488   0.837  0.1943  0.1752  0.4538
 9547TIP3   OH250131   0.080   1.958   1.354  0.4266  0.5098 -0.2822
 9547TIP3    H150132   0.170   1.970   1.384  0.7088 -0.0389 -0.8870
 9547TIP3    H250133   0.039   1.905   1.422  0.9202 -0.2950 -0.5920
 9548TIP3   OH250134   5.763   5.365  15.519 -0.1400  0.2826  0.0457
 9548TIP3    H150135   5.830   5.345  15.585 -0.3080 -2.4274 -0.5033
 9548TIP3    H250136   5.698   5.418  15.567  0.1055 -0.9773  1.8833
 9549TIP3   OH250137   5.653   1.981  16.296 -0.9498 -0.2014 -0.3351
 9549TIP3    H150138   5.642   1.964  16.202 -1.5877 -1.2424 -0.0913
 9549TIP3    H250139   5.617   1.903  16.338 -1.8033  0.7939  0.8148
 9550TIP3   OH250140   2.279   1.932   1.097 -0.0037  0.4419  0.9386
 9550TIP3    H150141   2.350   1.886   1.053 -2.0766 -0.0057 -2.2975
 9550TIP3    H250142   2.322   2.005   1.142  2.5338 -0.0040 -0.5395
 9551TIP3   OH250143   5.800   1.927   5.466  0.2135 -0.6413 -0.0747
 9551TIP3    H150144   5.895   1.932   5.471  0.2725 -1.3314 -0.3208
 9551TIP3    H250145   5.783   1.837   5.437 -0.5136 -0.5447  0.0424
 9552TIP3   OH250146   0.856   0.066   0.274 -0.8257  0.1648 -0.1300
 9552TIP3    H150147   0.824   0.124   0.205  0.0324  1.5802  0.6158
 9552TIP3    H250148   0.937   0.106   0.305 -1.5483  0.0023  2.2013
 9553TIP3   OH250149   1.899   4.920  13.566 -0.5247  0.0551  0.1741
 9553TIP3    H150150   1.899   4.825  13.577 -1.2296  0.0898  0.4928
 9553TIP3    H250151   1.827   4.938  13.506 -0.1446  0.3557 -0.1972
 9554TIP3   OH250152   0.278   6.637  16.520  0.2833  0.5748 -0.0502
 9554TIP3    H150153   0.323   6.686  16.451  2.0392  0.7783  1.1485
 9554TIP3    H250154   0.226   6.702  16.566  1.3080  1.0193  0.5131
 9555TIP3   OH250155   6.520   5.604   2.196  0.6818 -0.5528  0.0018
 9555TIP3    H150156   6.459   5.535   2.168 -2.2991  2.1568 -0.7876
 9555TIP3    H250157   6.481   5.639   2.276  1.8195  0.5776  0.0855
 9556TIP3   OH250158   3.775   0.148   1.698  0.3909 -0.0568  0.2807
 9556TIP3    H150159   3.775   0.098   1.616 -0.4773 -0.3318  0.4400
 9556TIP3    H250160   3.854   0.120   1.743 -0.8434 -2.5384  1.0962
 9557TIP3   OH250161   4.472   4.748  15.858 -0.3177  0.0305 -0.1422
 9557TIP3    H150162   4.546   4.806  15.876 -0.4697  1.1046 -2.6029
 9557TIP3    H250163   4.416   4.756  15.935 -0.0785  2.8355 -0.1454
 9558TIP3   OH250164   6.535   1.457   3.195  0.3595  0.3542 -0.5499
 9558TIP3    H150165   6.573   1.532   3.151  0.2041  1.2710  0.8163
 9558TIP3    H250166   6.444   1.481   3.211  0.0629 -0.4920 -0.8973
 9559TIP3   OH250167   1.880   6.304   3.443 -0.0919 -0.6480 -0.3191
 9559TIP3    H150168   1.898   6.398   3.445 -2.9320 -0.0256  0.3597
 9559TIP3    H250169   1.933   6.272   3.370 -1.2627  2.0452 -2.5638
 9560TIP3   OH250170   1.709   2.200  12.471 -0.1912 -0.2100 -0.2068
 9560TIP3    H150171   1.779   2.171  12.412 -0.4177 -0.1184 -0.5270
 9560TIP3    H250172   1.646   2.243  12.413  0.1737  1.0095  0.2593
 9561TIP3   OH250173   5.262   1.317  15.884  0.2205  0.3179 -0.1886
 9561TIP3    H150174   5.343   1.281  15.847  0.3559 -0.8173  1.1233
 9561TIP3    H250175   5.228   1.247  15.939 -1.0524  1.2126  0.2104
 9562TIP3   OH250176   6.596   6.656  15.379 -0.3938 -0.2576 -0.1768
 9562TIP3    H150177   6.612   6.581  15.436  1.2114  0.2129  0.0580
 9562TIP3    H250178   6.632   6.630  15.294  0.6170  0.3969  0.0336
 9563TIP3   OH250179   0.983   3.489   1.939  0.4578  0.1454  0.2303
 9563TIP3    H150180   0.940   3.556   1.992  0.8986 -0.4537  1.3831
 9563TIP3    H250181   0.926   3.413   1.944 -0.3405  0.5672 -1.5602
 9564TIP3   OH250182   4.511   4.394   5.162 -0.1229  0.0341 -0.0512
 9564TIP3    H150183   4.571   4.406   5.236 -0.4406  1.5576 -0.0135
 9564TIP3    H250184   4.526   4.470   5.106 -0.2775 -0.8192 -1.2975
 9565TIP3   OH250185   2.313   1.643  15.789  0.6986 -0.1289  0.0350
 9565TIP3    H150186   2.361   1.703  15.731 -0.2065  0.1989 -0.3855
 9565TIP3    H250187   2.256   1.594  15.730  2.1770 -2.2065  0.2084
 9566TIP3   OH250188   6.579   0.891  14.176 -0.0015  0.1833 -0.1312
 9566TIP3    H150189   6.665   0.860  14.147  1.0352  1.2313  1.6447
 9566TIP3    H250190   6.525   0.812  14.180  1.6004 -0.9232  1.0653
 9567TIP3   OH250191   4.037   5.960   2.837 -0.5035 -0.0524 -0.1907
 9567TIP3    H150192   3.954   5.913   2.845 -0.6170  0.2450  0.5242
 9567TIP3    H250193   4.104   5.891   2.840 -0.6678 -0.1866  0.8744
 9568TIP3   OH250194   3.394   5.402   1.472 -0.3769  0.3624  0.2228
 9568TIP3    H150195   3.404   5.437   1.383 -0.2129 -2.0142 -0.7917
 9568TIP3    H250196   3.326   5.456   1.512 -0.8356  1.1717 -1.5287
 9569TIP3   OH250197   2.519   3.939  14.625 -0.3679  0.0188 -0.0362
 9569TIP3    H150198   2.557   3.875  14.686  2.0324  0.8051 -0.6180
 9569TIP3    H250199   2.466   3.996  14.681 -0.6139 -1.0089  0.8354
 9570TIP3   OH250200   3.450   2.095  14.272 -0.5636 -0.0423 -0.0566
 9570TIP3    H150201   3.399   2.100  14.352  1.1948 -1.9096  1.2776
 9570TIP3    H250202   3.540   2.080  14.302  0.6266  1.8385 -2.3167
 9571TIP3   OH250203   0.396   2.697  13.549 -0.6412 -0.4235 -0.4008
 9571TIP3    H150204   0.407   2.774  13.492  1.9181 -1.1321 -0.9834
 9571TIP3    H250205   0.307   2.706  13.583 -1.8816  0.7219 -3.5078
 9572TIP3   OH250206   6.554   3.927  16.800 -0.4927 -0.1342 -0.1931
 9572TIP3    H150207   6.649   3.919  16.806 -0.5160  0.6030  1.7253
 9572TIP3    H250208   6.537   4.021  16.793 -1.0998 -0.2603 -0.5407
 9573TIP3   OH250209   4.224   2.224   5.192  0.1055  0.0581  0.1736
 9573TIP3    H150210   4.304   2.172   5.184  0.6588  0.7327  1.1254
 9573TIP3    H250211   4.248   2.297   5.250 -1.2968  0.0995  0.7461
 9574TIP3   OH250212   1.935   0.153  11.408  0.2475 -0.0740 -0.1503
 9574TIP3    H150213   1.967   0.234  11.368 -0.6349  0.3839  0.0432
 9574TIP3    H250214   1.916   0.095  11.334  1.7109 -0.4456 -0.2642
 9575TIP3   OH250215   1.017   1.036  14.678 -0.3379 -0.6767 -0.4938
 9575TIP3    H150216   1.075   0.987  14.619  1.0763  0.2252  0.0866
 9575TIP3    H250217   1.020   0.988  14.761  1.0207  0.2925  0.0642
 9576TIP3   OH250218   0.997   4.245  16.647  0.3420  0.5079  0.1566
 9576TIP3    H150219   1.040   4.180  16.591 -1.3872 -0.3662 -0.2506
 9576TIP3    H250220   0.976   4.317  16.588  2.9690  1.8745  0.7681
 9577TIP3   OH250221   4.522   1.335   1.033 -0.2287  0.2635  0.1178
 9577TIP3    H150222   4.610   1.342   1.071  0.6690 -2.7174 -1.0821
 9577TIP3    H250223   4.464   1.368   1.101  1.6198 -0.2859  2.0820
 9578TIP3   OH250224   5.108   0.392  15.186  0.2326 -0.0493  0.6943
 9578TIP3    H150225   5.135   0.460  15.247 -1.5880  0.5547  0.8863
 9578TIP3    H250226   5.042   0.434  15.130  0.9219 -0.9494 -0.8633
 9579TIP3   OH250227   5.942   2.025   4.085  0.3704  0.2100  0.2375
 9579TIP3    H150228   5.932   2.119   4.073  0.3005  0.2046  0.2554
 9579TIP3    H250229   5.890   2.005   4.163 -1.7893 -0.2688 -1.2397
 9580TIP3   OH250230   5.817   0.544  12.737  0.5058 -0.2282 -0.0518
 9580TIP3    H150231   5.777   0.629  12.720  0.1853 -0.6804 -1.7338
 9580TIP3    H250232   5.858   0.553  12.823 -0.5994  1.2131  0.3620
 9581TIP3   OH250233   3.296   1.144   5.057  0.0021  0.6026  0.3294
 9581TIP3    H150234   3.218   1.123   5.109 -0.4283  1.6515  0.1421
 9581TIP3    H250235   3.280   1.102   4.973 -0.3687  0.7976  0.2967
 9582TIP3   OH250236   3.524   4.610   4.619 -0.6818  0.8466 -0.6448
 9582TIP3    H150237   3.454   4.668   4.648 -2.9439 -2.2227  0.5771
 9582TIP3    H250238   3.487   4.564   4.543  0.7899  0.5799 -1.2339
 9583TIP3   OH250239   0.611   5.158   5.239 -0.7139 -0.1633  0.2930
 9583TIP3    H150240   0.632   5.079   5.189 -0.4576  0.4762 -0.6281
 9583TIP3    H250241   0.541   5.130   5.299  0.3522 -1.4369  1.0078
 9584TIP3   OH250242   3.864   2.344  17.013  0.3050  0.2851  0.2897
 9584TIP3    H150243   3.836   2.309  17.097 -0.1895  1.5846  0.6920
 9584TIP3    H250244   3.782   2.355  16.963  0.5967 -0.5217 -0.3896
 9585TIP3   OH250245   0.349   0.920  13.085 -0.0194  0.4165  0.0204
 9585TIP3    H150246   0.305   1.002  13.063 -0.7797  0.4608  1.5340
 9585TIP3    H250247   0.353   0.921  13.181  2.2855 -0.1287 -0.0211
 9586TIP3   OH250248   0.266   2.936   0.664  0.0301  0.2727  0.0078
 9586TIP3    H150249   0.195   2.914   0.724  1.5580 -1.1521  1.3843
 9586TIP3    H250250   0.255   2.877   0.590 -0.6549  0.5795 -0.1344
 9587TIP3   OH250251   1.270   6.409  16.679 -0.8067  0.2327  0.5925
 9587TIP3    H150252   1.221   6.336  16.641 -1.0970  0.9901 -0.5337
 9587TIP3    H250253   1.226   6.487  16.646  1.9849  1.0012 -1.6780
 9588TIP3   OH250254   5.092   5.263  16.545  0.1058 -0.0120  0.1694
 9588TIP3    H150255   5.136   5.297  16.467  0.7420 -0.0918  0.4889
 9588TIP3    H250256   5.153   5.198  16.580 -0.4817 -0.4755  0.3487
 9589TIP3   OH250257   3.277   0.419   6.535  0.2724 -0.4133 -0.0137
 9589TIP3    H150258   3.313   0.379   6.457  1.3017 -0.5206  0.4981
 9589TIP3    H250259   3.185   0.436   6.514  0.6062 -0.1887 -1.3240
 9590TIP3   OH250260   1.763   3.842   2.341  0.5057  0.5191 -0.0678
 9590TIP3    H150261   1.833   3.778   2.354 -0.7272 -0.8434  0.1740
 9590TIP3    H250262   1.733   3.864   2.429 -1.2244 -1.1100 -0.1786
 9591TIP3   OH250263   1.478   0.332   0.142  0.0145 -0.3476 -0.5020
 9591TIP3    H150264   1.417   0.262   0.120 -0.2055 -0.5709  0.7448
 9591TIP3    H250265   1.523   0.301   0.221 -0.5066  1.1519  0.4316
 9592TIP3   OH250266   5.450   0.134  17.145 -0.0001 -1.1569 -0.3582
 9592TIP3    H150267   5.402   0.155  17.225 -0.1382 -1.4379 -0.3663
 9592TIP3    H250268   5.525   0.083  17.175  0.8212  0.0766 -0.2475
 9593TIP3   OH250269   2.913   1.087   4.518  0.7644  0.7230  0.1024
 9593TIP3    H150270   2.907   1.000   4.558  0.1831  1.0523  0.7586
 9593TIP3    H250271   2.937   1.070   4.427 -1.2113 -0.2443 -0.2950
 9594TIP3   OH250272   2.884   3.647  14.342 -0.4097  0.5768  0.4542
 9594TIP3    H150273   2.830   3.569  14.349 -0.8228  0.9478  1.6759
 9594TIP3    H250274   2.829   3.711  14.298 -0.2619  0.3457 -0.0670
 9595TIP3   OH250275   0.015   0.903   5.550 -0.1016  0.3827 -0.1344
 9595TIP3    H150276   0.055   0.960   5.616  1.2317 -1.3680  0.6417
 9595TIP3    H250277  -0.067   0.947   5.528  0.3682  2.0598  1.1865
 9596TIP3   OH250278   4.587   3.142  11.923 -0.0441 -0.8262 -0.4591
 9596TIP3    H150279   4.560   3.090  11.847 -1.6775  0.5564 -0.8935
 9596TIP3    H250280   4.531   3.220  11.919  0.0197 -0.5978  2.0393
 9597TIP3   OH250281   1.809   0.635  10.371  0.7001 -0.6575  0.2990
 9597TIP3    H150282   1.763   0.708  10.412  0.4500  0.4493 -1.7888
 9597TIP3    H250283   1.769   0.557  10.408  1.2175  0.1890  2.8750
 9598TIP3   OH250284   0.598   6.416  15.692 -0.0633  0.3154 -0.3392
 9598TIP3    H150285   0.658   6.351  15.655 -0.2767 -0.6763  0.9716
 9598TIP3    H250286   0.518   6.406  15.642 -0.9254 -2.1938  1.3316
 9599TIP3   OH250287   4.455   2.326  14.902  0.2935  0.2156  0.1344
 9599TIP3    H150288   4.516   2.381  14.952  1.0380  0.8308 -1.3784
 9599TIP3    H250289   4.450   2.245  14.952  0.9447  0.8229  1.2419
 9600TIP3   OH250290   6.829   5.827   1.820 -0.3829 -0.0938 -0.4822
 9600TIP3    H150291   6.753   5.801   1.872 -0.6893 -0.1023 -0.9357
 9600TIP3    H250292   6.871   5.745   1.796 -2.1880 -0.3552 -3.2015
 9601TIP3   OH250293   5.713   6.191   3.949  0.0530  0.3080 -0.2839
 9601TIP3    H150294   5.638   6.171   4.005  1.0566  0.0500  1.0143
 9601TIP3    H250295   5.674   6.224   3.868 -1.4507  0.3194  0.4071
 9602TIP3   OH250296   1.892   3.578   0.609 -0.5340  0.2472  0.1694
 9602TIP3    H150297   1.814   3.574   0.554  0.0620 -1.3782 -0.6306
 9602TIP3    H250298   1.859   3.593   0.697 -1.6937  0.3630 -0.2765
 9603TIP3   OH250299   2.916   5.699   4.234  0.0636  0.1031 -0.2036
 9603TIP3    H150300   2.969   5.648   4.296  0.7155  2.3667  1.2098
 9603TIP3    H250301   2.832   5.710   4.278  0.2381  0.9849 -0.0686
 9604TIP3   OH250302   6.807   0.066  16.995  0.1007  0.3705  0.8491
 9604TIP3    H150303   6.851   0.148  17.018 -0.8005  1.0293  0.2423
 9604TIP3    H250304   6.717   0.077  17.025  0.2892 -0.9406  2.0043
 9605TIP3   OH250305   0.103   6.667  17.073 -0.0373 -0.0342  0.0616
 9605TIP3    H150306   0.063   6.744  17.031  2.0283  0.3926 -1.2618
 9605TIP3    H250307   0.071   6.593  17.021 -1.2331 -0.0028  0.7154
 9606TIP3   OH250308   6.466   3.311  16.980  0.9939 -1.1769  0.5622
 9606TIP3    H150309   6.384   3.354  17.003  0.4737 -1.2901 -1.0148
 9606TIP3    H250310   6.453   3.219  17.003  0.6448 -1.2130  0.2107
 9607TIP3   OH250311   0.612   2.701  13.964  0.7927 -0.3447  0.2023
 9607TIP3    H150312   0.700   2.709  14.001  1.2045 -0.4694 -0.7262
 9607TIP3    H250313   0.559   2.763  14.014  1.1466 -1.0632  1.5305
 9608TIP3   OH250314   1.661   2.759   4.103 -0.1502 -0.1636  0.0051
 9608TIP3    H150315   1.736   2.819   4.103  0.0778 -0.4401 -0.8425
 9608TIP3    H250316   1.597   2.801   4.046  0.3959 -1.1835 -1.3942
 9609TIP3   OH250317   0.474   5.390   2.856  0.2067  0.1426  0.1243
 9609TIP3    H150318   0.549   5.359   2.906 -1.5479 -0.8960  2.2918
 9609TIP3    H250319   0.418   5.313   2.845 -0.6763  0.9277 -1.2366
 9610TIP3   OH250320   1.931   5.680  10.656 -0.2628  0.2604 -0.6135
 9610TIP3    H150321   1.994   5.608  10.650 -0.7146 -0.0967 -1.3155
 9610TIP3    H250322   1.985   5.759  10.661  0.2499 -0.1644  1.0713
 9611TIP3   OH250323   2.937   4.152   3.625 -0.2578  0.9662 -0.4140
 9611TIP3    H150324   3.027   4.132   3.600 -0.3106  0.9186 -0.5691
 9611TIP3    H250325   2.912   4.080   3.683 -1.2297 -0.7399 -2.7960
 9612TIP3   OH250326   2.528   3.943   4.245 -0.1822 -0.0863 -0.1640
 9612TIP3    H150327   2.474   3.873   4.280  1.5667 -1.3252  0.1668
 9612TIP3    H250328   2.524   4.012   4.312  2.0741 -1.9065  2.0267
 9613TIP3   OH250329   4.204   1.265   3.617 -0.5434 -0.7092  0.7020
 9613TIP3    H150330   4.209   1.312   3.534 -2.3519 -1.4726  0.1241
 9613TIP3    H250331   4.285   1.289   3.663  0.4721 -0.2218 -1.2327
 9614TIP3   OH250332   2.070   1.171  13.988 -0.2469 -0.1144 -0.2571
 9614TIP3    H150333   2.101   1.126  14.067 -1.5886 -0.2053  0.2316
 9614TIP3    H250334   2.056   1.261  14.016  1.5038  0.4383 -0.9981
 9615TIP3   OH250335   4.100   5.615  13.102 -0.4181  0.3033 -0.2233
 9615TIP3    H150336   4.069   5.692  13.055  0.1794 -0.5236 -2.0756
 9615TIP3    H250337   4.196   5.626  13.104 -0.4100  0.1679  0.5709
 9616TIP3   OH250338   2.529   4.729   4.826 -0.1576 -0.3321  0.1902
 9616TIP3    H150339   2.493   4.771   4.748  0.6928  1.4949  0.7451
 9616TIP3    H250340   2.501   4.784   4.899 -2.9758 -3.2622  1.5605
 9617TIP3   OH250341   5.411   4.352  13.845  0.6284 -0.3472  0.7721
 9617TIP3    H150342   5.360   4.282  13.885 -0.9819  1.1633  1.4998
 9617TIP3    H250343   5.380   4.432  13.888  1.5979  0.9451 -0.8101
 9618TIP3   OH250344   2.424   0.542   5.896 -0.0075  0.0187 -0.5414
 9618TIP3    H150345   2.381   0.524   5.812 -0.4573  1.0600 -0.5498
 9618TIP3    H250346   2.422   0.458   5.942  0.0143 -0.5001 -1.4697
 9619TIP3   OH250347   4.273   0.504  10.933  0.1026 -0.0508  0.0372
 9619TIP3    H150348   4.306   0.578  10.882 -1.9549  0.4790 -0.6221
 9619TIP3    H250349   4.287   0.428  10.877 -0.2746  0.2400 -0.4550
 9620TIP3   OH250350   4.858   5.897  12.430  0.0338  0.1146  0.0929
 9620TIP3    H150351   4.869   5.831  12.498  0.6273  0.0679 -0.0381
 9620TIP3    H250352   4.785   5.950  12.460 -1.5810 -1.6079 -0.6239
 9621TIP3   OH250353   0.856   6.547  12.865 -0.2069  0.3265  0.0280
 9621TIP3    H150354   0.841   6.537  12.959  1.1947  1.5369  0.4161
 9621TIP3    H250355   0.909   6.471  12.841 -0.4054  0.1157  0.2489
 9622TIP3   OH250356   6.789   2.650   2.984  0.0003 -0.4409 -0.3447
 9622TIP3    H150357   6.762   2.660   3.075 -0.3891  0.6698 -0.5663
 9622TIP3    H250358   6.881   2.623   2.989  0.3269  0.7405  0.3745
 9623TIP3   OH250359   4.606   6.716   5.100  0.1342  0.2941  0.8558
 9623TIP3    H150360   4.694   6.721   5.138 -0.1918  1.0093  1.5384
 9623TIP3    H250361   4.598   6.625   5.070  1.4566  0.4601 -0.0850
 9624TIP3   OH250362   2.493   4.474  14.447 -0.1497 -0.0763 -0.4122
 9624TIP3    H150363   2.449   4.542  14.395 -0.3319  1.0264  1.1144
 9624TIP3    H250364   2.442   4.395  14.431 -0.0463  0.1643 -2.0893
 9625TIP3   OH250365   2.939   5.149  17.033  0.1597 -0.1672 -0.1710
 9625TIP3    H150366   2.920   5.240  17.056  0.9917 -0.2340  0.8228
 9625TIP3    H250367   2.996   5.155  16.956 -0.0464  0.1286 -0.3071
 9626TIP3   OH250368   0.078   1.263  15.969  0.0078 -0.1487  0.1255
 9626TIP3    H150369   0.154   1.282  15.914 -0.3122 -1.0066 -0.6580
 9626TIP3    H250370   0.099   1.180  16.011 -0.7831 -0.7805 -0.6852
 9627TIP3   OH250371   5.971   6.624  15.076  0.0490 -0.3643 -0.2013
 9627TIP3    H150372   5.906   6.572  15.028  0.2080 -2.2338  1.4249
 9627TIP3    H250373   6.003   6.687  15.013 -2.1083 -0.5055 -1.5621
 9628TIP3   OH250374   3.459   6.819  16.335  0.4684  0.4447  0.6616
 9628TIP3    H150375   3.498   6.821  16.247  2.3066 -0.7722  1.3876
 9628TIP3    H250376   3.472   6.729  16.365  1.1810  1.1895  2.7361
 9629TIP3   OH250377   2.109   0.469  11.911  0.1052  0.2147  0.1092
 9629TIP3    H150378   2.081   0.424  11.831 -0.3522  1.3587 -0.4110
 9629TIP3    H250379   2.046   0.541  11.920  0.6982  0.6380  1.0006
 9630TIP3   OH250380   6.332   4.673   2.757 -0.2089 -0.2707  0.1051
 9630TIP3    H150381   6.328   4.596   2.813 -2.6908 -0.8282 -0.7188
 9630TIP3    H250382   6.245   4.712   2.762 -0.0168  0.6126 -2.0423
 9631TIP3   OH250383   2.529   6.051   6.071 -0.4252 -0.6499  0.3668
 9631TIP3    H150384   2.549   5.983   6.007  1.7058 -0.9867  1.3131
 9631TIP3    H250385   2.546   6.011   6.156 -3.2338 -0.2146  1.2274
 9632TIP3   OH250386   3.065   3.947  11.634  0.1835  0.1082  0.0708
 9632TIP3    H150387   3.082   4.035  11.668  0.1331 -0.1064  0.6658
 9632TIP3    H250388   3.018   3.903  11.705  0.0207 -0.3318 -0.3070
 9633TIP3   OH250389   0.068   4.807  16.365  0.4363  0.3653 -0.2511
 9633TIP3    H150390   0.103   4.755  16.438 -0.3248  1.4520  0.9205
 9633TIP3    H250391   0.131   4.878  16.354 -0.7474  1.7024  1.1404
 9634TIP3   OH250392   2.076   5.573  17.120  0.4308 -0.5718 -0.5497
 9634TIP3    H150393   2.002   5.597  17.175  1.1263  0.5638 -0.0796
 9634TIP3    H250394   2.080   5.478  17.125  0.8693 -0.4821  1.8964
 9635TIP3   OH250395   3.049   3.182   4.663 -0.0897  0.5042 -0.4818
 9635TIP3    H150396   3.124   3.234   4.693  0.7871 -0.9654 -0.0514
 9635TIP3    H250397   3.061   3.176   4.568 -0.1836  1.0372 -0.5336
 9636TIP3   OH250398   3.567   1.517  10.963  0.0324 -0.4123 -0.6245
 9636TIP3    H150399   3.498   1.456  10.938 -1.3629  0.8258  0.0749
 9636TIP3    H250400   3.606   1.545  10.880 -0.8396 -0.5356 -1.0914
 9637TIP3   OH250401   1.899   2.665  11.437 -0.4459 -0.1847  0.1388
 9637TIP3    H150402   1.995   2.661  11.438 -0.4348  0.0079 -0.2253
 9637TIP3    H250403   1.872   2.590  11.490 -0.0990 -0.5986 -0.2584
 9638TIP3   OH250404   0.704   0.464   6.777  0.2942 -0.1703 -0.2528
 9638TIP3    H150405   0.620   0.419   6.769  1.1943 -1.6424 -3.3170
 9638TIP3    H250406   0.685   0.555   6.755 -0.4389 -0.6270 -1.6129
 9639TIP3   OH250407   4.633   5.407  12.826  0.2973  0.6509 -0.4134
 9639TIP3    H150408   4.559   5.346  12.818  1.3921 -1.1024  1.7133
 9639TIP3    H250409   4.594   5.493  12.811 -2.0703 -0.2590 -0.0036
 9640TIP3   OH250410   0.448   1.836  12.846 -0.5263  0.2505 -0.1522
 9640TIP3    H150411   0.488   1.886  12.774  0.9118 -0.5529  0.0356
 9640TIP3    H250412   0.523   1.808  12.899 -1.5349  0.4130  1.3916
 9641TIP3   OH250413   1.809   6.573  11.502 -0.1742  0.4346 -0.6180
 9641TIP3    H150414   1.782   6.648  11.555  0.3909 -0.2993  0.7456
 9641TIP3    H250415   1.893   6.600  11.463 -1.3073  1.5588 -2.4427
 9642TIP3   OH250416   2.647   1.032  15.121 -0.7830  0.5855  0.2135
 9642TIP3    H150417   2.740   1.045  15.102 -1.0463 -1.4944 -3.1405
 9642TIP3    H250418   2.643   1.034  15.217  2.5770  1.2828  0.4960
 9643TIP3   OH250419   4.628   3.916  12.239  0.1043 -0.2263 -0.3742
 9643TIP3    H150420   4.606   3.868  12.319 -0.8682  1.6869  0.5728
 9643TIP3    H250421   4.666   3.998  12.270  3.5094 -1.0294 -1.9467
 9644TIP3   OH250422   1.847   6.347   4.175  0.1584  0.7402 -0.4363
 9644TIP3    H150423   1.823   6.428   4.130  0.3102 -0.2725 -2.4774
 9644TIP3    H250424   1.941   6.354   4.189  0.2343  0.7763 -0.9497
 9645TIP3   OH250425   4.439   5.157  11.185 -1.1449 -0.1247  0.0568
 9645TIP3    H150426   4.439   5.217  11.111  2.4380  0.8792  0.6552
 9645TIP3    H250427   4.441   5.070  11.145  0.9884  0.3974 -1.1446
 9646TIP3   OH250428   3.954   1.617  13.923 -0.2725 -0.5103 -0.5002
 9646TIP3    H150429   4.035   1.644  13.967 -0.9077 -0.0668  0.4196
 9646TIP3    H250430   3.955   1.663  13.840 -0.9435  1.7911  0.6919
 9647TIP3   OH250431   3.950   5.860   3.700  0.1712  0.0307  0.5473
 9647TIP3    H150432   3.928   5.860   3.793 -1.0003  0.8682  0.2843
 9647TIP3    H250433   4.026   5.917   3.693 -0.4133  0.8605  0.8507
 9648TIP3   OH250434   3.084   0.445   5.219  0.1235 -0.4332  0.2866
 9648TIP3    H150435   3.070   0.374   5.157  1.7189 -0.7187  0.2266
 9648TIP3    H250436   3.062   0.407   5.304  1.4026 -1.1721  0.3126
 9649TIP3   OH250437   3.094   6.364   5.294 -0.2530 -0.0787 -0.0554
 9649TIP3    H150438   3.042   6.309   5.352 -0.6401 -0.1235 -0.4348
 9649TIP3    H250439   3.031   6.400   5.232  0.5832 -4.2019 -3.8865
 9650TIP3   OH250440   1.046   1.190  15.018  0.1989  0.0738 -0.7608
 9650TIP3    H150441   1.139   1.177  15.037  0.2133  0.0299 -0.8595
 9650TIP3    H250442   1.013   1.103  14.997  0.6626  0.3930 -3.0657
 9651TIP3   OH250443   0.737   1.853  16.449  0.3264 -0.1941 -0.3439
 9651TIP3    H150444   0.776   1.933  16.485 -0.0572 -0.6921  1.2643
 9651TIP3    H250445   0.648   1.851  16.484  0.0403 -0.8778 -1.0817
 9652TIP3   OH250446   4.490   1.157   3.485  0.1582  0.3782 -0.8119
 9652TIP3    H150447   4.481   1.102   3.408 -1.1553 -0.8417  0.1658
 9652TIP3    H250448   4.559   1.114   3.537 -1.1678 -0.6779  0.1571
 9653TIP3   OH250449   1.452   3.739  15.048 -0.2389  0.4728  0.3621
 9653TIP3    H150450   1.429   3.745  15.141 -0.8028 -0.5240  0.3059
 9653TIP3    H250451   1.383   3.685  15.010 -0.0978  1.0033 -0.6748
 9654TIP3   OH250452   0.863   4.644   3.851  0.3074  0.0259  0.1769
 9654TIP3    H150453   0.935   4.596   3.809 -0.4642 -1.2093  0.2217
 9654TIP3    H250454   0.785   4.619   3.802 -0.2234  0.6735  0.6668
 9655TIP3   OH250455   5.788   0.364   2.525 -0.6420 -0.2375 -0.4566
 9655TIP3    H150456   5.831   0.397   2.446 -0.5788  0.9034  0.0384
 9655TIP3    H250457   5.786   0.438   2.585 -1.0289 -0.9778  0.4862
 9656TIP3   OH250458   2.291   5.740  16.664 -0.4604 -0.7288 -0.5684
 9656TIP3    H150459   2.229   5.759  16.735  0.4213  0.4056 -0.0776
 9656TIP3    H250460   2.255   5.663  16.622 -0.8178 -1.6757  1.3470
 9657TIP3   OH250461   1.372   4.846   0.224  0.2694 -0.1159 -0.3606
 9657TIP3    H150462   1.371   4.754   0.199  2.1170  0.0226 -1.0935
 9657TIP3    H250463   1.449   4.855   0.280 -1.2052  0.5474  1.6720
 9658TIP3   OH250464   2.629   1.427  11.123  0.3525 -0.3499 -0.3688
 9658TIP3    H150465   2.572   1.436  11.199  1.0117  2.2113 -0.1070
 9658TIP3    H250466   2.595   1.491  11.060  1.0413 -1.0191 -1.4507
 9659TIP3   OH250467   4.646   5.025  14.001  0.0640  0.0158 -0.5371
 9659TIP3    H150468   4.736   4.994  14.012 -0.3199 -1.2775 -0.9337
 9659TIP3    H250469   4.595   4.977  14.066 -0.8334 -1.6307 -2.3551
 9660TIP3   OH250470   6.107   3.629  12.420 -0.0653 -0.0131  0.1585
 9660TIP3    H150471   6.043   3.651  12.352  0.1133  1.7840  0.5277
 9660TIP3    H250472   6.172   3.699  12.415 -0.4181  0.5810  2.6276
 9661TIP3   OH250473   2.412   6.756   0.894 -0.5793  0.6130 -0.6896
 9661TIP3    H150474   2.367   6.823   0.842 -0.4889 -1.5675 -3.9063
 9661TIP3    H250475   2.349   6.732   0.962 -1.2035  2.8270 -0.4173
 9662TIP3   OH250476   4.403   6.563   5.945 -0.0530  0.0011  0.0939
 9662TIP3    H150477   4.446   6.604   6.019  0.4322  0.8498 -0.6351
 9662TIP3    H250478   4.441   6.475   5.940  0.1504  0.0588  0.6409
 9663TIP3   OH250479   2.881   2.014   6.278  0.2332  0.0726 -0.2062
 9663TIP3    H150480   2.922   1.928   6.282 -1.1278 -0.7391 -2.2999
 9663TIP3    H250481   2.787   1.997   6.283 -0.0339  1.5538  0.5170
 9664TIP3   OH250482   5.297   0.914  16.034 -0.4807 -0.1398 -0.1097
 9664TIP3    H150483   5.382   0.872  16.047 -0.0364  1.0609  1.0969
 9664TIP3    H250484   5.233   0.850  16.065  0.2836  0.6575  3.6076
 9665TIP3   OH250485   0.517   2.292  17.016 -0.1346 -0.1393  0.2728
 9665TIP3    H150486   0.586   2.310  17.079  0.2309 -0.0097 -0.1598
 9665TIP3    H250487   0.548   2.331  16.934  1.4505 -4.0086 -1.1809
 9666TIP3   OH250488   3.125   2.684  16.285 -0.1953 -0.3238  0.6242
 9666TIP3    H150489   3.181   2.730  16.223  0.1335  0.2418  1.3242
 9666TIP3    H250490   3.077   2.621  16.232  2.6863 -2.4087  0.2600
 9667TIP3   OH250491   6.007   0.537   5.127  0.2925 -0.1435 -0.4925
 9667TIP3    H150492   6.019   0.628   5.098  0.9062  0.2256  0.8428
 9667TIP3    H250493   6.081   0.520   5.185 -0.5544 -1.0382  0.3699
 9668TIP3   OH250494   3.533   6.152   2.955 -0.8066  0.5221 -0.1578
 9668TIP3    H150495   3.627   6.163   2.948 -0.6533 -0.0564  0.7900
 9668TIP3    H250496   3.502   6.234   2.994 -0.3961 -0.1194  1.5969
 9669TIP3   OH250497   6.808   3.546   6.061 -0.2706 -0.7373  0.7188
 9669TIP3    H150498   6.864   3.622   6.043  0.3554 -1.0722  1.2631
 9669TIP3    H250499   6.719   3.582   6.058 -0.1351 -0.4420 -1.4084
 9670TIP3   OH250500   2.870   0.820   4.257 -0.4331 -0.0141 -0.0319
 9670TIP3    H150501   2.897   0.910   4.276 -3.6446  1.4170 -1.4791
 9670TIP3    H250502   2.903   0.802   4.170 -0.2562 -0.0253  0.0383
 9671TIP3   OH250503   0.386   6.613   6.025 -0.1485 -0.0632  0.1821
 9671TIP3    H150504   0.435   6.695   6.018 -0.7399  0.3300  0.5854
 9671TIP3    H250505   0.304   6.637   6.069 -0.7231 -0.7071 -0.5108
 9672TIP3   OH250506   5.419   4.217   1.318  0.7455 -0.0541  0.1822
 9672TIP3    H150507   5.357   4.265   1.262 -0.2494 -1.7648 -0.2736
 9672TIP3    H250508   5.378   4.131   1.330  2.4846 -0.8307  0.8789
 9673TIP3   OH250509   0.186   5.588   5.064 -0.2540 -0.0795  0.5288
 9673TIP3    H150510   0.211   5.563   4.975 -1.2861 -2.0543  0.7228
 9673TIP3    H250511   0.248   5.541   5.120 -0.9299 -0.5918  0.8674
 9674TIP3   OH250512   6.674   2.167   2.457  0.2274 -0.1477  0.4602
 9674TIP3    H150513   6.657   2.130   2.543 -1.4231  0.5157  0.4443
 9674TIP3    H250514   6.770   2.165   2.449  0.3912 -0.5275  2.1498
 9675TIP3   OH250515   6.696   6.324   5.452 -0.3230  0.8701  0.3322
 9675TIP3    H150516   6.620   6.382   5.456 -0.7739  0.3579 -0.5734
 9675TIP3    H250517   6.671   6.248   5.504 -0.1634  1.0090  0.6097
 9676TIP3   OH250518   0.417   1.608   0.588  0.5235  0.1184 -0.7299
 9676TIP3    H150519   0.423   1.702   0.599 -1.3054  0.3496 -1.3602
 9676TIP3    H250520   0.430   1.593   0.495 -1.1947 -0.0037 -0.9865
 9677TIP3   OH250521   3.890   5.103  11.693 -0.2594  0.0293 -0.4034
 9677TIP3    H150522   3.939   5.178  11.728 -0.9225 -0.4992  1.8174
 9677TIP3    H250523   3.805   5.139  11.670 -1.9841 -0.4637  4.1290
 9678TIP3   OH250524   0.022   4.828  12.114  0.4979 -0.2674 -0.0367
 9678TIP3    H150525  -0.067   4.810  12.143  0.2641 -0.2043 -0.7004
 9678TIP3    H250526   0.065   4.743  12.114 -0.2403 -0.6784 -1.9586
 9679TIP3   OH250527   0.079   3.266   3.243 -0.5342  0.4709  0.2282
 9679TIP3    H150528   0.052   3.231   3.328  1.3822  1.8828  1.4947
 9679TIP3    H250529   0.139   3.201   3.207 -1.9213 -0.4833 -0.4513
 9680TIP3   OH250530   5.847   1.609  14.294  0.2501  0.4736  0.1818
 9680TIP3    H150531   5.773   1.548  14.296 -0.7365  1.5245 -1.5452
 9680TIP3    H250532   5.899   1.580  14.218 -0.1596  1.6544 -0.5734
 9681TIP3   OH250533   5.504   5.034   2.065 -0.6075  0.2010  0.4215
 9681TIP3    H150534   5.505   5.067   2.155  2.0437 -0.8652  0.8559
 9681TIP3    H250535   5.554   5.099   2.015 -0.9588  0.1257 -0.0344
 9682TIP3   OH250536   1.952   0.344  15.601 -0.0789 -0.2631 -0.2166
 9682TIP3    H150537   1.986   0.426  15.567  0.4388 -0.7654 -0.9401
 9682TIP3    H250538   2.022   0.309  15.657 -1.6759  1.5584  3.2106
 9683TIP3   OH250539   1.214   6.175  12.846  0.3336 -0.4712 -0.0263
 9683TIP3    H150540   1.136   6.146  12.893  1.7746 -0.4637  2.5746
 9683TIP3    H250541   1.217   6.270  12.859  0.9932 -0.5291  0.3092
 9684TIP3   OH250542   3.027   5.260  15.132  0.4270 -0.1419 -0.1248
 9684TIP3    H150543   3.112   5.236  15.095  0.2426 -0.1944 -0.5197
 9684TIP3    H250544   3.020   5.209  15.213  0.4292 -0.7410 -0.4941
 9685TIP3   OH250545   1.366   4.850   5.317 -0.2447 -0.4348  0.0326
 9685TIP3    H150546   1.285   4.799   5.323  0.3039 -1.4619 -0.7938
 9685TIP3    H250547   1.368   4.902   5.397 -0.5707 -2.1534  1.2209
 9686TIP3   OH250548   0.281   5.902   3.515 -0.4161 -0.8657  0.7324
 9686TIP3    H150549   0.233   5.978   3.548  2.0609  1.4028 -0.5725
 9686TIP3    H250550   0.365   5.904   3.561  1.2576 -0.3713 -2.1129
 9687TIP3   OH250551   3.152   4.847   2.816 -0.5179  0.4492 -0.0013
 9687TIP3    H150552   3.238   4.838   2.857 -0.6282 -2.4717 -0.2419
 9687TIP3    H250553   3.166   4.824   2.725 -1.2648  1.7492 -0.4765
 9688TIP3   OH250554   5.465   4.595   5.275 -0.1438 -0.1344 -0.1585
 9688TIP3    H150555   5.478   4.629   5.363  1.7845  1.2196 -0.8884
 9688TIP3    H250556   5.484   4.502   5.282 -0.6771 -0.1777  0.9654
 9689TIP3   OH250557   0.247   5.299  11.459 -0.1988  0.1033 -0.0865
 9689TIP3    H150558   0.248   5.367  11.392 -2.9610 -0.9085 -1.2665
 9689TIP3    H250559   0.329   5.251  11.445  1.5299  2.6690  0.3784
 9690TIP3   OH250560   4.668   4.892  12.752 -0.2744 -0.4086 -0.0216
 9690TIP3    H150561   4.756   4.870  12.721  0.2217 -0.8772  1.6273
 9690TIP3    H250562   4.658   4.985  12.732  0.8893 -0.1719  0.4446
 9691TIP3   OH250563   0.761   5.246   4.725  0.8431 -0.5660 -0.9669
 9691TIP3    H150564   0.792   5.160   4.754  0.8269 -0.1001  0.5382
 9691TIP3    H250565   0.838   5.287   4.686  0.9632 -1.0910 -1.2924
 9692TIP3   OH250566   5.274   5.419  10.956 -0.1323 -0.1706  0.0862
 9692TIP3    H150567   5.228   5.453  10.880 -0.4193  1.8541  1.1007
 9692TIP3    H250568   5.211   5.362  11.000 -0.5650  0.0661 -0.2291
 9693TIP3   OH250569   4.812   2.796   0.369 -0.2065 -0.2399 -0.3465
 9693TIP3    H150570   4.906   2.798   0.383 -0.0862 -4.0240  0.7067
 9693TIP3    H250571   4.777   2.862   0.430  1.6821  0.9915 -0.5263
 9694TIP3   OH250572   6.367   5.586   3.806  0.7139 -0.3375  0.4090
 9694TIP3    H150573   6.408   5.672   3.797  0.7334 -0.4530 -0.6900
 9694TIP3    H250574   6.390   5.540   3.726 -0.7202 -0.7708  0.2209
 9695TIP3   OH250575   5.108   1.140   1.913  0.5634 -0.3862  0.0005
 9695TIP3    H150576   5.159   1.072   1.869 -1.1594 -1.1632 -0.8910
 9695TIP3    H250577   5.034   1.093   1.952 -0.0685  0.8346  0.3245
 9696TIP3   OH250578   4.261   6.539  13.816 -0.6173 -0.5796 -0.2333
 9696TIP3    H150579   4.323   6.547  13.888  0.5613 -0.5104 -1.2311
 9696TIP3    H250580   4.189   6.486  13.852 -0.0868 -0.4839  1.0007
 9697TIP3   OH250581   3.676   4.130  11.820 -0.2989  0.2259  0.5893
 9697TIP3    H150582   3.729   4.207  11.840 -0.7614  1.1326 -1.4451
 9697TIP3    H250583   3.588   4.151  11.851 -1.3748  2.2343 -3.1584
 9698TIP3   OH250584   0.827   6.126   3.736 -0.4510  0.3188 -0.2051
 9698TIP3    H150585   0.845   6.048   3.789 -0.9181  0.2915 -0.0832
 9698TIP3    H250586   0.914   6.159   3.712 -0.2479 -0.8815 -1.1962
 9699TIP3   OH250587   5.173   2.116  12.102  0.0210  0.1502 -0.9220
 9699TIP3    H150588   5.253   2.063  12.101  1.1255  1.7219  0.1428
 9699TIP3    H250589   5.134   2.100  12.188  0.7211  1.5038 -0.3161
 9700TIP3   OH250590   5.843   0.101   1.222 -0.2313  0.4367  0.6421
 9700TIP3    H150591   5.901   0.147   1.282  1.5493 -0.6031 -0.1822
 9700TIP3    H250592   5.894   0.093   1.141 -2.1217  0.8266 -0.6601
 9701TIP3   OH250593   0.084   0.415   0.355 -0.8259 -0.4896  0.1028
 9701TIP3    H150594   0.002   0.461   0.374 -1.0857 -0.1278 -1.6786
 9701TIP3    H250595   0.147   0.450   0.418 -2.1845 -1.2945  1.9766
 9702TIP3   OH250596   1.752   5.471   4.785 -0.1579  0.0407 -0.0015
 9702TIP3    H150597   1.718   5.382   4.779 -0.5489  0.2048 -0.3095
 9702TIP3    H250598   1.733   5.498   4.875  1.6682 -0.8433  0.6872
 9703TIP3   OH250599   6.042   2.800  12.947  0.3121 -0.3835  0.1671
 9703TIP3    H150600   6.120   2.756  12.913  0.2296 -0.2640 -0.1832
 9703TIP3    H250601   5.971   2.737  12.934 -0.1814  0.5258 -2.1355
 9704TIP3   OH250602   5.306   3.807  15.737  0.0058 -0.2236 -0.5406
 9704TIP3    H150603   5.251   3.730  15.724  0.1632 -0.2479 -1.0929
 9704TIP3    H250604   5.358   3.786  15.815 -0.5520 -0.3233 -0.1929
 9705TIP3   OH250605   1.799   1.402   2.151  0.1239 -0.1268 -0.6528
 9705TIP3    H150606   1.844   1.360   2.078  0.1131 -0.5731 -0.4072
 9705TIP3    H250607   1.833   1.492   2.152  2.4459 -0.9309  0.6696
 9706TIP3   OH250608   6.440   5.116  10.412  0.2919 -0.3582 -0.3033
 9706TIP3    H150609   6.430   5.123  10.507  1.1047 -0.5122 -0.2018
 9706TIP3    H250610   6.490   5.036  10.399 -0.8287 -0.9862 -0.9369
 9707TIP3   OH250611   2.055   1.050   3.545  0.1915 -0.3343 -0.6647
 9707TIP3    H150612   2.129   1.012   3.594 -0.0732 -1.6703 -1.2566
 9707TIP3    H250613   1.979   1.034   3.601  0.2200  0.2093 -0.4723
 9708TIP3   OH250614   2.510   4.652  13.902  0.1970 -0.1276  0.4664
 9708TIP3    H150615   2.547   4.708  13.834 -0.4899 -2.0456 -1.6367
 9708TIP3    H250616   2.431   4.615  13.862 -0.0699 -1.5791  2.2070
 9709TIP3   OH250617   0.471   1.082  12.856  0.0033  0.7809 -0.1222
 9709TIP3    H150618   0.379   1.057  12.859  0.2381 -0.2528 -1.1048
 9709TIP3    H250619   0.509   1.029  12.786  1.3879  1.0651  0.3749
 9710TIP3   OH250620   2.385   5.243   4.608  0.1847  0.2561 -0.2210
 9710TIP3    H150621   2.365   5.230   4.701  2.4476 -0.1404  0.2670
 9710TIP3    H250622   2.308   5.211   4.562 -0.6231 -0.3842  1.4886
 9711TIP3   OH250623   3.985   4.916   2.787 -0.9152  0.1769 -0.3837
 9711TIP3    H150624   3.910   4.874   2.830 -0.0829 -0.7836  0.1731
 9711TIP3    H250625   3.969   5.010   2.798 -1.5865 -0.0248  0.5184
 9712TIP3   OH250626   5.989   6.579   3.984  0.5927 -0.5182  0.3046
 9712TIP3    H150627   5.965   6.498   3.938 -2.6645 -0.8572  2.2672
 9712TIP3    H250628   6.082   6.570   4.001  1.1506 -2.0489 -2.8221
 9713TIP3   OH250629   3.264   0.187  11.448 -0.6828  0.4794 -0.1236
 9713TIP3    H150630   3.233   0.225  11.366 -0.7359  2.2857  0.6941
 9713TIP3    H250631   3.202   0.218  11.514 -0.5573 -0.8291  0.6563
 9714TIP3   OH250632   4.370   6.518  14.074 -0.0169 -0.3480  0.5507
 9714TIP3    H150633   4.447   6.470  14.106  1.1320  0.1672 -1.3264
 9714TIP3    H250634   4.369   6.598  14.127 -0.0099 -0.9120  1.4304
 9715TIP3   OH250635   1.749   3.841   1.812  0.4375  0.8284  0.2424
 9715TIP3    H150636   1.788   3.886   1.886  1.3705 -1.3238  1.1448
 9715TIP3    H250637   1.672   3.798   1.848  1.0542 -0.4662  0.0625
 9716TIP3   OH250638   0.593   0.350  11.539 -0.0301 -0.3192  0.3853
 9716TIP3    H150639   0.552   0.384  11.460 -0.1049 -1.0095  0.1295
 9716TIP3    H250640   0.639   0.426  11.576 -1.3471  0.4203  0.5683
 9717TIP3   OH250641   6.431   2.237   4.274 -0.3603 -0.3992  0.0230
 9717TIP3    H150642   6.410   2.257   4.365 -0.7325 -0.6288 -0.0109
 9717TIP3    H250643   6.513   2.188   4.279  1.5689  2.5739 -0.0032
 9718TIP3   OH250644   0.431   0.501  14.229 -0.5639  0.8370 -0.1525
 9718TIP3    H150645   0.409   0.439  14.159 -0.7165  0.1769  0.4644
 9718TIP3    H250646   0.482   0.449  14.291 -2.1005  0.8715  1.2073
 9719TIP3   OH250647   4.296   3.455   3.851  0.2520  0.3452 -0.1398
 9719TIP3    H150648   4.346   3.388   3.897 -0.4358 -0.2229 -0.2164
 9719TIP3    H250649   4.275   3.520   3.919 -0.3169 -0.2332  0.2473
 9720TIP3   OH250650   5.286   3.316  15.386 -0.3002 -0.2550  0.3107
 9720TIP3    H150651   5.319   3.324  15.297 -1.5284 -1.9668 -0.3433
 9720TIP3    H250652   5.240   3.232  15.388 -1.6968  0.4687  2.1054
 9721TIP3   OH250653   1.883   0.074   5.197  0.4275 -0.0396  0.2497
 9721TIP3    H150654   1.919   0.016   5.264 -1.2521 -1.0474  0.3405
 9721TIP3    H250655   1.801   0.032   5.170  1.2001  0.1006 -2.7233
 9722TIP3   OH250656   4.766   0.019  10.154  0.0919 -0.1624 -0.2381
 9722TIP3    H150657   4.815  -0.051  10.198 -1.5170 -0.1831  1.6619
 9722TIP3    H250658   4.801   0.100  10.192 -0.4961 -0.1231  0.2341
 9723TIP3   OH250659   5.897   4.857  13.750  0.5533 -0.4374  0.2460
 9723TIP3    H150660   5.812   4.900  13.750  1.7469  2.1145 -0.9070
 9723TIP3    H250661   5.914   4.836  13.658  0.7538 -1.9061  0.5876
 9724TIP3   OH250662   4.753   6.623  12.298 -0.1900 -0.6015  0.3886
 9724TIP3    H150663   4.687   6.558  12.275 -0.8855 -0.4291  1.7775
 9724TIP3    H250664   4.837   6.579  12.281 -0.6279 -0.9088 -1.1438
 9725TIP3   OH250665   5.260   1.991  15.451 -0.3079  0.1762  0.2127
 9725TIP3    H150666   5.171   1.976  15.420  0.3240 -0.4281 -1.4067
 9725TIP3    H250667   5.249   2.023  15.541 -2.0689 -1.7826  0.7701
 9726TIP3   OH250668   5.862   3.901   0.433  0.3500  0.7410  0.3555
 9726TIP3    H150669   5.826   3.940   0.353 -0.6724 -2.0382 -0.6500
 9726TIP3    H250670   5.800   3.833   0.457  1.5656  0.3095  2.5287
 9727TIP3   OH250671   2.101   2.887  14.834  0.0718 -0.3282 -0.5006
 9727TIP3    H150672   2.150   2.927  14.762  0.3225 -0.3342 -0.3327
 9727TIP3    H250673   2.162   2.885  14.907 -0.1479 -0.4239 -0.3176
 9728TIP3   OH250674   2.321   4.708   5.513 -0.2547  0.5245 -0.1335
 9728TIP3    H150675   2.319   4.716   5.418 -0.4884  0.7533 -0.1107
 9728TIP3    H250676   2.330   4.798   5.545  0.9133  0.3649  0.0369
 9729TIP3   OH250677   5.380   4.412  10.901  0.1278  0.9516 -0.3974
 9729TIP3    H150678   5.316   4.346  10.876  0.6205  1.0336 -2.0249
 9729TIP3    H250679   5.375   4.416  10.996 -0.8891 -0.4308 -0.3600
 9730TIP3   OH250680   1.909   0.631  12.421 -0.4524 -0.1447 -0.0557
 9730TIP3    H150681   1.904   0.726  12.433 -0.7483 -0.1439 -0.1610
 9730TIP3    H250682   1.882   0.618  12.330  1.0642 -0.2026 -0.5104
 9731TIP3   OH250683   6.256   6.681  13.826  0.0210  0.0668  0.2046
 9731TIP3    H150684   6.329   6.640  13.779 -1.2702 -1.0203 -0.9391
 9731TIP3    H250685   6.221   6.746  13.765  0.7587  1.4664  1.2217
 9732TIP3   OH250686   4.358   2.465   6.208  0.0279  0.1075 -0.0701
 9732TIP3    H150687   4.453   2.475   6.213  0.3000 -2.3078  2.6042
 9732TIP3    H250688   4.346   2.373   6.184 -1.6435  0.3858 -0.3681
 9733TIP3   OH250689   1.308   4.992   5.538 -0.0915  0.1734 -0.3143
 9733TIP3    H150690   1.303   4.948   5.623  0.9716 -0.6226 -0.6477
 9733TIP3    H250691   1.369   5.065   5.552  1.0897 -0.7114 -0.6854
 9734TIP3   OH250692   5.625   0.355  12.584  0.6051 -0.2399  0.4671
 9734TIP3    H150693   5.667   0.421  12.639 -0.0758  1.1220 -0.5783
 9734TIP3    H250694   5.692   0.329  12.522  0.8894 -0.5859  0.9103
 9735TIP3   OH250695   1.700   6.147  16.759 -0.6135  0.2963 -0.3364
 9735TIP3    H150696   1.734   6.111  16.677  2.1479  2.1950 -0.1440
 9735TIP3    H250697   1.706   6.242  16.748 -1.3117  0.6178  1.6443
 9736TIP3   OH250698   5.182   0.449   6.164  0.0254  0.0782 -0.0669
 9736TIP3    H150699   5.222   0.394   6.098  0.2680 -0.3608  0.4375
 9736TIP3    H250700   5.096   0.471   6.129  1.1770  2.2382 -1.8565
 9737TIP3   OH250701   3.088   3.166  11.175  0.3346  0.3029  0.0941
 9737TIP3    H150702   3.056   3.150  11.086 -0.3974  0.6205  0.2972
 9737TIP3    H250703   3.078   3.082  11.220 -2.1435  0.8623  0.7361
 9738TIP3   OH250704   5.518   3.212  11.236 -0.5205  0.7014 -0.2647
 9738TIP3    H150705   5.516   3.290  11.290  0.6203  0.7233 -0.2348
 9738TIP3    H250706   5.527   3.245  11.146 -0.8650  0.6229 -0.3297
 9739TIP3   OH250707   4.550   1.027   0.314  0.4251 -0.2472 -0.2569
 9739TIP3    H150708   4.539   1.013   0.408  1.2034  1.1127  0.0693
 9739TIP3    H250709   4.616   0.964   0.287 -0.2337 -1.0544 -0.0379
 9740TIP3   OH250710   5.909   2.883   2.090 -0.0939 -0.0685 -0.8007
 9740TIP3    H150711   5.869   2.823   2.153  1.0209  0.7468  0.7463
 9740TIP3    H250712   5.902   2.838   2.006 -0.8345 -1.5888  0.0419
 9741TIP3   OH250713   5.695   0.538  13.309  0.7351  0.3339 -0.0787
 9741TIP3    H150714   5.725   0.532  13.218  0.4408  0.2394 -0.1696
 9741TIP3    H250715   5.775   0.551  13.360  0.9944 -0.5305 -0.2532
 9742TIP3   OH250716   6.187   5.895   2.310 -0.3720  0.2574  0.2268
 9742TIP3    H150717   6.139   5.909   2.228  0.8759 -0.3007 -0.6253
 9742TIP3    H250718   6.147   5.956   2.372 -0.7238  1.3664 -1.0462
 9743TIP3   OH250719   5.983   2.402  12.688 -0.2525  0.1904  0.7885
 9743TIP3    H150720   6.042   2.373  12.618  0.3058  0.3291  1.1983
 9743TIP3    H250721   5.896   2.370  12.661 -0.3980  1.8187 -0.9113
 9744TIP3   OH250722   3.327   3.306  15.261  0.4677 -0.0003  0.1850
 9744TIP3    H150723   3.361   3.238  15.203  0.8149  0.1093  0.2609
 9744TIP3    H250724   3.235   3.282  15.274  1.1288 -1.7112  1.9990
 9745TIP3   OH250725   5.697   2.448  11.785 -0.3801  0.1976 -0.0441
 9745TIP3    H150726   5.632   2.498  11.834 -0.8907 -0.6108  0.1207
 9745TIP3    H250727   5.651   2.422  11.704  0.3147  1.1521 -0.7712
 9746TIP3   OH250728   6.294   2.734   2.008 -0.1595 -0.0531 -0.2756
 9746TIP3    H150729   6.381   2.732   1.969  0.0825  0.0121  0.2461
 9746TIP3    H250730   6.239   2.777   1.942  0.3295  0.4489 -0.3716
 9747TIP3   OH250731   2.266   0.909  12.630 -0.0943 -0.0395  0.6483
 9747TIP3    H150732   2.181   0.947  12.608 -0.8067 -1.0756  1.4941
 9747TIP3    H250733   2.271   0.830  12.576  0.6754  0.4018  0.0564
 9748TIP3   OH250734   5.783   2.726  14.042 -0.5002  0.0342 -0.0236
 9748TIP3    H150735   5.805   2.644  14.086 -0.0488  0.5921  0.8372
 9748TIP3    H250736   5.773   2.703  13.950 -1.1416 -1.1180  0.3183
 9749TIP3   OH250737   5.110   2.270   2.302  0.3190  0.3869 -0.7045
 9749TIP3    H150738   5.045   2.306   2.362  1.2428  2.4541 -0.8289
 9749TIP3    H250739   5.193   2.280   2.349  0.7199 -0.9232 -1.0907
 9750TIP3   OH250740   1.159   2.652   1.521  0.5634 -0.9766  0.7439
 9750TIP3    H150741   1.211   2.727   1.549 -0.9702  0.4846 -0.1117
 9750TIP3    H250742   1.069   2.677   1.540 -0.2036 -1.5799 -1.7100
 9751TIP3   OH250743   4.845   1.161   3.703 -0.1999 -0.5812  0.2772
 9751TIP3    H150744   4.767   1.108   3.690 -0.2553 -0.5369  0.4256
 9751TIP3    H250745   4.846   1.181   3.797 -0.0501 -0.5218  0.2648
 9752TIP3   OH250746   4.266   6.360  13.181 -0.5900  0.3660  0.8560
 9752TIP3    H150747   4.253   6.355  13.086  1.4816  1.1305  0.4785
 9752TIP3    H250748   4.225   6.281  13.215 -2.1693  0.5163 -0.5543
 9753TIP3   OH250749   2.777   2.215  11.416  0.0519  0.6557  0.0814
 9753TIP3    H150750   2.766   2.310  11.402 -1.9423  0.7676  1.9019
 9753TIP3    H250751   2.732   2.175  11.342 -0.8962  1.1751  0.3556
 9754TIP3   OH250752   4.949   3.760   4.046 -0.6821  0.0894 -0.0618
 9754TIP3    H150753   5.008   3.690   4.074  0.2858  0.6952 -0.5437
 9754TIP3    H250754   4.914   3.730   3.963 -0.2587  0.1755 -0.2733
 9755TIP3   OH250755   3.788   5.451   1.639 -0.3590  0.1388 -0.2096
 9755TIP3    H150756   3.788   5.543   1.665  2.1568 -0.7012  3.7860
 9755TIP3    H250757   3.881   5.427   1.635 -0.9220 -2.2150 -1.2779
 9756TIP3   OH250758   4.103   6.179   6.715 -0.3375 -0.5483 -0.2244
 9756TIP3    H150759   4.026   6.168   6.658 -0.8122  1.5346 -0.0596
 9756TIP3    H250760   4.068   6.169   6.804 -0.0667 -1.3155 -0.1964
 9757TIP3   OH250761   0.805   3.514  12.980  0.4652  0.0716  0.2833
 9757TIP3    H150762   0.858   3.564  12.918 -0.3024  1.1438  0.4762
 9757TIP3    H250763   0.848   3.527  13.065  0.3339  0.3179  0.3134
 9758TIP3   OH250764   3.039   2.164   0.681  0.4939 -0.4590 -0.3727
 9758TIP3    H150765   2.991   2.242   0.707  1.2889  0.4166 -1.4205
 9758TIP3    H250766   3.020   2.100   0.750 -0.0675  0.6903  0.5864
 9759TIP3   OH250767   0.032   0.742  11.544  0.5524  0.6421 -0.0689
 9759TIP3    H150768   0.084   0.717  11.620  0.3710 -1.2145 -0.5105
 9759TIP3    H250769  -0.055   0.761  11.580  0.2421 -1.0257  0.1197
 9760TIP3   OH250770   4.376   4.590  15.145  0.1625 -0.3023  0.4262
 9760TIP3    H150771   4.340   4.677  15.124  1.7938 -0.0282 -1.5712
 9760TIP3    H250772   4.337   4.568  15.229 -1.6911  1.5820  0.1545
 9761TIP3   OH250773   2.853   2.808   3.936 -0.2054  0.0329  0.6782
 9761TIP3    H150774   2.874   2.722   3.900 -1.5000  0.3153 -0.8634
 9761TIP3    H250775   2.890   2.807   4.024  0.6172 -1.7456  0.3574
 9762TIP3   OH250776   5.318   3.481   2.364 -0.2119  0.1601 -0.5667
 9762TIP3    H150777   5.237   3.503   2.411 -0.3984 -1.7979  0.1049
 9762TIP3    H250778   5.298   3.401   2.316  0.7507  0.7474 -2.0314
 9763TIP3   OH250779   2.221   6.433   1.554  0.0555 -1.0370  0.0749
 9763TIP3    H150780   2.253   6.502   1.496 -1.8897  0.0686  0.2294
 9763TIP3    H250781   2.251   6.352   1.513  0.3396 -0.1930 -1.4565
 9764TIP3   OH250782   5.955   0.720  12.238  0.6235 -0.0529 -0.0864
 9764TIP3    H150783   5.982   0.694  12.326 -2.1313  1.5552  1.3686
 9764TIP3    H250784   5.949   0.816  12.241  1.8115  0.1803 -2.4919
 9765TIP3   OH250785   2.853   0.786  13.445  0.4891  0.0224 -0.3298
 9765TIP3    H150786   2.907   0.707  13.443  0.0921 -0.2403 -0.7864
 9765TIP3    H250787   2.905   0.851  13.399 -0.2743 -0.6873 -2.2940
 9766TIP3   OH250788   2.903   1.985   2.897 -0.0820  0.2720  0.4161
 9766TIP3    H150789   2.833   1.970   2.960 -0.9885  1.5073 -0.2629
 9766TIP3    H250790   2.858   2.005   2.815  1.0594 -1.0102 -0.5851
 9767TIP3   OH250791   0.153   1.346  10.628  0.0024 -0.6052  0.5840
 9767TIP3    H150792   0.195   1.323  10.545 -1.6116 -0.7379 -0.2364
 9767TIP3    H250793   0.184   1.279  10.690  0.7910 -0.8348 -0.0399
 9768TIP3   OH250794   5.031   4.677  13.308  0.0732 -0.2838 -0.0536
 9768TIP3    H150795   5.031   4.593  13.355  0.6309 -0.1597  0.1840
 9768TIP3    H250796   5.044   4.743  13.377 -1.0580  0.0645 -0.1451
 9769TIP3   OH250797   0.316   5.322  14.269 -0.3897  0.0953 -0.3949
 9769TIP3    H150798   0.271   5.405  14.252  1.1835  0.6716 -2.0333
 9769TIP3    H250799   0.253   5.255  14.240 -1.2022  0.7448 -0.1816
 9770TIP3   OH250800   6.616   6.818   5.109  0.1547 -0.1647  0.0361
 9770TIP3    H150801   6.620   6.793   5.016  0.5958 -2.8766  0.7162
 9770TIP3    H250802   6.586   6.739   5.154  0.1144  1.0373  2.2566
 9771TIP3   OH250803   5.923   3.064   1.709 -0.2241  0.1419  0.7334
 9771TIP3    H150804   5.951   3.078   1.800 -0.8938 -1.4208  1.2156
 9771TIP3    H250805   5.830   3.043   1.716 -0.3310  0.2117 -0.3575
 9772TIP3   OH250806   4.002   6.100  11.346  0.1233  0.0699  0.3907
 9772TIP3    H150807   4.090   6.088  11.311  0.0316 -3.6413  1.0469
 9772TIP3    H250808   3.945   6.058  11.281 -0.6924 -1.1334  1.8370
 9773TIP3   OH250809   5.945   5.663   0.759  0.1586 -0.0909  0.1453
 9773TIP3    H150810   6.020   5.603   0.758  0.5463  0.3842  0.2198
 9773TIP3    H250811   5.922   5.672   0.851 -0.2179 -0.5149  0.0929
 9774TIP3   OH250812   3.398   6.194  12.265 -0.1066  0.1446  0.5058
 9774TIP3    H150813   3.483   6.179  12.224  0.3237  0.3708  1.2986
 9774TIP3    H250814   3.406   6.279  12.308 -0.4682 -0.1763  1.2340
 9775TIP3   OH250815   0.915   3.001  14.297  0.0017  0.1081 -0.3923
 9775TIP3    H150816   0.984   3.032  14.356  1.2096  1.1515 -2.2489
 9775TIP3    H250817   0.884   3.081  14.254 -1.6322 -0.4911 -0.3816
 9776TIP3   OH250818   2.682   1.126  14.495 -0.1825  0.1021  0.2462
 9776TIP3    H150819   2.724   1.103  14.578 -1.6146 -0.6624  0.7887
 9776TIP3    H250820   2.724   1.069  14.431  0.3855  0.1396  0.5743
 9777TIP3   OH250821   4.064   2.139   4.286  0.5287  0.4995 -0.1700
 9777TIP3    H150822   4.115   2.220   4.287 -0.0813  0.8965 -0.1963
 9777TIP3    H250823   4.074   2.102   4.373 -0.2324  1.2863  0.2702
 9778TIP3   OH250824   1.752   0.203   3.189  0.4086 -0.0882  0.0249
 9778TIP3    H150825   1.715   0.119   3.162  1.3973 -0.7111  0.5404
 9778TIP3    H250826   1.810   0.227   3.117 -1.5580  1.3209 -1.1944
 9779TIP3   OH250827   6.629   0.697  14.435  0.5788  0.8000 -0.0328
 9779TIP3    H150828   6.723   0.697  14.449  0.4590  0.6608  0.8254
 9779TIP3    H250829   6.594   0.751  14.506 -0.2082 -1.3971  1.3611
 9780TIP3   OH250830   5.267   0.977   0.492 -0.2164 -0.4418  0.4740
 9780TIP3    H150831   5.292   1.017   0.409  1.7809 -0.7360  0.8831
 9780TIP3    H250832   5.176   0.953   0.480 -0.2505  0.3869 -1.2889
 9781TIP3   OH250833   6.767   1.838   4.737  0.1122  0.2344 -0.2245
 9781TIP3    H150834   6.696   1.774   4.738  1.3739 -1.3068 -1.8573
 9781TIP3    H250835   6.817   1.817   4.658  2.0686  1.6077  0.5667
 9782TIP3   OH250836   4.064   6.664   5.497  0.5663 -0.5879 -0.1306
 9782TIP3    H150837   3.983   6.621   5.524 -0.2162  0.3460 -0.9200
 9782TIP3    H250838   4.132   6.619   5.546 -0.4615 -1.1561  0.8257
 9783TIP3   OH250839   0.325   5.538  16.022  0.0254 -0.3364 -0.1065
 9783TIP3    H150840   0.314   5.458  15.971  1.1088 -2.0504  2.1745
 9783TIP3    H250841   0.409   5.527  16.066  0.0915  1.9857  0.4705
 9784TIP3   OH250842   1.010   1.083   3.723  0.4173 -0.7552  0.1247
 9784TIP3    H150843   0.928   1.122   3.692 -0.0961 -2.6617 -1.1026
 9784TIP3    H250844   1.058   1.062   3.643  1.7727 -0.3930  0.8188
 9785TIP3   OH250845   0.409   3.126   4.048 -0.7038 -0.2220  0.5186
 9785TIP3    H150846   0.412   3.109   3.954 -0.8948  0.0862  0.4540
 9785TIP3    H250847   0.355   3.205   4.056  3.3562  2.9263  0.4090
 9786TIP3   OH250848   5.360   6.828   6.488 -0.4503 -0.2377 -0.3105
 9786TIP3    H150849   5.413   6.834   6.408 -2.3618  0.6871 -1.5760
 9786TIP3    H250850   5.275   6.798   6.458 -1.5620  1.2369  1.2260
 9787TIP3   OH250851   1.314   2.743   4.679  0.1965  0.1742  0.5255
 9787TIP3    H150852   1.391   2.688   4.694  0.0621 -0.4660 -0.9868
 9787TIP3    H250853   1.244   2.682   4.656  0.4173  0.9230 -2.7150
 9788TIP3   OH250854   0.744   2.407   5.633 -0.5662 -0.0922  0.1359
 9788TIP3    H150855   0.815   2.470   5.619  0.0315 -0.7356  0.1693
 9788TIP3    H250856   0.665   2.460   5.635 -0.1077  0.6244 -0.1099
 9789TIP3   OH250857   0.861   4.289  13.804  0.3375  0.5482 -0.8787
 9789TIP3    H150858   0.899   4.223  13.863 -0.3446  0.7372 -0.2154
 9789TIP3    H250859   0.868   4.371  13.853  2.7557  1.3495 -2.3477
 9790TIP3   OH250860   2.298   4.479  15.041  0.0126 -0.3132 -0.2911
 9790TIP3    H150861   2.368   4.459  14.978  0.0224 -1.8318  0.1620
 9790TIP3    H250862   2.294   4.575  15.043  1.6184 -0.2085 -0.8305
 9791TIP3   OH250863   0.280   4.134   0.301  0.4417  0.4217 -0.4870
 9791TIP3    H150864   0.374   4.130   0.318  0.2157 -0.6168  0.7143
 9791TIP3    H250865   0.268   4.078   0.224  0.5959 -1.1295  0.5629
 9792TIP3   OH250866   3.229   5.337  11.755 -0.1139  0.0539  0.1701
 9792TIP3    H150867   3.255   5.328  11.663  1.9094 -1.4769  0.8300
 9792TIP3    H250868   3.133   5.344  11.752 -0.1398 -0.5151 -2.0120
 9793TIP3   OH250869   4.291   0.565   5.473  0.0020 -0.1957 -0.0432
 9793TIP3    H150870   4.302   0.532   5.384 -0.3144  0.4286 -0.3127
 9793TIP3    H250871   4.305   0.659   5.466 -0.8365 -0.0290  0.4259
 9794TIP3   OH250872   5.817   6.331   0.797 -0.2542  0.7689 -0.1502
 9794TIP3    H150873   5.818   6.372   0.884 -0.6258  0.7768 -0.1487
 9794TIP3    H250874   5.893   6.369   0.753 -0.1857  0.9279  0.0985
 9795TIP3   OH250875   5.507   0.279  13.790  0.5594 -0.5838 -0.2869
 9795TIP3    H150876   5.479   0.213  13.726  1.4698 -1.9325  0.6677
 9795TIP3    H250877   5.428   0.331  13.807  0.0919 -0.7389 -1.8414
 9796TIP3   OH250878   2.717   4.369   3.976 -0.5811 -0.0435 -0.2825
 9796TIP3    H150879   2.658   4.306   3.934 -1.2466 -0.2381  0.8822
 9796TIP3    H250880   2.674   4.390   4.059 -0.2741  1.8043 -0.5495
 9797TIP3   OH250881   4.315   2.408   5.376  0.5685  0.4055 -0.4009
 9797TIP3    H150882   4.257   2.445   5.443  1.3308 -0.6661  0.8871
 9797TIP3    H250883   4.327   2.480   5.313  0.8720  1.8992  1.2890
 9798TIP3   OH250884   0.756   5.621  16.625  0.2509  0.3581 -0.0375
 9798TIP3    H150885   0.840   5.601  16.583  0.6420 -1.3877  1.4275
 9798TIP3    H250886   0.691   5.572  16.575  0.5584 -0.8011  0.6720
 9799TIP3   OH250887   0.904   3.447  16.758 -0.3478 -0.1995  0.1935
 9799TIP3    H150888   0.970   3.451  16.689 -1.4301  0.4898 -0.8299
 9799TIP3    H250889   0.903   3.535  16.795  0.4207 -0.6352  1.3132
 9800TIP3   OH250890   1.387   6.608   4.054  0.3237  0.4966  0.1894
 9800TIP3    H150891   1.296   6.638   4.056  0.8335  2.0953  0.0368
 9800TIP3    H250892   1.389   6.538   4.120 -0.8950  0.7863  0.5720
 9801TIP3   OH250893   1.210   5.299   0.724  0.3612 -0.1608 -0.4465
 9801TIP3    H150894   1.201   5.263   0.636  2.0177 -0.3278 -0.5774
 9801TIP3    H250895   1.267   5.376   0.714 -0.5744  0.6632  0.2868
 9802TIP3   OH250896   1.049   5.503  16.761  0.0309  0.7869  0.3083
 9802TIP3    H150897   0.954   5.503  16.772 -0.1003 -0.2233 -0.6355
 9802TIP3    H250898   1.064   5.550  16.679  0.1947 -0.5047 -0.4324
 9803TIP3   OH250899   1.398   5.593   0.268  0.7160  0.1877  0.2121
 9803TIP3    H150900   1.381   5.564   0.358  1.0620 -1.2364 -0.1465
 9803TIP3    H250901   1.354   5.677   0.261  0.6552  0.3119  1.7065
 9804TIP3   OH250902   1.958   0.302   0.370 -0.4520 -0.4497  0.2567
 9804TIP3    H150903   1.972   0.321   0.462  0.4261  0.0226  0.0332
 9804TIP3    H250904   1.998   0.215   0.358 -0.3087 -0.3843  0.2584
 9805TIP3   OH250905   4.478   6.046  14.323 -0.2189 -0.2420 -0.4731
 9805TIP3    H150906   4.446   6.136  14.331  1.4539  0.2051  2.4424
 9805TIP3    H250907   4.568   6.055  14.291  0.5516 -0.7045  1.4688
 9806TIP3   OH250908   4.517   3.556  13.775  0.3069 -0.5246  0.0902
 9806TIP3    H150909   4.450   3.509  13.725 -1.0123 -0.9318  2.1186
 9806TIP3    H250910   4.517   3.644  13.737  0.1368 -1.0807 -1.2964
 9807TIP3   OH250911   5.022   1.873  10.948 -0.2900 -0.5138 -0.0545
 9807TIP3    H150912   5.087   1.804  10.932 -1.2831 -2.0901  2.1743
 9807TIP3    H250913   5.059   1.925  11.020 -0.7810 -0.4241  0.1337
 9808TIP3   OH250914   2.833   2.576   3.731 -0.7642  0.0152  0.8081
 9808TIP3    H150915   2.893   2.510   3.767  0.1149  1.1392  1.4664
 9808TIP3    H250916   2.821   2.549   3.640  1.1403  0.0121  0.5209
 9809TIP3   OH250917   5.093   4.420  15.309 -0.1510  0.0255 -0.1191
 9809TIP3    H150918   5.030   4.348  15.309 -0.1689  0.0298  1.1827
 9809TIP3    H250919   5.118   4.429  15.217 -0.5570 -1.2780 -0.3806
 9810TIP3   OH250920   4.153   1.752  15.693 -0.1687  0.4893  0.3805
 9810TIP3    H150921   4.211   1.681  15.664 -0.5970  0.2235  0.1657
 9810TIP3    H250922   4.185   1.775  15.780 -0.3056 -0.2817  0.6461
 9811TIP3   OH250923   2.782   6.775  13.605 -0.6411  0.2435 -0.5066
 9811TIP3    H150924   2.791   6.852  13.550 -0.6866 -0.0524 -0.9374
 9811TIP3    H250925   2.835   6.794  13.682  0.8057 -0.0019 -1.3905
 9812TIP3   OH250926   6.572   0.168   2.622  0.1554 -0.0532  0.4307
 9812TIP3    H150927   6.662   0.138   2.634  0.2011 -0.1723 -0.1957
 9812TIP3    H250928   6.581   0.258   2.589  0.1236 -0.9177 -2.1717
 9813TIP3   OH250929   4.476   1.585  11.125 -0.3013  0.4080 -0.0133
 9813TIP3    H150930   4.516   1.666  11.093 -0.8077 -0.6159 -3.6417
 9813TIP3    H250931   4.548   1.539  11.168  0.8739  1.3064 -0.9284
 9814TIP3   OH250932   3.926   5.179   2.497  0.0797 -0.7193  0.5084
 9814TIP3    H150933   4.012   5.168   2.456  0.8488  0.5574  1.7139
 9814TIP3    H250934   3.886   5.252   2.451 -0.1658 -1.0058  0.2649
 9815TIP3   OH250935   3.691   2.351   4.004 -0.2519 -0.6694  0.0441
 9815TIP3    H150936   3.656   2.385   4.086 -0.5661  0.3270 -0.4894
 9815TIP3    H250937   3.733   2.269   4.028  0.1232 -0.1331  1.2959
 9816TIP3   OH250938   3.148   0.763  14.158  1.0296  0.2022  0.3118
 9816TIP3    H150939   3.145   0.847  14.111 -1.5431  2.0009  3.2441
 9816TIP3    H250940   3.199   0.782  14.237 -1.5674 -0.0910  2.2164
 9817TIP3   OH250941   0.618   3.199   5.548 -0.0978  0.6035 -0.8385
 9817TIP3    H150942   0.533   3.220   5.510 -0.7627 -0.7837 -0.2039
 9817TIP3    H250943   0.673   3.175   5.473 -1.0601 -1.0197 -1.0764
 9818TIP3   OH250944   6.067   2.042   1.299  0.1940  0.3422 -0.3041
 9818TIP3    H150945   6.031   2.129   1.316  0.8726  0.8821 -1.4607
 9818TIP3    H250946   6.012   2.007   1.230 -0.7474 -0.6145  0.9048
 9819TIP3   OH250947   1.448   5.327   5.885  0.1185 -0.1052  0.1615
 9819TIP3    H150948   1.359   5.332   5.851 -0.1220 -0.1301  0.7873
 9819TIP3    H250949   1.471   5.417   5.905  0.6301  0.0423 -0.9805
 9820TIP3   OH250950   1.432   1.920  16.048 -0.5245  0.4839 -0.6232
 9820TIP3    H150951   1.423   1.894  16.140 -1.1818  2.7411  0.0091
 9820TIP3    H250952   1.434   1.837  16.000  0.5263 -0.7885  1.4540
 9821TIP3   OH250953   0.321   5.548   4.794 -0.0421 -0.4006 -0.6325
 9821TIP3    H150954   0.317   5.605   4.717 -1.1196  0.4703  0.0506
 9821TIP3    H250955   0.375   5.474   4.765  0.9125  0.6748 -1.7150
 9822TIP3   OH250956   6.278   3.430   4.379  0.0224  0.0888  0.4533
 9822TIP3    H150957   6.336   3.429   4.456  0.9445 -1.6235 -0.1934
 9822TIP3    H250958   6.215   3.360   4.397 -0.2887  0.2579  0.0260
 9823TIP3   OH250959   3.635   0.572   6.720 -0.3860  0.2743  0.3770
 9823TIP3    H150960   3.702   0.605   6.661 -0.4745 -0.4528 -0.1472
 9823TIP3    H250961   3.657   0.610   6.805  1.6463 -1.1701  0.5786
 9824TIP3   OH250962   5.597   6.421   5.831  0.2140  0.8897 -0.6211
 9824TIP3    H150963   5.692   6.412   5.837  0.1785  0.6419 -0.4050
 9824TIP3    H250964   5.563   6.338   5.865 -0.0916  1.2423 -0.0630
 9825TIP3   OH250965   0.973   5.101   1.806  0.2448  0.7321  0.1543
 9825TIP3    H150966   0.895   5.046   1.809  0.8792 -0.1433  1.5120
 9825TIP3    H250967   1.032   5.057   1.745  0.5423  0.1594  0.8375
 9826TIP3   OH250968   2.647   5.857  11.584 -0.4192  0.3648 -0.0326
 9826TIP3    H150969   2.699   5.795  11.636  0.9114  0.4377 -1.1964
 9826TIP3    H250970   2.661   5.829  11.493 -1.1483  1.3704 -0.4724
 9827TIP3   OH250971   2.342   1.724   1.581 -0.2779  0.4590  0.2776
 9827TIP3    H150972   2.377   1.781   1.649  0.1519  1.0820 -0.4517
 9827TIP3    H250973   2.404   1.732   1.508 -1.7156  1.3478 -0.9215
 9828TIP3   OH250974   1.431   4.280   2.686  0.0977  0.5079 -0.5425
 9828TIP3    H150975   1.512   4.245   2.721 -0.6242  1.2161  2.0691
 9828TIP3    H250976   1.454   4.365   2.649  0.7584  0.0931 -1.0919
 9829TIP3   OH250977   4.249   2.475   3.854  0.3836  0.1115 -0.1988
 9829TIP3    H150978   4.177   2.522   3.896 -0.0491  0.5414 -1.3850
 9829TIP3    H250979   4.254   2.512   3.766  1.6889 -0.3095 -0.3292
 9830TIP3   OH250980   5.486   5.318  15.312  0.3027 -0.0185  0.5979
 9830TIP3    H150981   5.542   5.334  15.236 -1.3048  2.4997 -0.1772
 9830TIP3    H250982   5.546   5.324  15.387  1.6301 -0.8788 -0.3445
 9831TIP3   OH250983   3.022   0.542  14.283 -0.0250  0.1835  0.5374
 9831TIP3    H150984   3.068   0.605  14.227 -1.0160  0.4824  0.0427
 9831TIP3    H250985   3.088   0.476  14.303  0.7998  0.9238  0.3625
 9832TIP3   OH250986   3.280   5.194   4.472 -0.2632 -0.7805 -0.0360
 9832TIP3    H150987   3.262   5.285   4.496  0.4019 -0.7992  0.5706
 9832TIP3    H250988   3.200   5.164   4.430 -0.3151  0.2388 -0.6947
 9833TIP3   OH250989   6.437   4.023  12.984  0.2481  0.2521 -0.0688
 9833TIP3    H150990   6.490   4.014  13.063  1.7684 -0.7428 -1.1460
 9833TIP3    H250991   6.370   3.955  12.991 -2.1888  2.6363  2.1523
 9834TIP3   OH250992   6.658   1.049   0.042  0.4828  0.4012 -0.5111
 9834TIP3    H150993   6.699   1.073   0.125  1.5077 -0.7068 -0.6767
 9834TIP3    H250994   6.614   0.966   0.060  0.1294  0.5001 -0.9032
 9835TIP3   OH250995   2.855   6.136  13.159  0.3451 -0.2854 -0.0865
 9835TIP3    H150996   2.802   6.057  13.153  1.7316 -1.2064 -0.7385
 9835TIP3    H250997   2.792   6.207  13.163 -0.9781 -1.1569 -3.0556
 9836TIP3   OH250998   5.798   5.821  12.214  0.5911  0.4339 -0.2226
 9836TIP3    H150999   5.769   5.876  12.287 -1.5640 -0.8344 -0.0369
 9836TIP3    H251000   5.873   5.773  12.249 -0.5690 -0.3520  1.3218
 9837TIP3   OH251001   0.423   1.873   0.647  0.9642 -0.0225 -1.3018
 9837TIP3    H151002   0.331   1.896   0.634  0.8997  0.7757  0.2484
 9837TIP3    H251003   0.467   1.958   0.658  1.4402 -0.4619  0.4595
 9838TIP3   OH251004   1.162   1.242   4.797  0.1399 -0.0583  0.1532
 9838TIP3    H151005   1.252   1.221   4.771  0.0456 -1.6761  1.0210
 9838TIP3    H251006   1.167   1.330   4.832  1.6755 -0.6335  1.4885
 9839TIP3   OH251007   0.413   2.050  13.034 -0.5790 -0.3612  0.5386
 9839TIP3    H151008   0.325   2.047  12.997 -1.0932 -0.8325  1.7259
 9839TIP3    H251009   0.434   1.959  13.054 -0.2664 -0.1471  1.2336
 9840TIP3   OH251010   3.405   3.937   5.564 -0.2321  0.1720 -0.4458
 9840TIP3    H151011   3.326   3.953   5.615  1.1201  1.9819  1.2650
 9840TIP3    H251012   3.385   3.970   5.477 -2.1603 -1.7429 -0.7857
 9841TIP3   OH251013   4.652   1.270   1.627 -0.1538  0.1410 -0.4402
 9841TIP3    H151014   4.631   1.216   1.551 -1.5948 -0.3706  0.2859
 9841TIP3    H251015   4.690   1.350   1.590 -1.4314  0.1841 -1.7584
 9842TIP3   OH251016   5.092   2.760   0.591  0.2856 -0.0905 -0.2208
 9842TIP3    H151017   5.186   2.746   0.581  0.1327 -0.7806 -0.8392
 9842TIP3    H251018   5.078   2.851   0.565  0.4743 -0.6758 -2.6475
 9843TIP3   OH251019   1.354   5.729  14.969 -0.0244  0.1484  0.1602
 9843TIP3    H151020   1.258   5.731  14.977 -0.2063 -3.8949  0.9374
 9843TIP3    H251021   1.386   5.773  15.047 -1.2189  1.3825 -0.0112
 9844TIP3   OH251022   6.605   0.993   1.710 -0.7889  0.0473  0.2434
 9844TIP3    H151023   6.586   1.036   1.627 -0.1936 -0.5732 -0.2306
 9844TIP3    H251024   6.669   0.925   1.688  0.7762  1.0226  1.4850
 9845TIP3   OH251025   6.003   5.271  16.739 -0.1636  0.2114 -0.0281
 9845TIP3    H151026   6.060   5.334  16.784  1.1732 -1.1082  0.1940
 9845TIP3    H251027   6.040   5.186  16.761 -2.7613 -0.7729  0.8470
 9846TIP3   OH251028   4.828   2.783   4.746  0.0415  0.0278 -0.0991
 9846TIP3    H151029   4.827   2.860   4.689  0.7837  0.1932  0.1051
 9846TIP3    H251030   4.832   2.818   4.835 -0.6649 -0.2368  0.0405
 9847TIP3   OH251031   2.550   0.588   4.534 -0.2026  0.2456  0.6260
 9847TIP3    H151032   2.588   0.572   4.621 -1.3887 -1.9358  0.8039
 9847TIP3    H251033   2.540   0.501   4.496  0.6709  1.1758 -1.9179
 9848TIP3   OH251034   5.408   4.009   2.332  0.1677  0.2495 -0.2015
 9848TIP3    H151035   5.446   3.934   2.377 -0.6358 -0.5187 -0.7751
 9848TIP3    H251036   5.387   4.071   2.402 -2.9588 -1.7278  0.8109
 9849TIP3   OH251037   2.018   0.741   6.613  0.3954  0.9076 -0.1075
 9849TIP3    H151038   2.021   0.700   6.700 -0.4630  0.9171 -0.0672
 9849TIP3    H251039   2.110   0.743   6.584  1.1072  3.3055  1.9064
 9850TIP3   OH251040   1.937   0.932  12.213  0.1733 -0.2692 -0.1587
 9850TIP3    H151041   1.863   0.982  12.180  0.4572  0.6087  0.5126
 9850TIP3    H251042   1.963   0.876  12.139 -0.1623  0.5422 -0.9027
 9851TIP3   OH251043   1.452   0.710   4.136 -0.0803  0.1360 -0.3540
 9851TIP3    H151044   1.416   0.636   4.088  0.2096 -0.7668  0.7765
 9851TIP3    H251045   1.504   0.758   4.071 -1.3117  0.0894 -1.4026
 9852TIP3   OH251046   1.568   6.811  12.482 -0.5979 -0.7850 -0.4812
 9852TIP3    H151047   1.648   6.799  12.533 -1.4345 -1.8026  0.6272
 9852TIP3    H251048   1.579   6.755  12.405  1.3168  1.8710 -2.3131
 9853TIP3   OH251049   4.115   4.119  14.820  0.3468  0.9097 -0.2712
 9853TIP3    H151050   4.208   4.120  14.797 -0.2470 -1.3311 -3.4474
 9853TIP3    H251051   4.093   4.027  14.829 -1.3463  1.4452  1.7357
 9854TIP3   OH251052   6.305   3.469   2.572  0.4821 -0.0102 -0.1461
 9854TIP3    H151053   6.286   3.386   2.617 -0.4880 -0.6584 -1.6830
 9854TIP3    H251054   6.398   3.484   2.589  0.2589 -0.4209  1.7151
 9855TIP3   OH251055   0.721   2.352   5.351 -0.4080 -0.7018  0.2796
 9855TIP3    H151056   0.712   2.366   5.445 -0.4009  1.3567  0.0141
 9855TIP3    H251057   0.673   2.270   5.334 -1.7898 -0.2633  1.8234
 9856TIP3   OH251058   6.758   0.649   0.925 -0.6453 -0.4146 -0.5757
 9856TIP3    H151059   6.685   0.634   0.865 -1.2883 -0.2512  0.1491
 9856TIP3    H251060   6.733   0.728   0.973  1.3131  1.3568 -2.2692
 9857TIP3   OH251061   0.892   1.180   4.134 -0.1765  0.2765  0.1585
 9857TIP3    H151062   0.827   1.179   4.205 -1.4787  2.2668 -0.9002
 9857TIP3    H251063   0.840   1.166   4.054  0.6318  2.1207 -0.7421
 9858TIP3   OH251064   0.358   0.884   5.848  0.1624 -0.6633  0.5609
 9858TIP3    H151065   0.320   0.849   5.928  0.7186 -1.9596  0.2773
 9858TIP3    H251066   0.449   0.853   5.848  0.0647 -1.0227 -0.7619
 9859TIP3   OH251067   4.261   4.636   3.319 -0.6916 -0.3785  0.3743
 9859TIP3    H151068   4.174   4.645   3.281 -1.1490 -0.5945  1.3192
 9859TIP3    H251069   4.250   4.668   3.409  0.2476 -0.2411  0.4435
 9860TIP3   OH251070   4.852   0.861   5.536 -0.5423  0.0975  0.3584
 9860TIP3    H151071   4.862   0.794   5.604 -0.5008 -0.2462  0.0209
 9860TIP3    H251072   4.938   0.865   5.494 -0.6897 -0.0083  0.0413
 9861TIP3   OH251073   6.150   0.107  13.269 -0.0926  0.1672  0.5050
 9861TIP3    H151074   6.100   0.131  13.347 -0.6272 -0.4650  0.3656
 9861TIP3    H251075   6.095   0.134  13.196 -0.5298 -1.1036  0.3482
 9862TIP3   OH251076   4.551   2.701  16.359  0.0696 -0.1654  0.0628
 9862TIP3    H151077   4.564   2.677  16.451 -1.4496  0.5124  0.4754
 9862TIP3    H251078   4.512   2.624  16.319 -2.1374  0.5225  0.7348
 9863TIP3   OH251079   0.981   0.456   1.034  0.1549 -0.3447  0.2576
 9863TIP3    H151080   0.965   0.444   0.941  1.6956  0.1230 -0.0831
 9863TIP3    H251081   1.040   0.384   1.058  1.1185  0.5147  0.4950
 9864TIP3   OH251082   4.414   3.840   4.125 -0.2138 -0.4572  0.3167
 9864TIP3    H151083   4.451   3.885   4.202 -0.4210  1.5767 -0.6983
 9864TIP3    H251084   4.490   3.819   4.071 -0.1888 -0.3752  0.3191
 9865TIP3   OH251085   5.764   1.081   0.032 -0.9101  0.1096  0.3958
 9865TIP3    H151086   5.771   0.987   0.018 -0.6035  0.3540 -1.4075
 9865TIP3    H251087   5.800   1.119  -0.048  1.3263  1.8204  2.0837
 9866TIP3   OH251088   2.470   3.216  13.502 -0.0144 -0.6107 -0.6269
 9866TIP3    H151089   2.484   3.153  13.574  1.0872  0.4025  0.0758
 9866TIP3    H251090   2.429   3.164  13.433  0.1562 -1.9285  0.2252
 9867TIP3   OH251091   5.790   3.573   5.886 -0.4569 -0.2628  0.1599
 9867TIP3    H151092   5.857   3.505   5.896  0.4538  0.4861 -0.6733
 9867TIP3    H251093   5.710   3.532   5.919  0.5774 -0.8510  2.0768
 9868TIP3   OH251094   5.402   1.407   1.274 -0.0135 -0.1612  0.4628
 9868TIP3    H151095   5.440   1.453   1.349 -1.1467 -0.2784  1.1321
 9868TIP3    H251096   5.398   1.316   1.302  0.9313 -0.4598 -0.3253
 9869TIP3   OH251097   0.545   4.624  15.398 -0.2918 -0.1839 -0.3215
 9869TIP3    H151098   0.615   4.689  15.402  0.3653 -0.8561 -0.7111
 9869TIP3    H251099   0.475   4.668  15.350 -0.1889  0.5253  0.1492
 9870TIP3   OH251100   0.954   2.057   0.578 -0.3498  0.1299  0.0810
 9870TIP3    H151101   0.886   1.994   0.602 -1.0984  0.4476 -1.1011
 9870TIP3    H251102   0.963   2.046   0.483  1.4934 -0.1336  0.2554
 9871TIP3   OH251103   2.431   2.042   4.634  0.2864 -0.5438 -0.3842
 9871TIP3    H151104   2.348   1.999   4.652 -0.2758  1.2922  1.8656
 9871TIP3    H251105   2.420   2.081   4.547 -0.9134 -0.9720 -0.4350
 9872TIP3   OH251106   0.570   0.624  14.532 -0.5548  0.0244 -0.1441
 9872TIP3    H151107   0.619   0.547  14.504 -0.8894 -0.4888  0.6505
 9872TIP3    H251108   0.637   0.687  14.558 -0.2598 -0.9998  1.8159
 9873TIP3   OH251109   2.016   0.531  12.797  0.1185  0.5259  0.1044
 9873TIP3    H151110   2.039   0.474  12.870 -2.1819  0.6073  0.9503
 9873TIP3    H251111   2.090   0.592  12.790  0.9889 -0.3216  1.4473
 9874TIP3   OH251112   4.643   2.794   4.284 -0.4849 -0.5873 -0.1892
 9874TIP3    H151113   4.581   2.866   4.296  0.9304  0.3755  1.9155
 9874TIP3    H251114   4.596   2.716   4.314 -0.9401  0.0017  0.6674
 9875TIP3   OH251115   1.382   4.013   0.220 -0.3426  0.1776  0.1898
 9875TIP3    H151116   1.385   3.984   0.128 -1.0384 -0.9070  0.4857
 9875TIP3    H251117   1.289   4.013   0.242 -0.1690  0.2694  0.9506
 9876TIP3   OH251118   0.377   0.069  12.390  0.1784  0.0379 -0.1107
 9876TIP3    H151119   0.442   0.126  12.431  1.3930 -1.4769  0.1961
 9876TIP3    H251120   0.371  -0.006  12.449  1.3053 -1.7922 -2.1766
 9877TIP3   OH251121   5.618   6.485  13.377  0.4098 -0.0437  0.1184
 9877TIP3    H151122   5.526   6.510  13.373  0.8067  1.4043 -1.5251
 9877TIP3    H251123   5.665   6.565  13.354  1.9874 -1.2429 -1.0567
 9878TIP3   OH251124   2.665   6.441   2.088 -1.0173 -0.2046  0.3848
 9878TIP3    H151125   2.754   6.472   2.108 -0.7116 -1.0394  0.3351
 9878TIP3    H251126   2.653   6.461   1.996 -1.1906  0.6389  0.5772
 9879TIP3   OH251127   4.532   2.299   3.239 -0.3374 -0.3960 -0.2798
 9879TIP3    H151128   4.494   2.265   3.158  0.6758 -1.5544 -0.2926
 9879TIP3    H251129   4.582   2.375   3.211 -2.8668  1.4199 -0.2080
 9880TIP3   OH251130   4.496   5.606  15.444  0.5875  0.5383  0.1755
 9880TIP3    H151131   4.586   5.637  15.437  0.4532  1.2580  1.2752
 9880TIP3    H251132   4.487   5.577  15.535  0.4951 -2.1886 -0.6385
 9881TIP3   OH251133   3.126   3.198   1.551 -0.0250 -0.0489  0.4413
 9881TIP3    H151134   3.113   3.290   1.573  0.0915 -0.2971  1.6218
 9881TIP3    H251135   3.038   3.162   1.540 -0.0518  0.4220 -1.0564
 9882TIP3   OH251136   0.600   2.893   0.875  0.4233 -0.0049  0.6797
 9882TIP3    H151137   0.530   2.828   0.879  1.9401 -1.7516  0.1894
 9882TIP3    H251138   0.618   2.904   0.781  0.9680  0.2504  0.8089
 9883TIP3   OH251139   4.122   2.457  13.045 -0.0968 -0.4339 -0.2874
 9883TIP3    H151140   4.051   2.459  13.109 -0.0981  0.2915 -0.3059
 9883TIP3    H251141   4.167   2.374  13.061 -0.0433 -0.2190  0.7142
 9884TIP3   OH251142   0.755   5.786  14.096 -0.5692 -0.0485  0.7665
 9884TIP3    H151143   0.762   5.806  14.189  1.5064  1.1655  0.4169
 9884TIP3    H251144   0.836   5.739  14.075 -0.9073 -0.1326 -0.4725
 9885TIP3   OH251145   1.957   3.445  13.414  0.2207  0.4866  0.3568
 9885TIP3    H151146   1.997   3.530  13.430  0.5300  0.5082 -0.4790
 9885TIP3    H251147   1.948   3.406  13.501  0.9296  0.9819  0.6616
 9886TIP3   OH251148   0.514   4.277  12.365 -0.7444  0.2669  1.2717
 9886TIP3    H151149   0.459   4.287  12.443 -0.7666 -0.9873  1.4427
 9886TIP3    H251150   0.542   4.185  12.367  0.9238  0.7216  0.8986
 9887TIP3   OH251151   3.602   2.211   3.178  0.0192  0.3358  0.0991
 9887TIP3    H151152   3.634   2.187   3.091 -0.5198  1.6124 -0.4814
 9887TIP3    H251153   3.666   2.275   3.211 -1.3837  2.2753 -0.7276
 9888TIP3   OH251154   2.655   5.344   2.090  0.3655  0.3320  0.3428
 9888TIP3    H151155   2.726   5.283   2.107  0.4333 -0.2009 -1.5972
 9888TIP3    H251156   2.586   5.318   2.151  0.7381 -1.1267  0.1954
 9889TIP3   OH251157   6.046   5.911   4.187 -0.3557  0.4017  0.2103
 9889TIP3    H151158   6.138   5.896   4.165  0.0901  0.9968  1.5813
 9889TIP3    H251159   6.045   5.920   4.283 -1.8754  0.1660  0.2432
 9890TIP3   OH251160   5.554   1.827  12.176  0.2038 -0.2542 -0.1319
 9890TIP3    H151161   5.538   1.822  12.082 -0.8162  1.8700 -0.1337
 9890TIP3    H251162   5.594   1.743  12.198 -0.2818 -1.1281 -2.3007
 9891TIP3   OH251163   0.656   6.504  13.744  0.1488  0.2747 -0.4665
 9891TIP3    H151164   0.733   6.530  13.795 -0.5307  0.4244  0.5084
 9891TIP3    H251165   0.616   6.586  13.716 -0.8971  0.2800  0.9466
 9892TIP3   OH251166   6.816   1.637  13.310  0.6346  0.2149 -0.4732
 9892TIP3    H151167   6.869   1.705  13.268 -0.2264  0.6529 -0.8891
 9892TIP3    H251168   6.849   1.555  13.272  0.3217  0.5556 -1.5264
 9893TIP3   OH251169   0.699   0.739  10.453  0.0238 -0.2083  0.3747
 9893TIP3    H151170   0.614   0.729  10.409  0.4140 -0.1223 -0.4195
 9893TIP3    H251171   0.706   0.662  10.510 -0.9018  0.1533  0.9974
 9894TIP3   OH251172   3.893   1.935  12.397  0.5805  0.1192 -0.2639
 9894TIP3    H151173   3.982   1.935  12.431  0.2017  1.9713  0.8795
 9894TIP3    H251174   3.837   1.945  12.474 -0.6322 -0.8586 -0.9759
 9895TIP3   OH251175   1.282   1.553  12.747  0.2524 -0.0832  0.4866
 9895TIP3    H151176   1.235   1.552  12.831 -0.4154 -1.1684  0.1149
 9895TIP3    H251177   1.367   1.513  12.767  0.3033  0.1504  0.7534
 9896TIP3   OH251178   6.637   6.073   1.196 -0.1486  0.4504 -0.3774
 9896TIP3    H151179   6.558   6.019   1.184  0.8286 -1.4240  1.0801
 9896TIP3    H251180   6.694   6.048   1.123 -1.1259  2.4239 -1.9271
 9897TIP3   OH251181   5.423   1.876  16.068 -0.0584 -0.0097 -0.1722
 9897TIP3    H151182   5.405   1.789  16.032  2.0651 -1.2156  1.4325
 9897TIP3    H251183   5.411   1.866  16.162 -0.3168  1.5996 -0.0095
 9898TIP3   OH251184   1.842   2.450  11.628  0.1673 -0.7066  0.1002
 9898TIP3    H151185   1.877   2.495  11.705 -1.6181  0.1633  0.4398
 9898TIP3    H251186   1.868   2.358  11.639  2.2010 -0.1416  0.3723
 9899TIP3   OH251187   3.982   5.795  16.224 -0.3347  0.3296 -0.4799
 9899TIP3    H151188   3.903   5.848  16.215  0.5142  1.6428 -0.5486
 9899TIP3    H251189   4.054   5.856  16.204  0.6830 -0.8698 -0.6079
 9900TIP3   OH251190   3.021   6.515  13.859 -0.2286  0.3246  0.1105
 9900TIP3    H151191   3.055   6.463  13.786 -0.7836 -0.1403  0.1736
 9900TIP3    H251192   3.098   6.558  13.895  0.1707 -0.0616 -0.2621
 9901TIP3   OH251193   6.067   1.403  16.848 -0.2863  0.5500 -0.1384
 9901TIP3    H151194   6.049   1.345  16.922 -1.8894 -1.0834 -1.6871
 9901TIP3    H251195   6.107   1.481  16.887 -1.2059 -0.1642  2.4442
 9902TIP3   OH251196   1.097   2.229  14.406 -0.6510 -0.2690  0.2539
 9902TIP3    H151197   1.059   2.301  14.457 -0.8006  0.9686 -1.4910
 9902TIP3    H251198   1.021   2.176  14.381 -0.9959  0.8291 -1.1704
 9903TIP3   OH251199   1.876   5.659  15.800 -0.1661  0.2755  0.7759
 9903TIP3    H151200   1.887   5.571  15.836 -0.0733  0.4346  1.1372
 9903TIP3    H251201   1.787   5.659  15.764  1.0758 -1.2098 -2.7036
 9904TIP3   OH251202   4.904   1.826   6.018 -0.0930  0.3324  0.0854
 9904TIP3    H151203   4.875   1.739   6.045 -0.7216 -0.0344 -1.6322
 9904TIP3    H251204   4.869   1.885   6.083 -2.7084 -0.3527 -0.6019
 9905TIP3   OH251205   5.851   5.335   1.837 -0.3775  0.6181  0.3140
 9905TIP3    H151206   5.870   5.425   1.861  1.9671  0.4958 -0.8386
 9905TIP3    H251207   5.873   5.330   1.744  2.2535 -1.7864  0.9389
 9906TIP3   OH251208   4.812   0.276   2.333 -0.1874  0.1307 -0.0904
 9906TIP3    H151209   4.858   0.321   2.403 -0.0128  0.3945 -0.3711
 9906TIP3    H251210   4.865   0.292   2.255 -0.2348 -0.3826 -0.2349
 9907TIP3   OH251211   2.201   6.282  11.306  0.1630 -0.3359 -0.2852
 9907TIP3    H151212   2.296   6.288  11.318  0.1494  0.3250 -0.4613
 9907TIP3    H251213   2.185   6.190  11.285  0.9915 -0.1217 -2.0562
 9908TIP3   OH251214   4.015   4.382  10.953  0.3625 -0.1134 -0.0180
 9908TIP3    H151215   3.957   4.322  11.001  1.8750 -0.2141  1.8111
 9908TIP3    H251216   3.975   4.468  10.964  0.7987 -0.0953  1.7293
 9909TIP3   OH251217   5.845   5.591   5.804 -0.2239  0.7964  0.0943
 9909TIP3    H151218   5.888   5.677   5.800 -0.8716  1.1175 -0.0061
 9909TIP3    H251219   5.799   5.584   5.721 -1.5176  1.0638  0.7706
 9910TIP3   OH251220   6.272   3.495  14.806 -0.0068 -0.3464  0.2423
 9910TIP3    H151221   6.278   3.421  14.745  0.5350 -0.4992  0.4748
 9910TIP3    H251222   6.178   3.512  14.812 -0.0232  0.2680 -1.3253
 9911TIP3   OH251223   2.066   5.211   1.624 -0.6697  0.0250  0.4636
 9911TIP3    H151224   2.053   5.299   1.589  0.8655  0.1082  0.0355
 9911TIP3    H251225   2.075   5.223   1.719 -1.1677  0.2373  0.4848
 9912TIP3   OH251226   5.612   5.227  14.412  0.0393 -0.3199  0.3083
 9912TIP3    H151227   5.663   5.288  14.465  0.5896 -0.0537 -0.5044
 9912TIP3    H251228   5.529   5.272  14.396  0.0017 -0.2636  0.6593
 9913TIP3   OH251229   0.546   6.281   2.372 -0.7720 -0.0062  0.4692
 9913TIP3    H151230   0.576   6.259   2.460  0.0973  0.2969  0.2633
 9913TIP3    H251231   0.574   6.207   2.318  0.9612  0.9241  0.0154
 9914TIP3   OH251232   0.740   5.144  11.403  0.0819  0.2889  0.2446
 9914TIP3    H151233   0.770   5.185  11.484  1.6177 -0.1480 -0.0706
 9914TIP3    H251234   0.809   5.083  11.380  0.7382  1.9136 -2.5599
 9915TIP3   OH251235   4.647   5.403   4.200  0.2769 -0.5215 -0.0608
 9915TIP3    H151236   4.623   5.319   4.162  0.2086 -0.6389  0.2362
 9915TIP3    H251237   4.609   5.468   4.141 -0.7059 -0.7053  0.3481
 9916TIP3   OH251238   4.684   4.148   1.927 -0.0058  0.5342 -0.0316
 9916TIP3    H151239   4.770   4.178   1.957  0.1804 -0.1508  0.1469
 9916TIP3    H251240   4.664   4.204   1.853  1.7446 -0.8764 -1.6766
 9917TIP3   OH251241   2.125   2.192  10.539  0.2320  0.2477 -0.0051
 9917TIP3    H151242   2.062   2.260  10.565  1.1574  0.3516  2.2308
 9917TIP3    H251243   2.129   2.198  10.444 -2.4626  0.8150 -0.1729
 9918TIP3   OH251244   0.633   2.931  17.002  0.1597 -0.0135  0.5556
 9918TIP3    H151245   0.547   2.972  16.994  0.3633  0.3952  0.4502
 9918TIP3    H251246   0.676   2.948  16.918  0.2895 -0.3412  0.5532
 9919TIP3   OH251247   4.689   6.088   5.115  0.1639  0.0227  0.0744
 9919TIP3    H151248   4.656   6.176   5.134  0.3553 -0.3393  2.4104
 9919TIP3    H251249   4.718   6.055   5.200  1.7824 -1.6231 -1.0536
 9920TIP3   OH251250   5.715   0.131  10.424 -0.2297 -0.2082 -0.0940
 9920TIP3    H151251   5.671   0.083  10.353 -0.5982  0.5281 -0.3834
 9920TIP3    H251252   5.649   0.195  10.452 -0.2547 -0.7990  1.2394
 9921TIP3   OH251253   5.228   6.721  11.434 -0.0415 -0.3286  0.2072
 9921TIP3    H151254   5.159   6.763  11.486 -0.1295 -0.2676  0.0435
 9921TIP3    H251255   5.207   6.745  11.343  0.3863 -0.0261  0.1811
 9922TIP3   OH251256   1.400   6.184  13.177 -0.6933  0.6166 -0.0622
 9922TIP3    H151257   1.338   6.135  13.232  0.9493  0.7892  2.1018
 9922TIP3    H251258   1.406   6.132  13.096 -2.6934 -0.0382  0.1492
 9923TIP3   OH251259   5.049   2.203  14.941  0.1886 -0.1357 -0.4848
 9923TIP3    H151260   5.143   2.224  14.943  0.3451 -0.5901  2.4863
 9923TIP3    H251261   5.007   2.287  14.926  1.0427  0.2513 -0.8243
 9924TIP3   OH251262   0.877   3.651  14.032 -0.2134 -0.0279 -0.2573
 9924TIP3    H151263   0.922   3.568  14.016  0.7619  0.7257 -1.6025
 9924TIP3    H251264   0.945   3.711  14.062 -0.6869  0.5897 -0.3830
 9925TIP3   OH251265   6.168   3.925   5.752  0.2345  0.5006  0.3056
 9925TIP3    H151266   6.139   3.935   5.843  1.4031  0.3292  0.7210
 9925TIP3    H251267   6.198   3.835   5.746 -0.6799  0.2309 -0.5298
 9926TIP3   OH251268   4.998   0.310  10.534 -0.0118  0.1629 -0.2751
 9926TIP3    H151269   4.944   0.326  10.611  0.0934 -0.1961 -0.1254
 9926TIP3    H251270   4.935   0.302  10.462 -0.0362  1.9737 -0.4951
 9927TIP3   OH251271   2.164   4.544  13.273  0.5700 -0.1345  0.0560
 9927TIP3    H151272   2.235   4.606  13.289 -0.1175  0.5688  0.4643
 9927TIP3    H251273   2.154   4.542  13.178 -0.6680  1.8819  0.0897
 9928TIP3   OH251274   2.703   4.677   0.029  0.0517 -0.5157  0.0853
 9928TIP3    H151275   2.771   4.610   0.029  0.1740 -0.5525  3.3230
 9928TIP3    H251276   2.750   4.759   0.039 -0.2139 -0.0556 -1.9943
 9929TIP3   OH251277   3.564   5.588   1.753  0.2060  0.3499  0.4307
 9929TIP3    H151278   3.621   5.635   1.692  2.9058 -0.9861  1.7917
 9929TIP3    H251279   3.476   5.619   1.731  1.3321  2.0229 -2.2122
 9930TIP3   OH251280   1.527   0.040   5.950  0.1510 -0.4923  0.3997
 9930TIP3    H151281   1.433   0.055   5.950  0.1626 -0.2320 -1.2432
 9930TIP3    H251282   1.558   0.077   6.033 -1.3226 -1.6702  1.5285
 9931TIP3   OH251283   0.114   1.253   2.090  0.4346  0.5675  0.1000
 9931TIP3    H151284   0.028   1.286   2.064  1.5984  2.0186 -2.2357
 9931TIP3    H251285   0.153   1.324   2.142  1.1507  0.9827 -0.9732
 9932TIP3   OH251286   5.406   0.712   6.894 -0.6438 -0.4987  0.5861
 9932TIP3    H151287   5.421   0.750   6.807  0.7594 -0.8093  0.6748
 9932TIP3    H251288   5.323   0.665   6.885 -1.6473  1.2872  0.0483
 9933TIP3   OH251289   0.151   1.438  12.485  0.2362  0.4991  0.1012
 9933TIP3    H151290   0.192   1.377  12.546 -1.3143 -0.5511  0.1446
 9933TIP3    H251291   0.132   1.515  12.537 -1.5616 -0.5889  1.1350
 9934TIP3   OH251292   5.343   3.309   5.970  0.1273 -0.1239  0.2013
 9934TIP3    H151293   5.384   3.236   6.017  1.1794  0.1204 -0.2994
 9934TIP3    H251294   5.312   3.271   5.888 -2.8008 -0.8238  1.4941
 9935TIP3   OH251295   4.224   2.449   1.994 -0.5331 -0.1536 -0.0986
 9935TIP3    H151296   4.199   2.439   2.086  0.2858 -2.2076 -0.0524
 9935TIP3    H251297   4.302   2.504   1.995 -0.2150 -0.6065  0.5033
 9936TIP3   OH251298   2.122   4.204   2.095 -0.2662 -0.0282 -0.6607
 9936TIP3    H151299   2.122   4.233   2.186  0.1000 -1.7016 -0.1002
 9936TIP3    H251300   2.154   4.114   2.098 -0.4146 -0.1771 -2.4316
 9937TIP3   OH251301   1.146   5.544  10.997 -0.0309 -0.2197  0.3205
 9937TIP3    H151302   1.224   5.553  10.942  0.1770 -1.0915  0.4543
 9937TIP3    H251303   1.146   5.452  11.023 -1.3764 -0.3597 -0.0791
 9938TIP3   OH251304   1.230   6.703   6.601 -0.3203  0.3651  0.1402
 9938TIP3    H151305   1.232   6.799   6.598 -0.0867  0.4689  1.9612
 9938TIP3    H251306   1.208   6.676   6.512 -1.4393  2.1392 -0.1804
 9939TIP3   OH251307   0.891   4.732  17.039 -0.3605 -0.4327  0.7745
 9939TIP3    H151308   0.910   4.686  16.957  1.1263  0.7059  0.4268
 9939TIP3    H251309   0.796   4.733  17.044 -0.7329  2.1202 -2.5870
 9940TIP3   OH251310   6.729   4.076  14.848 -0.4403  0.3108  0.1263
 9940TIP3    H151311   6.819   4.102  14.827 -0.5526 -0.1395 -0.9380
 9940TIP3    H251312   6.693   4.151  14.896  0.8283  0.0745  1.5298
 9941TIP3   OH251313   3.852   3.768   2.082 -0.4642  0.1523  0.2918
 9941TIP3    H151314   3.805   3.822   2.146 -2.5016 -0.7544 -0.3555
 9941TIP3    H251315   3.878   3.830   2.013 -1.7813  0.5030  0.0906
 9942TIP3   OH251316   1.774   2.063   0.336  0.5974  0.2465 -0.4519
 9942TIP3    H151317   1.734   1.984   0.371 -0.2966  1.0296  0.3511
 9942TIP3    H251318   1.846   2.032   0.281 -0.1751 -1.1349 -0.7097
 9943TIP3   OH251319   4.456   3.127  11.468  0.9285  0.3222 -0.6716
 9943TIP3    H151320   4.392   3.153  11.402  0.9819  0.0729 -0.8230
 9943TIP3    H251321   4.469   3.205  11.521  0.8129  0.4938 -0.8971
 9944TIP3   OH251322   6.477   6.151   2.813 -0.3404 -0.3033 -0.0972
 9944TIP3    H151323   6.477   6.055   2.809 -0.3635 -0.2555 -1.8667
 9944TIP3    H251324   6.385   6.175   2.802 -0.0386 -0.0448 -2.6158
 9945TIP3   OH251325   4.148   0.439  13.724  0.5148  0.2161 -0.6104
 9945TIP3    H151326   4.095   0.365  13.694  1.6762 -0.7287 -0.4353
 9945TIP3    H251327   4.085   0.501  13.759 -0.6630  0.1757 -2.5195
 9946TIP3   OH251328   4.223   1.410   1.358  0.5254  0.6220  0.5967
 9946TIP3    H151329   4.192   1.484   1.411 -0.1399 -0.3793  1.6473
 9946TIP3    H251330   4.308   1.439   1.325 -0.1713  2.2513  0.1319
 9947TIP3   OH251331   5.336   5.160   1.074 -0.4058 -0.1044 -0.1615
 9947TIP3    H151332   5.241   5.147   1.072 -0.3991 -0.1039 -1.2584
 9947TIP3    H251333   5.350   5.242   1.027  0.1045  0.1619  0.4419
 9948TIP3   OH251334   1.935   4.194  12.727  0.2902  0.2206  0.1887
 9948TIP3    H151335   1.884   4.160  12.800 -0.6534  2.5444  0.7078
 9948TIP3    H251336   1.876   4.255  12.683  1.8560  1.1970 -0.6481
 9949TIP3   OH251337   1.181   0.579  13.004  0.2633 -0.2353 -0.3767
 9949TIP3    H151338   1.131   0.585  13.085  0.8746 -2.8063  0.2891
 9949TIP3    H251339   1.243   0.509  13.019  0.2849 -0.9458 -3.1360
 9950TIP3   OH251340   5.912   4.119   1.157 -0.1077 -0.3984 -0.4578
 9950TIP3    H151341   5.820   4.114   1.184  0.3289 -1.4312  0.9796
 9950TIP3    H251342   5.925   4.041   1.102  0.3173 -1.2738  0.8245
 9951TIP3   OH251343   5.230   6.606   2.433 -0.1916 -0.3524  0.3846
 9951TIP3    H151344   5.220   6.674   2.366  0.7597 -1.4537 -0.9175
 9951TIP3    H251345   5.304   6.553   2.403  1.2592 -0.0188  3.0693
 9952TIP3   OH251346   3.731   5.986   6.417 -0.3435  0.4752 -0.4211
 9952TIP3    H151347   3.742   5.892   6.404  0.1736  0.5739 -0.7215
 9952TIP3    H251348   3.673   5.993   6.493 -0.1390 -0.0833 -0.2083
 9953TIP3   OH251349   0.834   6.819   5.903 -0.4622  0.2557  0.6441
 9953TIP3    H151350   0.877   6.754   5.848 -0.1018 -1.2642  2.6174
 9953TIP3    H251351   0.749   6.833   5.862 -0.2186 -0.8547 -0.2650
 9954TIP3   OH251352   6.240   2.296   3.574 -0.4575 -0.0026 -0.1412
 9954TIP3    H151353   6.146   2.304   3.559 -0.3434  1.7445 -0.0659
 9954TIP3    H251354   6.247   2.258   3.662 -1.0706 -0.8760 -0.4540
 9955TIP3   OH251355   5.928   0.780   0.549  0.7705  0.3633 -0.0211
 9955TIP3    H151356   5.890   0.766   0.462  2.1300 -1.1091 -0.4177
 9955TIP3    H251357   5.908   0.700   0.597 -0.9087  1.5809  1.4375
 9956TIP3   OH251358   5.039   1.270   5.676 -0.0967  0.0078  0.5882
 9956TIP3    H151359   4.951   1.294   5.706 -0.2604  2.9125 -1.7824
 9956TIP3    H251360   5.097   1.308   5.742 -0.5808  1.7665  0.0698
 9957TIP3   OH251361   5.082   0.111   3.613  0.3145 -0.0841  0.5004
 9957TIP3    H151362   5.120   0.191   3.649  0.4883 -0.1491  0.4644
 9957TIP3    H251363   5.080   0.126   3.518 -0.3437  0.1733  0.5531
 9958TIP3   OH251364   4.462   4.010  12.034 -0.2042 -0.4805  0.1575
 9958TIP3    H151365   4.495   4.095  12.005 -0.7234 -0.9153 -1.9368
 9958TIP3    H251366   4.510   3.991  12.114  3.7540 -0.5163 -1.9852
 9959TIP3   OH251367   3.488   2.384   1.715 -0.3407  0.3000 -0.5720
 9959TIP3    H151368   3.534   2.317   1.664  0.9249  0.3868  0.4175
 9959TIP3    H251369   3.416   2.336   1.757  0.8118 -0.5751  0.4810
 9960TIP3   OH251370   6.565   5.327  12.095  0.0414 -0.0879  0.3172
 9960TIP3    H151371   6.602   5.289  12.175  0.0193  0.8998  0.8148
 9960TIP3    H251372   6.479   5.285  12.086  0.4980 -1.0202  0.1890
 9961TIP3   OH251373   1.994   3.827  15.499 -0.8557  0.3590 -0.5863
 9961TIP3    H151374   1.962   3.869  15.419 -1.4904 -0.4912 -0.7939
 9961TIP3    H251375   2.089   3.832  15.493 -0.8530 -0.8989 -2.0556
 9962TIP3   OH251376   5.663   1.730   1.904  0.3995  0.1227  0.5819
 9962TIP3    H151377   5.639   1.726   1.811  1.4117  0.0847  0.3203
 9962TIP3    H251378   5.615   1.806   1.937 -2.4281 -1.5980  0.7763
 9963TIP3   OH251379   0.816   1.603   3.944  0.0076 -0.1564  0.1034
 9963TIP3    H151380   0.774   1.583   4.027 -0.8350  2.8841  0.5133
 9963TIP3    H251381   0.763   1.557   3.879 -1.0408 -0.2819  1.0136
 9964TIP3   OH251382   4.226   3.877  15.242 -0.5127 -0.2074 -0.3422
 9964TIP3    H151383   4.152   3.852  15.187 -0.2450 -0.5083 -0.5670
 9964TIP3    H251384   4.222   3.816  15.316 -1.7987  1.1729  0.8018
 9965TIP3   OH251385   2.650   5.552   1.630  0.0872 -0.1096  0.0097
 9965TIP3    H151386   2.606   5.556   1.715 -0.7124 -0.3812 -0.3801
 9965TIP3    H251387   2.654   5.642   1.601 -0.0995 -0.0693  0.1058
 9966TIP3   OH251388   2.586   5.779  13.811 -0.0043 -0.2234  0.2272
 9966TIP3    H151389   2.522   5.749  13.875 -0.7456  0.3476 -0.2322
 9966TIP3    H251390   2.669   5.779  13.859 -0.1130 -2.1552  0.4759
 9967TIP3   OH251391   2.013   2.098  11.875 -0.7083  0.0723 -0.3626
 9967TIP3    H151392   2.048   2.062  11.793  0.0158 -1.8664  0.7317
 9967TIP3    H251393   1.931   2.140  11.849  0.2522  0.8473 -2.3035
 9968TIP3   OH251394   4.963   4.237   2.811  0.3596 -0.0507  0.3340
 9968TIP3    H151395   5.024   4.310   2.798  0.6061 -0.6022 -2.1127
 9968TIP3    H251396   4.898   4.271   2.873  0.1860  2.4484 -1.0849
 9969TIP3   OH251397   5.414   4.682  11.539 -0.2306  0.3987 -0.0469
 9969TIP3    H151398   5.320   4.697  11.553 -0.6944 -1.4586 -0.8319
 9969TIP3    H251399   5.449   4.666  11.627 -0.3143  2.5150  0.4266
 9970TIP3   OH251400   5.542   3.781   3.664 -0.4803 -0.0049 -0.9877
 9970TIP3    H151401   5.502   3.728   3.595 -0.0490 -0.4047 -0.9299
 9970TIP3    H251402   5.467   3.819   3.710 -0.7929 -0.5075 -1.0734
 9971TIP3   OH251403   6.321   5.683   2.732  1.0887  0.1447 -0.1589
 9971TIP3    H151404   6.334   5.618   2.663  0.2073  0.3546 -0.5341
 9971TIP3    H251405   6.300   5.764   2.685  1.7127  0.5892  0.3197
 9972TIP3   OH251406   6.341   0.460   3.608  0.0573  0.1344 -0.2791
 9972TIP3    H151407   6.398   0.383   3.608 -1.1642 -0.8013 -1.2998
 9972TIP3    H251408   6.352   0.497   3.696 -0.3447 -1.9789  0.7262
 9973TIP3   OH251409   5.077   1.271   3.594  0.3177 -0.1824 -0.2781
 9973TIP3    H151410   5.077   1.343   3.531  0.0067 -2.1267 -2.6195
 9973TIP3    H251411   4.994   1.226   3.580  0.1538 -0.5852  1.6990
 9974TIP3   OH251412   2.891   3.037   1.560 -0.2342  0.3977 -0.4873
 9974TIP3    H151413   2.807   3.077   1.583 -0.9542 -0.4831 -1.5002
 9974TIP3    H251414   2.872   2.984   1.482  1.6831  1.7461 -1.9619
 9975TIP3   OH251415   1.405   6.526  14.747 -0.3854  0.1080 -0.2079
 9975TIP3    H151416   1.434   6.435  14.749  1.4707  0.6489 -0.2527
 9975TIP3    H251417   1.365   6.537  14.661 -0.1947 -0.5451 -0.3860
 9976TIP3   OH251418   1.467   2.088  16.870 -0.4310  0.0281 -0.1309
 9976TIP3    H151419   1.457   2.121  16.960 -1.5267  1.5591 -0.7691
 9976TIP3    H251420   1.383   2.046  16.850  0.2371 -1.4106 -0.0521
 9977TIP3   OH251421   6.760   2.998   6.172  0.0011 -0.1805 -0.4220
 9977TIP3    H151422   6.734   2.934   6.106  0.1412  0.0218 -0.6759
 9977TIP3    H251423   6.848   3.025   6.145 -1.0441  2.1035 -1.8699
 9978TIP3   OH251424   0.583   4.752  11.947  0.0852  0.0044 -0.1138
 9978TIP3    H151425   0.646   4.759  11.875  0.6871 -0.6378  0.3359
 9978TIP3    H251426   0.607   4.671  11.992 -2.0234 -1.1177 -0.8406
 9979TIP3   OH251427   1.316   5.145  11.575 -0.2992  0.1438 -0.0162
 9979TIP3    H151428   1.397   5.189  11.548 -0.3663  1.3396  1.5884
 9979TIP3    H251429   1.248   5.212  11.566 -0.5793  0.1075  1.4964
 9980TIP3   OH251430   4.937   4.422   3.452  0.1883  0.0211  0.4226
 9980TIP3    H151431   4.934   4.337   3.409  0.2643  0.7370 -1.0699
 9980TIP3    H251432   5.022   4.458   3.428  0.5032  0.2004  1.7217
 9981TIP3   OH251433   4.727   0.871   4.142 -0.2078  0.3037 -0.0852
 9981TIP3    H151434   4.782   0.949   4.151  0.3908 -0.1709  0.4818
 9981TIP3    H251435   4.758   0.811   4.211  0.1994 -0.9359 -1.2942
 9982TIP3   OH251436   2.385   6.137  12.699  0.0010  0.0428 -0.2708
 9982TIP3    H151437   2.427   6.158  12.616 -0.6450  3.1302  0.0549
 9982TIP3    H251438   2.458   6.117  12.758  0.4401 -2.7793 -1.5875
 9983TIP3   OH251439   5.576   6.504  12.249  0.0055  0.4698 -0.5705
 9983TIP3    H151440   5.650   6.467  12.200  2.0697  1.1776  1.7541
 9983TIP3    H251441   5.557   6.438  12.316  0.5467  1.5167  0.6583
 9984TIP3   OH251442   4.769   0.298  10.199 -0.3164  0.5165 -0.4536
 9984TIP3    H151443   4.685   0.294  10.153 -0.5713  2.6599 -0.2846
 9984TIP3    H251444   4.746   0.287  10.291  0.0128 -2.1568 -0.6232
 9985TIP3   OH251445   1.582   5.504  16.198  0.3182  0.4342 -0.3068
 9985TIP3    H151446   1.556   5.452  16.275  1.3770  1.9585  1.1648
 9985TIP3    H251447   1.593   5.440  16.128  0.7541 -1.2340  1.2087
 9986TIP3   OH251448   6.273   1.057   3.221  0.2464 -0.2643 -0.4536
 9986TIP3    H151449   6.182   1.038   3.245 -0.1844  0.6687 -1.3044
 9986TIP3    H251450   6.290   1.144   3.255  0.4801 -0.0067 -1.2064
 9987TIP3   OH251451   1.028   6.153  14.542  0.6784  0.1874 -0.0836
 9987TIP3    H151452   1.058   6.084  14.602 -1.9416 -0.8847  0.1581
 9987TIP3    H251453   1.036   6.115  14.455 -1.4530 -0.8525  0.0900
 9988TIP3   OH251454   3.599   4.509  12.553 -0.6693  0.4955  0.4495
 9988TIP3    H151455   3.527   4.477  12.499  0.0577 -0.9775  0.3132
 9988TIP3    H251456   3.608   4.443  12.622 -0.0701  1.1618  1.0168
 9989TIP3   OH251457   2.565   0.882  16.954 -0.1298  0.1787  0.2601
 9989TIP3    H151458   2.510   0.862  17.030 -1.2426  3.0625  0.3423
 9989TIP3    H251459   2.508   0.865  16.878  0.3477 -0.8853  0.1209
 9990TIP3   OH251460   1.104   4.626   5.084 -0.1217  0.4111 -0.3055
 9990TIP3    H151461   1.060   4.541   5.076 -2.3810  1.5760 -1.1070
 9990TIP3    H251462   1.042   4.689   5.046  2.2581  2.2043 -1.4948
 9991TIP3   OH251463   4.681   3.072   1.476 -0.5234 -0.1672 -0.0949
 9991TIP3    H151464   4.635   3.031   1.550 -0.9885  1.2595  0.4296
 9991TIP3    H251465   4.773   3.069   1.501 -0.7341  0.9240  0.8774
 9992TIP3   OH251466   6.190   0.005   2.891 -0.1893 -0.0380 -0.6258
 9992TIP3    H151467   6.137  -0.026   2.964  0.6995  1.1367  0.5680
 9992TIP3    H251468   6.190   0.101   2.900  1.9010  0.0195 -0.7328
 9993TIP3   OH251469   3.667   4.907   3.359 -0.0690  0.0892 -0.3656
 9993TIP3    H151470   3.734   4.887   3.295  0.6230 -3.4500  1.2076
 9993TIP3    H251471   3.589   4.861   3.327 -0.5451  0.7121 -0.1133
 9994TIP3   OH251472   0.450   2.900  14.546 -0.2366 -0.0718  0.3862
 9994TIP3    H151473   0.474   2.870  14.634 -0.1017 -0.4935  0.2049
 9994TIP3    H251474   0.360   2.933  14.556 -0.2122 -0.0946  0.6867
 9995TIP3   OH251475   0.866   1.309  16.397 -0.3865 -0.0162 -0.7272
 9995TIP3    H151476   0.857   1.400  16.369 -1.4444  0.2165  0.3143
 9995TIP3    H251477   0.820   1.304  16.481 -0.4100 -1.5222 -0.7950
 9996TIP3   OH251478   1.628   2.330   0.198  0.3165  0.6739 -0.1990
 9996TIP3    H151479   1.540   2.314   0.232  1.2889  1.1065  2.7655
 9996TIP3    H251480   1.676   2.249   0.215  0.2554 -0.0989 -3.0787
 9997TIP3   OH251481   3.084   1.628  15.327  0.0496  0.0788  0.2382
 9997TIP3    H151482   3.125   1.706  15.364  0.3009 -0.3194  0.8018
 9997TIP3    H251483   3.157   1.569  15.307 -0.1932 -0.3539  0.6019
 9998TIP3   OH251484   6.387   5.911   1.784  0.2626  0.3839 -0.2812
 9998TIP3    H151485   6.311   5.968   1.782  0.5514  0.8548  1.0138
 9998TIP3    H251486   6.462   5.971   1.791  0.6747 -0.1046 -0.4151
 9999TIP3   OH251487   6.144   5.503   1.213 -0.1277  0.1321 -0.0819
 9999TIP3    H151488   6.176   5.542   1.132 -1.3598 -1.6770 -1.5318
 9999TIP3    H251489   6.222   5.489   1.266  0.8715  0.2180 -1.4792
10000TIP3   OH251490   3.370   3.207  12.835  0.4592  0.0449 -0.0713
10000TIP3    H151491   3.457   3.222  12.798 -0.4525  0.5779 -2.1415
10000TIP3    H251492   3.350   3.288  12.883  0.4159  0.6365 -1.0632
10001TIP3   OH251493   3.672   0.898  16.020  0.4609 -0.9501 -0.1079
10001TIP3    H151494   3.739   0.890  15.952  1.9189  0.2579  1.1098
10001TIP3    H251495   3.705   0.843  16.092  0.5686  0.2372  0.7887
10002TIP3   OH251496   4.273   1.830   2.736  0.5390 -0.5946 -0.0524
10002TIP3    H151497   4.203   1.765   2.747 -0.0743 -0.0279 -0.4874
10002TIP3    H251498   4.298   1.822   2.644 -1.5967  1.7541 -0.9535
10003TIP3   OH251499   1.012   5.752   1.255  0.2330  0.2519  0.1134
10003TIP3    H151500   1.105   5.743   1.233 -0.0882  0.0701 -1.2429
10003TIP3    H251501   0.972   5.670   1.226 -0.6811  1.1284 -1.2178
10004TIP3   OH251502   6.038   3.915   0.640 -0.3485  0.5169  0.5354
10004TIP3    H151503   6.037   3.822   0.663  0.4666  0.5045  0.5451
10004TIP3    H251504   5.972   3.924   0.571 -0.2212 -0.1207  0.3269
10005TIP3   OH251505   2.515   1.449  16.302 -0.0464  0.3279 -0.5132
10005TIP3    H151506   2.562   1.493  16.231  1.4320 -1.8234 -0.9845
10005TIP3    H251507   2.527   1.355  16.284 -1.0030 -0.2931  1.7043
10006TIP3   OH251508   1.936   0.002  13.004 -0.1277  0.2199 -0.0388
10006TIP3    H151509   1.974   0.034  12.922 -0.4643 -0.8396 -0.6393
10006TIP3    H251510   1.850   0.042  13.008  0.4314  1.3945  0.5306
10007TIP3   OH251511   5.088   0.046  11.652  0.1633 -0.0111  0.8035
10007TIP3    H151512   5.039  -0.031  11.679 -1.4108  0.4130 -0.6472
10007TIP3    H251513   5.022   0.105  11.616  1.2199  2.2775  2.3317
10008TIP3   OH251514   3.931   5.325  16.526  0.1170  1.0803  0.4890
10008TIP3    H151515   3.912   5.416  16.500 -0.6907  0.2032 -2.3989
10008TIP3    H251516   3.899   5.272  16.453 -0.9290 -1.7049  2.7518
10009TIP3   OH251517   0.966   1.643  11.212  0.1969  0.2524  0.3584
10009TIP3    H151518   0.973   1.646  11.308  1.1854  1.5363  0.2674
10009TIP3    H251519   1.032   1.704  11.181  0.8757 -1.1795 -1.2001
10010TIP3   OH251520   3.834   0.384  11.604 -0.1824 -0.2158 -0.0708
10010TIP3    H151521   3.752   0.343  11.632 -0.6559  0.7497 -0.0424
10010TIP3    H251522   3.809   0.470  11.572  0.7347 -0.1975 -0.7656
10011TIP3   OH251523   6.499   4.694  14.832 -0.1505 -0.6541  0.1805
10011TIP3    H151524   6.409   4.715  14.856  0.4623  1.5478  0.8613
10011TIP3    H251525   6.536   4.778  14.803  1.6238 -1.5406 -0.2825
10012TIP3   OH251526   1.813   3.444  14.416  0.2702  0.5989 -0.2963
10012TIP3    H151527   1.724   3.477  14.420 -0.4035 -0.9984 -1.1612
10012TIP3    H251528   1.844   3.467  14.329  1.0350  1.8370  0.2620
10013TIP3   OH251529   6.532   1.764  15.706 -0.0787 -0.7564  0.1030
10013TIP3    H151530   6.497   1.701  15.643  0.5206  0.9130 -2.0149
10013TIP3    H251531   6.459   1.781  15.766 -0.5502 -2.6593  0.1539
10014TIP3   OH251532   1.916   6.588  15.910  0.0555  0.2711 -0.0704
10014TIP3    H151533   1.844   6.644  15.880 -0.3187 -0.5196 -0.7014
10014TIP3    H251534   1.973   6.646  15.960 -0.3122  1.2104 -0.7173
10015TIP3   OH251535   4.562   1.203   0.667  0.7557 -0.7142  0.0581
10015TIP3    H151536   4.613   1.159   0.736  0.5814 -0.3201  0.4450
10015TIP3    H251537   4.626   1.226   0.600  0.8899 -1.3294 -0.0353
10016TIP3   OH251538   6.582   5.406   2.556  0.2935 -0.3105 -0.2025
10016TIP3    H151539   6.607   5.442   2.641 -0.2791 -0.5188  0.0538
10016TIP3    H251540   6.624   5.320   2.554 -0.0976 -0.5069  0.0718
10017TIP3   OH251541   6.800   4.276  13.422  0.0023  0.4707 -0.0608
10017TIP3    H151542   6.720   4.324  13.443  1.3751  2.0836  1.9565
10017TIP3    H251543   6.868   4.344  13.418  1.0019 -0.5013 -4.0891
10018TIP3   OH251544   5.894   5.848  13.215 -0.2434  0.5174 -0.5805
10018TIP3    H151545   5.802   5.826  13.230  0.0328 -0.6001 -0.4691
10018TIP3    H251546   5.926   5.779  13.157  0.9183  0.0520  0.5945
10019TIP3   OH251547   1.843   1.697   3.988 -0.8474 -0.5098  0.4513
10019TIP3    H151548   1.896   1.685   3.909 -1.0565 -0.7399  0.3460
10019TIP3    H251549   1.907   1.714   4.057 -0.7053  0.4462  0.0922
10020TIP3   OH251550   4.455   5.302   2.372  0.6119  0.2238 -0.2770
10020TIP3    H151551   4.513   5.326   2.300  0.3479  1.5226 -0.0674
10020TIP3    H251552   4.389   5.245   2.332 -0.0875  1.6996 -1.2746
10021TIP3   OH251553   0.977   3.712   0.250  0.0488 -0.3521 -0.0655
10021TIP3    H151554   0.941   3.704   0.161  0.6646 -1.2449 -0.2398
10021TIP3    H251555   0.996   3.622   0.277  3.1942  0.0870 -0.4224
10022TIP3   OH251556   0.272   5.113   0.163 -0.5050 -0.2295 -0.1959
10022TIP3    H151557   0.297   5.030   0.203  0.6041 -0.1820 -0.7618
10022TIP3    H251558   0.300   5.106   0.071  1.1919  1.3895  0.1269
10023TIP3   OH251559   1.223   3.680   3.674  0.0008  0.1929 -0.2982
10023TIP3    H151560   1.277   3.736   3.618 -1.5988  2.2317  0.0673
10023TIP3    H251561   1.270   3.597   3.677  1.9223  1.1324 -1.8022
10024TIP3   OH251562   1.161   3.290   1.131  0.1478 -0.4617 -0.3657
10024TIP3    H151563   1.242   3.247   1.103 -0.3179 -1.2471 -0.5358
10024TIP3    H251564   1.180   3.319   1.220  0.3914 -1.2521 -0.1505
10025TIP3   OH251565   4.282   0.324   2.271 -0.4339 -0.3088  0.0239
10025TIP3    H151566   4.305   0.403   2.320 -1.2823  0.0243 -0.1102
10025TIP3    H251567   4.202   0.346   2.224 -1.9180 -1.9004  1.6507
10026TIP3   OH251568   2.370   2.588  13.729  0.5351 -0.3164 -0.2233
10026TIP3    H151569   2.402   2.585  13.639 -0.0865 -2.0759 -0.4228
10026TIP3    H251570   2.306   2.659  13.729  1.6101  0.6941 -0.7626
10027TIP3   OH251571   2.744   0.925  14.691 -0.1514  0.3216 -0.6379
10027TIP3    H151572   2.774   0.851  14.639 -0.2808 -0.6080  0.5770
10027TIP3    H251573   2.824   0.974  14.712  0.1215 -0.3142 -0.1807
10028TIP3   OH251574   3.453   0.514  13.925  0.2227 -0.1974  0.1600
10028TIP3    H151575   3.398   0.468  13.988 -0.4376 -1.4428 -1.2623
10028TIP3    H251576   3.477   0.595  13.969 -0.6285 -0.7870  1.8025
10029TIP3   OH251577   0.421   1.875   3.991  0.0665  0.3017  0.0303
10029TIP3    H151578   0.480   1.909   3.924 -1.3087  0.8897 -0.9140
10029TIP3    H251579   0.354   1.943   4.001  0.3347  0.3433  2.1758
10030TIP3   OH251580   1.656   3.841  11.561 -0.4559 -0.7758 -0.2812
10030TIP3    H151581   1.723   3.772  11.554  0.7851  0.4913 -1.4566
10030TIP3    H251582   1.597   3.824  11.488 -0.6175 -1.0722 -0.0824
10031TIP3   OH251583   4.729   3.253  11.523  0.6162 -0.4242 -0.1128
10031TIP3    H151584   4.718   3.347  11.508 -0.4937 -0.4868  0.1949
10031TIP3    H251585   4.698   3.212  11.442  1.2943 -0.5291 -0.3262
10032TIP3   OH251586   2.203   4.367   4.430  0.6127 -0.0209  0.1460
10032TIP3    H151587   2.239   4.455   4.439  1.8110 -0.5375  0.7303
10032TIP3    H251588   2.211   4.329   4.518 -1.2499 -0.2308  0.2601
10033TIP3   OH251589   0.109   1.435   0.883  0.2753 -0.2770  0.1943
10033TIP3    H151590   0.180   1.409   0.824  1.0614  1.1040  0.4871
10033TIP3    H251591   0.107   1.367   0.950 -0.8138 -2.0325 -1.5113
10034TIP3   OH251592   1.195   5.659  10.617 -0.2083  0.7992 -0.8015
10034TIP3    H151593   1.105   5.655  10.648  0.0837  2.4691  0.3729
10034TIP3    H251594   1.192   5.620  10.530 -1.6816 -0.9553 -0.0304
10035TIP3   OH251595   3.127   2.239   3.448 -0.2627  0.0600 -0.0626
10035TIP3    H151596   3.183   2.251   3.371  2.4531 -0.4016  1.6840
10035TIP3    H251597   3.147   2.315   3.503  0.3943 -1.2247  1.5548
10036TIP3   OH251598   3.450   2.846  15.203  0.4129 -0.0905  0.1523
10036TIP3    H151599   3.526   2.851  15.262  0.7485  0.4651 -0.3141
10036TIP3    H251600   3.378   2.885  15.253  1.3349  3.1361 -0.7757
10037TIP3   OH251601   4.819   4.049  11.472  0.1689 -0.2887  0.3576
10037TIP3    H151602   4.915   4.055  11.473  0.0891  1.4792 -0.2387
10037TIP3    H251603   4.798   4.007  11.555  1.3781  1.2700  1.5185
10038TIP3   OH251604   1.753   3.554  13.902 -0.3998  0.0854  0.0570
10038TIP3    H151605   1.735   3.508  13.820 -0.0539  1.1251 -0.6143
10038TIP3    H251606   1.710   3.639  13.892  1.4530  1.0583  0.0556
10039TIP3   OH251607   1.758   3.399   5.571 -0.3310  0.4227  0.6438
10039TIP3    H151608   1.664   3.408   5.558 -0.1409  2.5882  0.4608
10039TIP3    H251609   1.774   3.438   5.657  0.3382 -0.4569  0.9345
10040TIP3   OH251610   5.379   3.454   5.509 -0.8568  0.4223 -0.0564
10040TIP3    H151611   5.448   3.428   5.570 -1.3726 -2.2234 -0.4654
10040TIP3    H251612   5.348   3.538   5.542  0.0461 -0.0906  2.3075
10041TIP3   OH251613   6.392   6.526   2.594 -0.0524 -0.9161  0.0902
10041TIP3    H151614   6.407   6.619   2.578  1.2079 -1.3404 -1.5019
10041TIP3    H251615   6.352   6.522   2.681 -0.6985  1.1395 -0.0613
10042TIP3   OH251616   6.409   2.459  10.912  0.1735 -0.1803 -0.8883
10042TIP3    H151617   6.486   2.442  10.967  0.9515  0.8289 -1.6199
10042TIP3    H251618   6.414   2.394  10.842 -0.5730 -1.1804 -0.0322
10043TIP3   OH251619   5.210   5.836   6.260 -0.0864 -0.5450  0.6336
10043TIP3    H151620   5.142   5.769   6.256 -0.9728  0.3653 -0.1483
10043TIP3    H251621   5.162   5.919   6.260  1.0154  0.1358 -0.5559
10044TIP3   OH251622   4.157   3.300   2.511 -0.4178 -0.0731 -0.2049
10044TIP3    H151623   4.155   3.376   2.453 -2.1365  1.0436  1.2071
10044TIP3    H251624   4.092   3.240   2.474 -0.0928 -0.2344 -0.5199
10045TIP3   OH251625   6.053   2.607   1.361 -0.1950 -0.8122 -0.1750
10045TIP3    H151626   6.059   2.533   1.301 -1.9464 -1.4150  0.3160
10045TIP3    H251627   5.972   2.591   1.410 -1.1830  1.9311 -0.7334
10046TIP3   OH251628   2.020   1.434  16.826  0.0713  0.0752 -0.3801
10046TIP3    H151629   1.974   1.514  16.802 -0.7328 -0.5764 -1.0666
10046TIP3    H251630   2.089   1.425  16.761 -0.2007 -0.0958 -0.6438
10047TIP3   OH251631   3.189   6.125  14.263 -0.0282 -0.6405  0.0654
10047TIP3    H151632   3.233   6.041  14.274  1.7630  0.0415 -1.3640
10047TIP3    H251633   3.254   6.181  14.222 -0.5046  2.0536  2.6566
10048TIP3   OH251634   4.205   4.258   1.928 -0.1647 -0.1236 -0.0010
10048TIP3    H151635   4.239   4.306   1.853  0.4715 -1.2539 -0.4562
10048TIP3    H251636   4.231   4.167   1.913 -1.0822 -0.5769  0.9817
10049TIP3   OH251637   5.446   1.392   5.547  0.2266  0.1484 -0.2523
10049TIP3    H151638   5.371   1.402   5.488  0.8038  0.3872 -0.9715
10049TIP3    H251639   5.518   1.366   5.489  0.5490 -0.7337  0.5158
10050TIP3   OH251640   4.251   5.886   6.241  0.8610 -0.3723 -0.1445
10050TIP3    H151641   4.163   5.871   6.207  1.3325 -1.5187 -0.9135
10050TIP3    H251642   4.238   5.947   6.314 -0.8750 -2.2789  1.2525
10051TIP3   OH251643   2.580   4.388  15.773 -0.2790  0.2505 -0.1133
10051TIP3    H151644   2.529   4.384  15.692  1.2442 -0.1981 -1.1058
10051TIP3    H251645   2.574   4.300  15.810 -0.2275  0.1937 -0.2393
10052TIP3   OH251646   2.135   1.394   2.439  0.2585  0.2926 -0.2700
10052TIP3    H151647   2.158   1.307   2.406 -1.8509 -0.2511 -0.4605
10052TIP3    H251648   2.083   1.376   2.518  0.0717  1.3852 -0.1361
10053TIP3   OH251649   0.529   3.866   2.022  0.0519  0.6364  0.9600
10053TIP3    H151650   0.604   3.818   1.987  0.3473 -0.0097  2.4236
10053TIP3    H251651   0.514   3.936   1.959  0.9707 -0.0871 -0.0983
10054TIP3   OH251652   0.334   1.276  10.416 -0.3715  0.5305  0.4280
10054TIP3    H151653   0.279   1.207  10.377  1.6835 -0.4934 -0.8311
10054TIP3    H251654   0.348   1.338  10.345  2.8356 -0.9902 -0.4472
10055TIP3   OH251655   4.084   1.120   5.036 -0.6379 -0.4648 -0.2377
10055TIP3    H151656   4.116   1.206   5.012  1.8194 -1.0282  0.7294
10055TIP3    H251657   4.039   1.133   5.119  1.3207 -0.3262  0.8546
10056TIP3   OH251658   6.099   6.377  15.837  0.2067  0.2468 -0.3930
10056TIP3    H151659   6.114   6.374  15.931 -0.5653 -1.2300 -0.2745
10056TIP3    H251660   6.005   6.394  15.828  0.6088  2.4847 -0.9692
10057TIP3   OH251661   4.907   0.034  11.235 -0.0729 -0.2514 -0.3787
10057TIP3    H151662   4.896   0.112  11.181  0.5267 -0.7799 -1.2750
10057TIP3    H251663   4.897  -0.040  11.175  0.6697 -0.8539  0.2122
10058TIP3   OH251664   3.435   1.792   3.427 -0.0930 -0.3181 -0.0767
10058TIP3    H151665   3.378   1.807   3.503  1.1762 -0.1189  0.8654
10058TIP3    H251666   3.456   1.698   3.432 -0.0718 -0.3210 -0.2343
10059TIP3   OH251667   4.808   6.687  15.120 -0.3438 -0.3599 -0.3993
10059TIP3    H151668   4.903   6.698  15.112 -0.3279 -1.5225 -2.5014
10059TIP3    H251669   4.788   6.613  15.062 -2.8113  1.1862 -1.6591
10060TIP3   OH251670   4.942   2.194   3.246  0.1367  0.1820 -0.1667
10060TIP3    H151671   4.955   2.244   3.326 -0.8589  0.8600 -0.4099
10060TIP3    H251672   4.872   2.132   3.267  0.6889 -0.4559 -0.1641
10061TIP3   OH251673   6.366   3.546   2.959  0.8770 -0.2371 -0.3077
10061TIP3    H151674   6.441   3.511   3.007  2.7316  2.1008 -1.2839
10061TIP3    H251675   6.403   3.615   2.904 -2.2515  2.2167  0.3775
10062TIP3   OH251676   5.508   1.467  15.301 -0.3384  0.1695 -0.0677
10062TIP3    H151677   5.504   1.561  15.285  0.4825  0.1869 -0.1999
10062TIP3    H251678   5.592   1.453  15.345 -0.0378 -0.6133 -0.8588
10063TIP3   OH251679   6.114   2.125  16.851 -0.1091 -0.2490 -0.3097
10063TIP3    H151680   6.202   2.160  16.839 -0.1844 -0.5758 -2.0871
10063TIP3    H251681   6.061   2.202  16.871  0.4093  0.0936 -0.2139
10064TIP3   OH251682   2.815   6.535   2.366 -0.2258 -0.0706  1.0040
10064TIP3    H151683   2.885   6.590   2.402  1.6441 -2.1982  0.8850
10064TIP3    H251684   2.779   6.490   2.442 -1.0347  0.4959  0.9738
10065TIP3   OH251685   0.873   6.585   2.388  0.0579  0.6470  0.0872
10065TIP3    H151686   0.927   6.662   2.402  1.3582 -0.0135 -1.0757
10065TIP3    H251687   0.858   6.583   2.293  1.3843 -1.3623 -0.1323
10066TIP3   OH251688   3.358   5.563  12.702 -1.0384  0.2891  0.0085
10066TIP3    H151689   3.281   5.615  12.679 -0.7641 -0.2226 -2.3191
10066TIP3    H251690   3.432   5.622  12.687 -0.8708  0.2723  0.7063
10067TIP3   OH251691   5.306   0.327  16.605  0.4709 -0.2847 -0.3401
10067TIP3    H151692   5.348   0.311  16.689  0.8153  0.3353 -0.3880
10067TIP3    H251693   5.226   0.274  16.608 -1.0316  1.8662  1.5645
10068TIP3   OH251694   1.722   1.094  12.162 -0.0315  0.3086  0.7783
10068TIP3    H151695   1.664   1.149  12.109 -0.2533  0.0545  0.7510
10068TIP3    H251696   1.731   1.140  12.245  0.8021  1.0075  0.3108
10069TIP3   OH251697   0.912   6.614   0.221 -0.4684 -0.0787  0.5388
10069TIP3    H151698   0.867   6.573   0.294  0.6007  1.8213  2.3714
10069TIP3    H251699   0.885   6.706   0.225  1.0156  0.4234 -0.3356
10070TIP3   OH251700   4.760   1.047   0.887  0.2741  0.0053 -0.5781
10070TIP3    H151701   4.852   1.021   0.896  0.5019  1.5343  4.5125
10070TIP3    H251702   4.713   0.965   0.873  2.1132 -1.2669  0.2744
10071TIP3   OH251703   3.005   5.571   2.239 -0.3894 -0.4366  0.2987
10071TIP3    H151704   3.076   5.635   2.235  1.4117 -2.2005  1.7623
10071TIP3    H251705   2.926   5.624   2.252  0.6277  1.5829 -1.1468
10072TIP3   OH251706   0.237   3.258  14.217  0.0589 -0.2616  0.1068
10072TIP3    H151707   0.151   3.239  14.256  0.2695  1.7732  1.7260
10072TIP3    H251708   0.291   3.284  14.291  1.8407 -0.5872 -1.0220
10073TIP3   OH251709   6.446   5.076  16.062 -0.1717  0.3087  0.4235
10073TIP3    H151710   6.392   5.137  16.111 -1.2562  0.7994 -1.3008
10073TIP3    H251711   6.431   5.099  15.970  0.9569 -1.2505 -0.1975
10074TIP3   OH251712   0.261   6.391  10.473  0.1822 -0.3002 -0.3142
10074TIP3    H151713   0.178   6.419  10.436  0.4528 -0.4802 -1.0646
10074TIP3    H251714   0.316   6.470  10.470 -0.7904  0.6387  2.7571
10075TIP3   OH251715   0.226   1.370   5.165 -0.2049 -0.6647  0.0030
10075TIP3    H151716   0.170   1.313   5.218  0.4595 -0.3262  1.1126
10075TIP3    H251717   0.202   1.458   5.193  0.6002 -0.5071  0.2057
10076TIP3   OH251718   0.165   5.450  13.037  0.2781  0.2478 -0.2558
10076TIP3    H151719   0.137   5.452  12.945 -0.0993 -0.6579 -0.1755
10076TIP3    H251720   0.132   5.367  13.070  0.1678  0.6884  0.7870
10077TIP3   OH251721   2.959   1.578   5.108  0.0961  0.7261  0.7865
10077TIP3    H151722   2.918   1.665   5.112 -1.2637  0.0594  2.9207
10077TIP3    H251723   2.887   1.518   5.087  1.1497  0.1078 -1.4316
10078TIP3   OH251724   0.672   5.493  11.715  0.2902  0.1108  0.7110
10078TIP3    H151725   0.728   5.458  11.784  1.5648 -2.0663 -1.2772
10078TIP3    H251726   0.646   5.416  11.664 -0.6580  1.6040 -1.2021
10079TIP3   OH251727   0.065   2.378   5.074  0.7676 -0.1189  0.0113
10079TIP3    H151728  -0.031   2.386   5.078  0.8082  0.2671  0.3049
10079TIP3    H251729   0.091   2.365   5.165  0.8861 -1.6382 -0.2128
10080TIP3   OH251730   5.166   0.081   0.393 -0.4773 -0.2020  0.4012
10080TIP3    H151731   5.129   0.164   0.424 -1.8508 -0.3224 -0.8298
10080TIP3    H251732   5.096   0.041   0.342  0.3222 -1.9302  0.5967
10081TIP3   OH251733   5.570   2.919   0.661  0.3214  0.0404  0.3611
10081TIP3    H151734   5.644   2.860   0.670  0.6148  0.5072  1.0914
10081TIP3    H251735   5.547   2.943   0.750  0.1550  0.9497  0.0847
10082TIP3   OH251736   4.901   2.230  13.046  0.0316 -0.5353 -0.2196
10082TIP3    H151737   4.863   2.162  12.992  0.4033 -0.5762 -0.4351
10082TIP3    H251738   4.857   2.310  13.020  0.0694 -0.5871 -0.4440
10083TIP3   OH251739   5.855   2.678  12.448 -0.4097  0.4575 -0.0193
10083TIP3    H151740   5.819   2.740  12.512  1.8819 -0.6673  2.5601
10083TIP3    H251741   5.822   2.593  12.476  0.4256 -0.0257 -0.4575
10084TIP3   OH251742   1.254   4.434  11.928 -0.1518  0.2387 -0.1998
10084TIP3    H151743   1.197   4.416  11.854 -0.4576  1.0339 -0.1689
10084TIP3    H251744   1.332   4.382  11.912 -0.4448 -0.0194 -0.7965
10085TIP3   OH251745   1.183   5.906   2.496  0.0779 -0.1163  0.0680
10085TIP3    H151746   1.242   5.944   2.562 -0.6566 -0.6415  1.0447
10085TIP3    H251747   1.181   5.813   2.516 -0.2697 -0.2626 -0.6188
10086TIP3   OH251748   0.060   3.491  14.338 -0.0674  0.0974 -0.4093
10086TIP3    H151749   0.122   3.510  14.409  0.2326  0.8747 -0.8703
10086TIP3    H251750   0.019   3.408  14.364  1.2299 -0.4870 -0.1358
10087TIP3   OH251751   0.748   4.781  15.511  0.1062  0.6948  0.4091
10087TIP3    H151752   0.833   4.736  15.512 -0.1710  0.0882 -1.1179
10087TIP3    H251753   0.745   4.828  15.594  0.9552 -1.1026  1.5145
10088TIP3   OH251754   4.259   1.201  13.629  0.0910 -0.1102 -0.2866
10088TIP3    H151755   4.297   1.286  13.610 -0.1623 -0.0770 -0.6689
10088TIP3    H251756   4.169   1.220  13.655 -0.3914 -0.3389 -1.6863
10089TIP3   OH251757   1.123   0.350  13.209  0.0258 -0.0124 -0.0635
10089TIP3    H151758   1.041   0.311  13.238 -0.1109  0.9070  0.8623
10089TIP3    H251759   1.178   0.352  13.288  0.5071  0.4280 -0.4036
10090TIP3   OH251760   0.187   0.964   2.896 -0.2814 -0.2159  0.0770
10090TIP3    H151761   0.149   0.876   2.895 -0.3698 -0.1997  1.1584
10090TIP3    H251762   0.156   1.003   2.977  1.6219 -0.0247  0.7672
10091TIP3   OH251763   1.460   0.233  12.186 -0.3217  0.3376 -0.2348
10091TIP3    H151764   1.444   0.305  12.125  1.6610  1.6751  0.7175
10091TIP3    H251765   1.516   0.173  12.138  2.5122  2.1206  0.5961
10092TIP3   OH251766   4.766   5.212   3.498 -0.7312  0.3622 -0.1684
10092TIP3    H151767   4.679   5.217   3.537 -0.2283 -0.6866  1.1496
10092TIP3    H251768   4.802   5.129   3.529  0.6693  0.6822 -0.8462
10093TIP3   OH251769   4.956   1.462   4.867 -0.0666  0.3247 -0.4592
10093TIP3    H151770   4.893   1.529   4.893 -1.3010 -0.2698 -1.7862
10093TIP3    H251771   5.019   1.459   4.939  0.0235  2.8616 -0.3310
10094TIP3   OH251772   4.504   5.909  13.651 -0.0626  0.1360  0.4596
10094TIP3    H151773   4.548   5.833  13.614 -1.3319 -1.3318  1.8041
10094TIP3    H251774   4.574   5.967  13.679  1.0180 -1.5011  1.2951
10095TIP3   OH251775   3.501   0.114  12.034  0.0029 -0.1691 -0.1629
10095TIP3    H151776   3.454   0.125  11.952 -0.1761 -0.1122 -0.0525
10095TIP3    H251777   3.527   0.203  12.059  0.4986 -0.2396 -0.4167
10096TIP3   OH251778   3.412   6.490  14.369  0.2578 -0.5586  0.0478
10096TIP3    H151779   3.355   6.551  14.417 -1.1735 -1.3771 -0.5456
10096TIP3    H251780   3.488   6.478  14.426 -0.7281 -0.3867  1.4519
10097TIP3   OH251781   4.124   2.317  16.370 -0.0530 -0.0930  0.3183
10097TIP3    H151782   4.053   2.366  16.327  1.0126  1.4913  0.2719
10097TIP3    H251783   4.116   2.340  16.462  0.1708 -0.2144  0.3675
10098TIP3   OH251784   0.534   0.467   4.165 -0.0504  0.1272 -0.4453
10098TIP3    H151785   0.463   0.526   4.138  0.1226 -0.1295 -1.5202
10098TIP3    H251786   0.587   0.456   4.087  1.6376  0.9076  0.5497
10099TIP3   OH251787   0.745   1.192   3.904  0.2128 -0.3852  0.2605
10099TIP3    H151788   0.676   1.130   3.879  0.9419 -1.2060  0.2404
10099TIP3    H251789   0.749   1.254   3.831 -2.4124  1.4135  1.4791
10100TIP3   OH251790   4.936   1.982  16.955  0.6458  0.0825  0.0835
10100TIP3    H151791   4.924   1.918  17.026  0.5193  0.4669  0.4110
10100TIP3    H251792   4.975   1.931  16.883  0.8312 -0.2974  0.4495
10101TIP3   OH251793   5.217   5.168   6.280 -0.0424  0.0071  0.3338
10101TIP3    H151794   5.170   5.085   6.275 -0.1723  0.1537 -2.1438
10101TIP3    H251795   5.149   5.234   6.291 -0.0028 -0.0971  1.3766
10102TIP3   OH251796   2.874   3.300  14.444  0.3279  0.1477 -0.4459
10102TIP3    H151797   2.969   3.302  14.448  0.2950  0.1058  1.1744
10102TIP3    H251798   2.846   3.378  14.492 -0.4334 -1.4181  1.8178
10103TIP3   OH251799   3.418   4.223  11.873  0.2580  0.2311  0.7235
10103TIP3    H151800   3.471   4.301  11.886  1.8652 -0.8527  1.0125
10103TIP3    H251801   3.357   4.246  11.803  0.9146  1.6217  0.5807
10104TIP3   OH251802   5.218   4.875   2.171 -0.6854 -0.0669 -0.7756
10104TIP3    H151803   5.266   4.955   2.151  2.7845 -2.3339 -2.3605
10104TIP3    H251804   5.152   4.869   2.102  0.6613  0.2173 -2.1258
10105TIP3   OH251805   3.685   0.310   3.428 -0.0712 -0.0912  0.1202
10105TIP3    H151806   3.597   0.348   3.417 -0.8557 -0.8550  2.8309
10105TIP3    H251807   3.690   0.242   3.361 -1.1912  0.5309 -0.6429
10106TIP3   OH251808   3.262   3.133   0.181 -0.3368  0.5004 -0.2315
10106TIP3    H151809   3.290   3.171   0.098  0.8153  0.1988 -0.0064
10106TIP3    H251810   3.166   3.137   0.179 -0.2972  2.9544 -0.4235
10107TIP3   OH251811   2.073   0.715   4.366  0.4362  0.0841  0.5665
10107TIP3    H151812   2.103   0.719   4.275  2.3015 -2.0174  1.0278
10107TIP3    H251813   2.143   0.755   4.416 -0.7604  1.6039  1.1164
10108TIP3   OH251814   2.031   2.568   1.289 -0.0538 -0.4473 -0.0906
10108TIP3    H151815   2.113   2.518   1.294 -1.2412 -2.4723  0.0139
10108TIP3    H251816   2.052   2.642   1.231  1.2785 -2.1025 -1.8334
10109TIP3   OH251817   0.899   5.758  11.282 -0.4305 -0.0214  0.0084
10109TIP3    H151818   0.952   5.756  11.203 -1.8287 -1.0793 -0.9343
10109TIP3    H251819   0.844   5.836  11.272 -0.8493 -0.3467 -0.2253
10110TIP3   OH251820   1.815   1.022   4.082  0.1120 -0.0166  0.0657
10110TIP3    H151821   1.896   1.070   4.064 -1.0824  1.4665 -1.7333
10110TIP3    H251822   1.747   1.089   4.077 -1.1947 -1.0347  2.4662
10111TIP3   OH251823   1.230   2.232  16.648  0.0025 -0.5776  0.3698
10111TIP3    H151824   1.143   2.257  16.617  0.0500  0.6319  1.1860
10111TIP3    H251825   1.213   2.179  16.726  0.0083  0.7852  1.3239
10112TIP3   OH251826   1.380   5.451  13.963  0.7494  0.1001 -0.0528
10112TIP3    H151827   1.473   5.439  13.977  1.0211  1.6875 -0.3175
10112TIP3    H251828   1.355   5.379  13.904  0.8949 -2.7967  3.1044
10113TIP3   OH251829   0.456   5.474   1.536 -0.1467 -0.2275  0.4156
10113TIP3    H151830   0.444   5.568   1.548 -2.3573 -0.6764  2.7225
10113TIP3    H251831   0.374   5.444   1.496  0.0572 -1.3279  0.7797
10114TIP3   OH251832   4.528   4.257   0.533  0.3159 -0.1738  0.3054
10114TIP3    H151833   4.529   4.188   0.600 -1.9930 -1.5096 -0.9094
10114TIP3    H251834   4.611   4.247   0.487  1.7353  0.4426  2.5369
10115TIP3   OH251835   2.472   0.659   6.241  0.2572  0.1929 -0.0821
10115TIP3    H151836   2.528   0.590   6.207 -0.6826 -0.5137 -0.2285
10115TIP3    H251837   2.528   0.708   6.301  1.7794  1.0533 -2.0652
10116TIP3   OH251838   6.571   6.062  15.580  0.3224 -0.2333 -0.7942
10116TIP3    H151839   6.598   6.004  15.509  0.8604 -1.2084  0.1827
10116TIP3    H251840   6.632   6.044  15.651 -0.9595 -0.1850  0.3667
10117TIP3   OH251841   3.675   0.191  14.537 -0.2469  0.0023 -0.7007
10117TIP3    H151842   3.627   0.127  14.484 -0.8925  1.1199 -1.5184
10117TIP3    H251843   3.607   0.242  14.581  0.2064  0.9749 -1.0966
10118TIP3   OH251844   1.140   1.166   3.949  0.6944 -0.3482 -0.1626
10118TIP3    H151845   1.070   1.176   4.013  0.0309  0.4463 -0.9928
10118TIP3    H251846   1.096   1.150   3.866  1.4182  1.2667 -0.9064
10119TIP3   OH251847   2.827   3.429  13.116 -0.0173 -0.3704 -0.4951
10119TIP3    H151848   2.874   3.357  13.074  0.2175 -0.3606 -0.2476
10119TIP3    H251849   2.827   3.499  13.050 -2.5160 -1.4558 -1.7854
10120TIP3   OH251850   4.741   5.960   1.383  0.5152 -0.3304  0.2743
10120TIP3    H151851   4.702   5.999   1.462  1.1452  0.9187  0.0038
10120TIP3    H251852   4.670   5.910   1.343 -0.4282  0.7910  0.4912
10121TIP3   OH251853   0.076   3.437  13.284 -0.1071  0.0305  0.2636
10121TIP3    H151854   0.051   3.521  13.322  0.1485  0.2592 -0.0633
10121TIP3    H251855   0.019   3.428  13.207 -0.7830 -0.5359  0.8179
10122TIP3   OH251856   1.470   2.027   1.099 -0.6801  0.1943 -0.3104
10122TIP3    H151857   1.407   2.098   1.115 -0.3950  0.4270 -0.2053
10122TIP3    H251858   1.551   2.059   1.139 -0.8116 -0.6324  0.6618
10123TIP3   OH251859   6.072   5.166  12.182  0.2787 -0.4482  0.5591
10123TIP3    H151860   6.024   5.233  12.133 -1.3094  0.4315  3.1613
10123TIP3    H251861   6.064   5.087  12.129  0.2115  0.8305 -1.4516
10124TIP3   OH251862   3.546   4.860   1.174  0.3929 -0.2021 -0.1782
10124TIP3    H151863   3.620   4.852   1.234  1.6619 -1.0781 -1.7480
10124TIP3    H251864   3.516   4.950   1.184  3.0970  0.9001 -1.0195
10125TIP3   OH251865   6.326   4.782  13.290 -0.1484  0.5223 -0.9401
10125TIP3    H151866   6.311   4.777  13.385 -0.8685 -1.7948 -1.1041
10125TIP3    H251867   6.252   4.833  13.257 -1.1341 -0.5503 -0.4559
10126TIP3   OH251868   6.100   3.178  15.405 -0.4543  0.2296 -0.0998
10126TIP3    H151869   6.157   3.135  15.469  0.8227 -0.1549 -1.4596
10126TIP3    H251870   6.030   3.115  15.390  0.4741 -0.6776 -0.7698
10127TIP3   OH251871   5.723   3.463  11.247 -0.1382  0.0044  0.1068
10127TIP3    H151872   5.744   3.548  11.207  0.1024 -0.5716 -1.0424
10127TIP3    H251873   5.640   3.477  11.292 -0.4466  0.6721 -0.6546
10128TIP3   OH251874   2.746   2.276  13.413  0.4108  0.2529  0.2377
10128TIP3    H151875   2.675   2.213  13.401  0.7165  0.1111 -0.9157
10128TIP3    H251876   2.804   2.234  13.477  1.5815 -1.5656 -1.8354
10129TIP3   OH251877   2.912   3.339   5.077 -0.0745 -0.0417  0.2503
10129TIP3    H151878   2.824   3.359   5.043 -0.1255  0.1898  0.5093
10129TIP3    H251879   2.927   3.248   5.054 -0.3200 -0.0369  0.0646
10130TIP3   OH251880   2.727   4.631   1.992 -0.1727  0.3084 -0.4544
10130TIP3    H151881   2.762   4.686   1.922  0.7030 -0.8006 -0.9121
10130TIP3    H251882   2.799   4.623   2.055 -0.1080 -0.7151 -0.6419
10131TIP3   OH251883   2.567   6.659  14.527  0.4239  0.5235  0.4443
10131TIP3    H151884   2.577   6.751  14.502 -2.5633  1.8569  3.3278
10131TIP3    H251885   2.484   6.632  14.488  2.2047 -1.7949 -2.1086
10132TIP3   OH251886   6.070   2.995   3.917 -0.6230  0.8944  0.0331
10132TIP3    H151887   6.042   3.041   3.838 -0.0060 -0.2184 -0.8625
10132TIP3    H251888   5.990   2.983   3.967 -1.0569  1.4310 -0.5124
10133TIP3   OH251889   5.195   3.118   4.553  0.4106 -0.5296 -0.0930
10133TIP3    H151890   5.206   3.027   4.523  1.3687  0.0790 -1.6961
10133TIP3    H251891   5.265   3.130   4.618  1.1111 -0.5711 -0.8229
10134TIP3   OH251892   3.306   2.685   4.053  0.4635 -0.1376 -0.1725
10134TIP3    H151893   3.290   2.745   3.981 -1.1262  1.1051  1.1336
10134TIP3    H251894   3.376   2.726   4.104  0.8167 -0.4540 -0.3981
10135TIP3   OH251895   4.725   6.070   6.134  0.3903 -0.6852  0.2368
10135TIP3    H151896   4.630   6.082   6.133  0.3554 -0.9829 -0.4305
10135TIP3    H251897   4.739   5.991   6.186  0.1291 -1.7374 -1.2329
10136TIP3   OH251898   3.759   3.454   4.121  0.0437  0.1912 -0.0511
10136TIP3    H151899   3.740   3.373   4.168 -1.5796  0.3882 -0.2834
10136TIP3    H251900   3.687   3.513   4.145  0.8350  1.3289 -0.4050
10137TIP3   OH251901   1.310   3.093   3.877 -0.4742  0.1000 -0.1248
10137TIP3    H151902   1.303   3.067   3.785 -0.8641  1.7482 -0.6050
10137TIP3    H251903   1.398   3.066   3.902  0.1557  0.8312 -1.4165
10138TIP3   OH251904   3.145   1.488   1.897 -0.5882  0.2787 -0.0109
10138TIP3    H151905   3.061   1.468   1.937  0.3163 -1.8925  0.9745
10138TIP3    H251906   3.187   1.403   1.885  2.2636  1.3571  1.3098
10139TIP3   OH251907   5.903   2.566  16.153  0.1612 -0.0309 -0.8163
10139TIP3    H151908   5.951   2.495  16.110  2.0486  0.4955  0.2832
10139TIP3    H251909   5.877   2.529  16.238 -2.0340 -0.5106 -1.6313
10140TIP3   OH251910   1.430   2.482   4.484  0.1721  0.8464 -0.0476
10140TIP3    H151911   1.513   2.451   4.448 -0.0532 -0.6986  0.7066
10140TIP3    H251912   1.390   2.531   4.412  1.2644  0.7359 -0.7576
10141TIP3   OH251913   4.432   5.883   0.225  0.3395 -0.0371 -0.2794
10141TIP3    H151914   4.474   5.857   0.307  0.3637 -0.5312 -0.4416
10141TIP3    H251915   4.475   5.965   0.200  0.2535  0.1713  0.2575
10142TIP3   OH251916   2.318   4.262  12.562 -0.0479 -0.4879 -0.1312
10142TIP3    H151917   2.249   4.208  12.600 -2.4465  2.2676 -0.2477
10142TIP3    H251918   2.350   4.316  12.634  1.3214 -1.0313 -0.2990
10143TIP3   OH251919   6.464   2.596  12.658  0.4472  0.1959  0.7994
10143TIP3    H151920   6.491   2.688  12.649  0.7074  0.0751  0.3286
10143TIP3    H251921   6.449   2.567  12.568  0.0323 -0.1244  0.9715
10144TIP3   OH251922   4.188   0.466   4.402 -0.4332  0.2247  0.9583
10144TIP3    H151923   4.245   0.415   4.345 -0.1009 -0.1950  1.6531
10144TIP3    H251924   4.149   0.532   4.344 -0.7619 -0.7158  0.0741
10145TIP3   OH251925   2.929   6.196  16.811 -0.0172 -0.3694  0.2551
10145TIP3    H151926   2.870   6.197  16.886 -0.1510 -0.2384  0.1507
10145TIP3    H251927   2.877   6.157  16.741  0.2290 -0.8302  0.3309
10146TIP3   OH251928   6.710   1.239  11.450  0.1999 -0.1829 -0.0335
10146TIP3    H151929   6.791   1.217  11.404  0.6424  0.2640  0.5249
10146TIP3    H251930   6.714   1.334  11.463 -0.3122 -0.1876  0.2013
10147TIP3   OH251931   5.918   1.750   5.210  0.3642 -1.1614  0.0824
10147TIP3    H151932   5.861   1.699   5.267  0.2431 -0.9450  0.1571
10147TIP3    H251933   5.955   1.686   5.149 -0.5292 -1.1938 -0.4386
10148TIP3   OH251934   1.004   2.609   5.877  0.5660  0.0592  0.3935
10148TIP3    H151935   1.022   2.699   5.902  4.9477 -0.6898  0.5800
10148TIP3    H251936   1.002   2.561   5.959  0.2765 -0.3189  0.1693
10149TIP3   OH251937   3.997   0.634   2.627  0.6284 -0.7183 -0.3043
10149TIP3    H151938   4.020   0.548   2.593  1.2375  0.0974 -2.0621
10149TIP3    H251939   3.902   0.640   2.618  0.6362 -1.0237 -0.5825
10150TIP3   OH251940   4.785   6.238  13.167 -0.4877  0.0232 -0.4550
10150TIP3    H151941   4.875   6.227  13.197  0.3071 -1.2061 -2.9765
10150TIP3    H251942   4.731   6.201  13.237  0.9061  1.0189  1.2130
10151TIP3   OH251943   5.396   0.324  14.778  0.3518  0.2567 -0.4553
10151TIP3    H151944   5.372   0.303  14.868  1.3524  0.9452 -0.0129
10151TIP3    H251945   5.410   0.239  14.736  0.9601 -0.0450  0.3454
10152TIP3   OH251946   3.534   5.138   0.493 -0.2934 -0.1922 -0.4071
10152TIP3    H151947   3.467   5.202   0.471  2.2874  2.1959 -1.9067
10152TIP3    H251948   3.575   5.173   0.572 -1.1418 -1.9912  0.9086
10153TIP3   OH251949   4.914   2.123   0.132 -0.1299  0.1781 -0.0857
10153TIP3    H151950   4.908   2.113   0.037  1.2642 -0.1773 -0.1478
10153TIP3    H251951   4.963   2.204   0.144  0.6757 -0.3667  0.3205
10154TIP3   OH251952   1.984   6.313  10.909 -0.4104 -0.0310  0.3078
10154TIP3    H151953   1.943   6.368  10.977 -0.3152 -1.7945  1.8587
10154TIP3    H251954   1.971   6.224  10.939  0.4868 -0.8439 -1.5639
10155TIP3   OH251955   6.815   1.501  14.184  0.5848  0.1239 -0.2414
10155TIP3    H151956   6.726   1.477  14.159  0.1097  2.0882 -0.5513
10155TIP3    H251957   6.806   1.585  14.229  2.1562 -0.2467  0.8353
10156TIP3   OH251958   6.292   0.965  14.519  0.0465 -0.7082 -0.0966
10156TIP3    H151959   6.370   0.915  14.543  0.2432 -0.2642  0.1943
10156TIP3    H251960   6.325   1.036  14.464  0.0419  0.2988  1.1531
10157TIP3   OH251961   6.130   4.066   3.283  0.3808 -0.1161  0.6631
10157TIP3    H151962   6.214   4.075   3.328  0.9779 -1.2712 -0.1796
10157TIP3    H251963   6.121   4.147   3.233  1.1721 -0.1343  0.4775
10158TIP3   OH251964   3.755   2.959   4.469  0.3502  0.5076 -0.1285
10158TIP3    H151965   3.819   2.951   4.540  0.5960  1.1175 -0.2702
10158TIP3    H251966   3.770   3.047   4.434  1.1643 -0.2605 -1.8358
10159TIP3   OH251967   5.237   5.397   5.827 -0.3504  0.5701 -0.7231
10159TIP3    H151968   5.309   5.459   5.815  0.9033 -0.4633  1.0124
10159TIP3    H251969   5.279   5.312   5.835 -1.7729 -0.0937  0.1407
10160TIP3   OH251970   1.199   4.088   5.858  0.2966  0.9110 -0.5923
10160TIP3    H151971   1.164   4.078   5.770 -0.3595 -0.4767 -0.2044
10160TIP3    H251972   1.218   4.181   5.867  0.3118  1.0740 -2.1645
10161TIP3   OH251973   2.827   2.824  10.699  0.3168  0.0715  0.6076
10161TIP3    H151974   2.752   2.851  10.645  0.9170 -1.3220 -1.0195
10161TIP3    H251975   2.877   2.905  10.712  0.9020  0.2700 -2.2132
10162TIP3   OH251976   5.824   0.373   1.473  0.2365  0.6539 -0.6149
10162TIP3    H151977   5.902   0.412   1.432  0.1304  1.5064 -0.0293
10162TIP3    H251978   5.859   0.309   1.535  0.3995 -0.7304 -2.0733
10163TIP3   OH251979   0.303   2.421   1.882 -0.2161 -0.0249  0.2032
10163TIP3    H151980   0.236   2.355   1.862 -1.2319  0.7523  0.9307
10163TIP3    H251981   0.371   2.373   1.929 -0.0122 -0.9250 -0.9520
10164TIP3   OH251982   0.241   0.520  11.293 -0.2261  0.5062  0.1853
10164TIP3    H151983   0.192   0.576  11.233 -2.3646  1.2172  2.4300
10164TIP3    H251984   0.198   0.435  11.287  0.6885  0.0805 -0.5451
10165TIP3   OH251985   5.983   0.008   6.030 -0.2800 -0.2914 -0.8954
10165TIP3    H151986   6.005   0.101   6.024  0.6970 -0.5648 -2.1956
10165TIP3    H251987   5.974  -0.009   6.124  2.2416  0.5423 -0.4160
10166TIP3   OH251988   1.744   5.515   2.861  0.5635  0.0686  0.9217
10166TIP3    H151989   1.765   5.484   2.773  0.4119 -0.6823  1.1429
10166TIP3    H251990   1.649   5.525   2.861  0.5507 -0.0562  1.0413
10167TIP3   OH251991   1.498   0.908  15.254  0.5428  0.0907  0.3416
10167TIP3    H151992   1.487   0.931  15.162  2.8151  0.6944  0.1708
10167TIP3    H251993   1.412   0.874  15.281 -0.5870  1.2517 -1.5847
10168TIP3   OH251994   6.200   1.751  12.622  0.3935 -0.0279  0.5846
10168TIP3    H151995   6.107   1.756  12.601  0.6357  0.6156 -0.3662
10168TIP3    H251996   6.241   1.722  12.541  1.0479 -0.1259  0.9462
10169TIP3   OH251997   6.100   1.680  15.800  0.0564  0.2447 -0.7132
10169TIP3    H151998   6.009   1.694  15.772 -0.3297 -0.1531  0.2945
10169TIP3    H251999   6.125   1.597  15.759  0.2941  0.8202 -1.7566
10170TIP3   OH252000   2.248   5.601  11.218 -0.0129 -0.0985  0.1145
10170TIP3    H152001   2.249   5.579  11.125  1.4013 -2.1523  0.5429
10170TIP3    H252002   2.236   5.517  11.262  1.7089  0.4743  1.8278
10171TIP3   OH252003   6.591   3.628  15.292  0.1616 -0.4977 -0.1091
10171TIP3    H152004   6.546   3.712  15.289  0.6826 -0.1418  1.3638
10171TIP3    H252005   6.605   3.606  15.200 -1.0210  0.4499 -0.5431
10172TIP3   OH252006   5.552   0.110  16.004  0.0390 -0.1476 -0.0388
10172TIP3    H152007   5.506   0.191  16.025 -1.1092 -1.0998  1.2643
10172TIP3    H252008   5.501   0.071  15.933 -1.8266 -1.6589  2.0187
10173TIP3   OH252009   4.854   3.517  13.535  0.2865  0.0240 -0.1937
10173TIP3    H152010   4.941   3.517  13.575  0.2558  0.1687 -0.1273
10173TIP3    H252011   4.834   3.609  13.519  1.0582 -0.1345 -2.2240
10174TIP3   OH252012   0.241   0.333  14.591 -0.0739 -0.2809 -0.3789
10174TIP3    H152013   0.260   0.427  14.600 -0.7247 -0.0133 -1.5287
10174TIP3    H252014   0.145   0.329  14.585  0.0201 -0.8295 -2.0314
10175TIP3   OH252015   0.540   0.794   5.313  0.2549 -1.0511  0.2529
10175TIP3    H152016   0.469   0.732   5.328 -0.8107 -0.2515 -1.1938
10175TIP3    H252017   0.497   0.880   5.316  1.6210 -0.3695  1.8323
10176TIP3   OH252018   0.390   6.139  10.861 -0.2877 -0.0632  0.1312
10176TIP3    H152019   0.438   6.185  10.792 -0.3258  0.5776  0.5175
10176TIP3    H252020   0.389   6.048  10.833  1.0593 -0.0735  0.0627
10177TIP3   OH252021   4.747   4.025  14.782 -0.0148 -0.5998  0.2966
10177TIP3    H152022   4.777   4.099  14.834 -0.2212  0.0701 -0.5047
10177TIP3    H252023   4.663   4.001  14.820 -0.4487  0.2724 -0.0864
10178TIP3   OH252024   0.525   0.186   4.510 -0.4223  0.4085 -0.4818
10178TIP3    H152025   0.604   0.143   4.475 -0.5704  0.3211 -0.7089
10178TIP3    H252026   0.548   0.279   4.513 -0.4030  0.4154 -0.7995
10179TIP3   OH252027   0.433   1.547   1.778  0.0236 -0.1416  0.4909
10179TIP3    H152028   0.447   1.455   1.755 -1.2079  0.0914 -1.4657
10179TIP3    H252029   0.349   1.548   1.824  0.4148 -0.0887  1.2039
10180TIP3   OH252030   6.606   4.431  14.200  0.2947  0.7272  0.2229
10180TIP3    H152031   6.620   4.484  14.121  0.9511 -0.5193 -0.5352
10180TIP3    H252032   6.534   4.372  14.177  1.7903 -1.0313 -0.2471
10181TIP3   OH252033   3.825   0.234   3.689  0.0875  0.6785  0.1522
10181TIP3    H152034   3.911   0.276   3.690  0.0899  0.6723  0.2110
10181TIP3    H252035   3.781   0.272   3.613  0.2302  0.5015 -0.0178
10182TIP3   OH252036   1.904   5.732   0.506 -0.4617 -1.0383  0.4221
10182TIP3    H152037   1.845   5.669   0.548  0.1226 -0.1538  2.7328
10182TIP3    H252038   1.850   5.808   0.488 -0.1336 -0.2369  2.5182
10183TIP3   OH252039   0.774   6.462   1.580  0.0071  0.4944 -0.0125
10183TIP3    H152040   0.682   6.453   1.606  0.0324 -1.3514 -0.3716
10183TIP3    H252041   0.771   6.501   1.492 -0.4386  0.4018 -0.0388
10184TIP3   OH252042   4.598   5.518  16.433  0.7964 -0.2091 -0.3406
10184TIP3    H152043   4.559   5.431  16.438  1.1406 -0.2895  2.3370
10184TIP3    H252044   4.581   5.557  16.519  0.6203  2.4052 -1.4681
10185TIP3   OH252045   1.155   0.435   0.091 -0.2955  0.0513 -0.1365
10185TIP3    H152046   1.062   0.450   0.105 -0.1849  1.1225 -0.5179
10185TIP3    H252047   1.190   0.422   0.180 -0.9121 -1.1398 -0.0395
10186TIP3   OH252048   5.968   1.192  15.229  0.6694  0.2988 -0.5546
10186TIP3    H152049   5.956   1.127  15.159  1.3612 -0.4809  0.0300
10186TIP3    H252050   5.953   1.143  15.310 -1.3737  1.4641 -0.1398
10187TIP3   OH252051   4.468   5.184   5.555  0.6907  0.3762  0.7059
10187TIP3    H152052   4.379   5.212   5.580  0.9318  1.1213  0.7448
10187TIP3    H252053   4.499   5.134   5.630  0.0783 -0.4133  0.4484
10188TIP3   OH252054   5.404   6.817   3.143 -0.3402 -0.5446  0.3364
10188TIP3    H152055   5.461   6.894   3.151  1.3279 -1.7203  0.1757
10188TIP3    H252056   5.384   6.813   3.049  0.7134 -1.0823  0.1254
10189TIP3   OH252057   0.512   4.090   1.838 -0.2024 -0.2966  0.4202
10189TIP3    H152058   0.463   4.046   1.769 -1.1619  0.4282  0.6269
10189TIP3    H252059   0.593   4.119   1.796 -0.9778  0.5443 -0.5322
10190TIP3   OH252060   2.727   6.457  14.642  0.5274  0.5238  0.3628
10190TIP3    H152061   2.696   6.532  14.591  0.7032  0.0123 -0.5350
10190TIP3    H252062   2.682   6.464  14.726 -0.8251  0.6667 -0.3366
10191TIP3   OH252063   5.798   5.698   0.545 -0.0509 -0.4907 -0.0203
10191TIP3    H152064   5.876   5.695   0.489 -0.7737  0.6082 -1.1422
10191TIP3    H252065   5.832   5.688   0.634  1.4516  0.6287 -0.4250
10192TIP3   OH252066   6.537   1.929  12.286 -0.0678  1.0109 -0.4110
10192TIP3    H152067   6.582   1.860  12.335  0.0678  0.3484 -1.4359
10192TIP3    H252068   6.446   1.925  12.316  0.1698  1.1413  0.3438
10193TIP3   OH252069   0.880   3.089   0.207 -0.0456  0.0675 -0.0691
10193TIP3    H152070   0.936   3.166   0.202  1.1269 -0.7926 -0.6648
10193TIP3    H252071   0.824   3.095   0.130  1.4458 -0.6807 -1.2771
10194TIP3   OH252072   1.028   1.471  14.898  0.5690  0.5480  0.5844
10194TIP3    H152073   1.021   1.385  14.940 -0.6171  0.3318 -0.0298
10194TIP3    H252074   1.057   1.451  14.809  2.5447  0.9710  1.0660
10195TIP3   OH252075   5.358   1.054  12.307  0.5768  0.1343  0.7755
10195TIP3    H152076   5.290   1.060  12.240  0.5242 -0.3002  0.7892
10195TIP3    H252077   5.433   1.101  12.269  0.4072  0.2538  0.5900
10196TIP3   OH252078   4.405   3.340  13.962 -0.3293  0.7327 -0.9995
10196TIP3    H152079   4.457   3.416  13.936 -0.0606  0.8694 -0.0965
10196TIP3    H252080   4.324   3.348  13.912 -0.4309  1.7808 -0.6886
10197TIP3   OH252081   1.023   4.091  14.400 -0.2824  0.4677 -0.3200
10197TIP3    H152082   0.982   4.177  14.408 -1.5498 -0.2639  1.5224
10197TIP3    H252083   1.075   4.082  14.479  1.5687  0.3530 -1.4810
10198TIP3   OH252084   0.462   4.488   0.168  0.6407 -0.7789  0.1099
10198TIP3    H152085   0.530   4.424   0.188  2.1021 -0.6276 -3.6104
10198TIP3    H252086   0.417   4.453   0.091 -1.1127  0.8726  0.3015
10199TIP3   OH252087   6.798   5.189   5.769 -0.2174 -0.1769 -0.8758
10199TIP3    H152088   6.805   5.173   5.863  0.8854 -1.1210 -1.0986
10199TIP3    H252089   6.885   5.172   5.735 -0.4412  0.7820 -2.0014
10200TIP3   OH252090   2.102   4.069   4.863 -0.3502  0.3571 -0.0588
10200TIP3    H152091   2.163   4.060   4.937  0.2688  1.4504 -0.4053
10200TIP3    H252092   2.092   4.164   4.853 -3.6625  0.2717  1.2333
10201TIP3   OH252093   2.269   1.416   0.864 -0.0714  0.1229 -0.2540
10201TIP3    H152094   2.212   1.479   0.819  0.1694  0.5671  0.0573
10201TIP3    H252095   2.337   1.470   0.904  0.4645 -0.3917 -0.4726
10202TIP3   OH252096   0.844   4.877   0.300  0.4380 -0.0350 -0.2727
10202TIP3    H152097   0.920   4.820   0.310 -0.0232 -0.5352  0.4353
10202TIP3    H252098   0.825   4.907   0.389  0.1891  0.5933 -0.5322
10203TIP3   OH252099   5.956   1.992  14.468 -0.1109  0.0843  0.2612
10203TIP3    H152100   6.016   1.937  14.518  0.1728 -0.5564 -0.7618
10203TIP3    H252101   5.957   2.076  14.514  0.0833 -0.4968  1.3668
10204TIP3   OH252102   2.801   0.346  11.386  0.2640  0.2463 -0.0937
10204TIP3    H152103   2.782   0.255  11.408 -1.1014  0.1888 -1.3730
10204TIP3    H252104   2.767   0.357  11.298  1.3433  1.7283 -0.3655
10205TIP3   OH252105   5.145   0.967  14.287  0.4247  0.3034  0.3571
10205TIP3    H152106   5.204   0.901  14.250 -1.7630 -0.6968 -1.6086
10205TIP3    H252107   5.183   0.987  14.373  2.5997 -1.5858 -0.0468
10206TIP3   OH252108   0.703   6.147   5.013  0.2639  0.1391 -0.1480
10206TIP3    H152109   0.753   6.114   4.938  1.0463  2.4490 -0.7284
10206TIP3    H252110   0.725   6.088   5.084  0.0913 -1.6725 -1.5299
10207TIP3   OH252111   5.103   4.393   3.051  0.1832  0.3904  0.1731
10207TIP3    H152112   5.015   4.370   3.078  0.8123  0.1526  2.1818
10207TIP3    H252113   5.119   4.479   3.090  0.3414  1.1131 -1.4109
10208TIP3   OH252114   5.914   3.117  14.536 -0.7994 -0.4586  1.2457
10208TIP3    H152115   5.840   3.140  14.480 -1.1267  0.7997  2.1671
10208TIP3    H252116   5.910   3.179  14.608  0.4613 -1.1394  1.9301
10209TIP3   OH252117   1.973   5.458   0.339 -0.6681  0.1495 -0.5234
10209TIP3    H152118   1.937   5.400   0.406  2.2871 -1.5340 -0.2138
10209TIP3    H252119   1.989   5.402   0.263  1.1783  0.7454 -0.6425
10210TIP3   OH252120   2.365   4.507  16.600  0.2992 -0.3330  0.2812
10210TIP3    H152121   2.325   4.484  16.684  0.4496  1.0953  0.7722
10210TIP3    H252122   2.328   4.593  16.579  1.2855 -0.0731 -0.4505
10211TIP3   OH252123   6.253   4.637  14.306  0.1212 -0.1581  0.3368
10211TIP3    H152124   6.298   4.688  14.374  0.3781  0.3776 -0.2193
10211TIP3    H252125   6.241   4.550  14.345 -0.9095  0.4828  1.5686
10212TIP3   OH252126   6.214   1.521  11.448  0.3001  0.3946 -0.5391
10212TIP3    H152127   6.237   1.548  11.537  0.8859  1.9405 -1.1191
10212TIP3    H252128   6.280   1.456  11.425  0.3126  0.1924  0.0503
10213TIP3   OH252129   5.588   6.479   2.746 -0.5904  0.0291 -0.2686
10213TIP3    H152130   5.556   6.562   2.708 -0.3816 -0.3132 -1.2307
10213TIP3    H252131   5.591   6.419   2.671 -1.0670 -0.9522  0.4870
10214TIP3   OH252132   2.596   5.236   6.276  0.0736 -0.8959  0.1283
10214TIP3    H152133   2.645   5.168   6.322  0.2165 -1.2410 -0.5151
10214TIP3    H252134   2.659   5.274   6.215  0.2252  0.3925  1.0518
10215TIP3   OH252135   4.713   5.955   5.882 -0.3115  0.3934 -0.0647
10215TIP3    H152136   4.726   5.999   5.966 -0.6718  0.6769 -0.1521
10215TIP3    H252137   4.745   6.018   5.817 -1.9254  1.0636 -0.2781
10216TIP3   OH252138   6.468   5.864  14.506 -1.5838  0.3026  0.3010
10216TIP3    H152139   6.408   5.929  14.544 -1.2150  1.2058 -0.6176
10216TIP3    H252140   6.482   5.894  14.416 -1.7142 -1.2858 -0.2661
10217TIP3   OH252141   5.600   6.342  15.109  0.4793  0.0943 -0.2975
10217TIP3    H152142   5.544   6.420  15.110  1.4197  0.8098 -0.9062
10217TIP3    H252143   5.642   6.344  15.023  3.5226  1.1464  1.0784
10218TIP3   OH252144   3.980   1.556  12.008 -0.1812  0.1151 -0.2105
10218TIP3    H152145   3.888   1.544  12.029  0.2532 -1.0017  1.2313
10218TIP3    H252146   4.012   1.468  11.989  0.8175  0.3291  0.3962
10219TIP3   OH252147   2.186   3.144   1.108 -0.5528 -0.0485  0.4851
10219TIP3    H152148   2.144   3.121   1.191 -1.7252 -0.0820 -0.1032
10219TIP3    H252149   2.180   3.239   1.104 -0.7512 -0.0688  0.3066
10220TIP3   OH252150   2.652   1.414   1.545 -0.3052  0.0174  0.3132
10220TIP3    H152151   2.638   1.357   1.469 -1.1258  0.5765  0.0313
10220TIP3    H252152   2.709   1.363   1.603 -1.1762 -1.1669  0.1673
10221TIP3   OH252153   4.503   4.181   4.801 -0.7575 -0.2520 -1.0052
10221TIP3    H152154   4.414   4.147   4.789 -0.2579 -1.1255 -2.3980
10221TIP3    H252155   4.502   4.267   4.759 -1.0506 -0.0720 -0.6374
10222TIP3   OH252156   5.164   5.565  16.767 -0.0786 -0.5335  0.4655
10222TIP3    H152157   5.104   5.636  16.787  0.5085  1.0208 -2.6977
10222TIP3    H252158   5.246   5.589  16.810 -1.0383 -1.7384  3.2303
10223TIP3   OH252159   2.457   2.918   3.230  0.1275 -0.1208 -0.3377
10223TIP3    H152160   2.438   2.871   3.148  0.2018 -1.0770  0.1803
10223TIP3    H252161   2.512   2.858   3.280 -1.5362 -0.3972  1.2538
10224TIP3   OH252162   1.299   5.350   4.156  0.3128 -0.1989 -0.1197
10224TIP3    H152163   1.330   5.389   4.237 -0.3029 -2.8504  1.5148
10224TIP3    H252164   1.370   5.363   4.094  1.4971  0.4277  1.3146
10225TIP3   OH252165   5.984   0.561  11.254 -0.0657  0.0038  0.2967
10225TIP3    H152166   5.984   0.622  11.329  0.3068 -0.0679  0.3569
10225TIP3    H252167   6.073   0.526  11.252  0.0138  0.2214 -0.3576
10226TIP3   OH252168   3.760   5.566   3.917 -0.2276 -0.3738  0.1860
10226TIP3    H152169   3.707   5.501   3.962  0.5786 -0.4650  1.0395
10226TIP3    H252170   3.764   5.536   3.826 -0.8366 -0.8738  0.3256
10227TIP3   OH252171   1.577   6.290   2.850  0.0191 -0.1041  0.2587
10227TIP3    H152172   1.567   6.196   2.840  1.4238 -0.3880  1.2275
10227TIP3    H252173   1.568   6.325   2.761  1.6472 -1.4033 -0.4629
10228TIP3   OH252174   1.519   1.809  11.809 -0.4106 -0.8070  0.5910
10228TIP3    H152175   1.484   1.897  11.795  0.9434 -0.4843 -1.1677
10228TIP3    H252176   1.576   1.817  11.885 -0.0857 -0.0784  0.2795
10229TIP3   OH252177   2.601   0.696   3.200  0.4453 -0.3758  0.1229
10229TIP3    H152178   2.534   0.645   3.154  1.5040 -0.6951 -1.1384
10229TIP3    H252179   2.598   0.664   3.290 -1.7069  0.2798  0.3369
10230TIP3   OH252180   0.877   0.226  14.340 -0.0076  0.3978 -0.0329
10230TIP3    H152181   0.805   0.212  14.402 -0.3689 -1.2061 -0.7576
10230TIP3    H252182   0.941   0.158  14.362 -0.8656 -1.3372 -2.3618
10231TIP3   OH252183   1.001   5.948   0.971  0.3850  0.1753  0.0160
10231TIP3    H152184   1.008   5.859   0.934 -0.5525 -0.8939  2.2472
10231TIP3    H252185   0.918   5.981   0.938  0.7260  0.2484 -0.8060
10232TIP3   OH252186   5.170   1.510   3.685  0.0191 -0.4903  0.4454
10232TIP3    H152187   5.130   1.473   3.764 -1.5521 -1.3727 -0.7126
10232TIP3    H252188   5.202   1.434   3.636  1.0918  0.0567  0.2576
10233TIP3   OH252189   2.425   3.400  14.060  0.2225  0.2303 -0.0131
10233TIP3    H152190   2.426   3.316  14.106  0.4368  1.3694  2.1859
10233TIP3    H252191   2.504   3.399  14.006 -0.3574 -1.4043 -0.8845
10234TIP3   OH252192   6.474   3.559  13.647  0.1763  0.6609 -0.1541
10234TIP3    H152193   6.407   3.571  13.714  0.9179  0.2235  0.6898
10234TIP3    H252194   6.556   3.554  13.696  0.6302 -0.7286 -1.0103
10235TIP3   OH252195   5.572   6.741  15.626 -0.4747 -0.3242  0.0657
10235TIP3    H152196   5.642   6.681  15.600 -0.5771  0.6537 -2.7642
10235TIP3    H252197   5.501   6.723  15.564 -1.4774  0.9745  0.7963
10236TIP3   OH252198   5.071   6.419  11.952  0.5383 -0.1477  0.4194
10236TIP3    H152199   5.119   6.494  11.986 -0.1657 -0.2241  1.6351
10236TIP3    H252200   5.127   6.344  11.972  1.2952  0.0347 -0.8966
10237TIP3   OH252201   2.645   5.499  14.186  0.1157  0.1699 -0.1110
10237TIP3    H152202   2.650   5.590  14.215 -2.5642  0.4613 -0.3542
10237TIP3    H252203   2.641   5.448  14.267  0.5273  0.3338  0.0165
10238TIP3   OH252204   4.975   4.379  13.418 -0.0634 -0.3137  0.1007
10238TIP3    H152205   4.901   4.333  13.378  0.6214 -0.3325 -1.1868
10238TIP3    H252206   4.946   4.397  13.508 -0.8162 -2.1538  0.2702
10239TIP3   OH252207   4.143   3.166  13.534 -0.2747  0.0194 -0.0923
10239TIP3    H152208   4.114   3.224  13.605  1.4925  1.2942 -0.3384
10239TIP3    H252209   4.103   3.203  13.456 -1.0403 -0.5289  0.0200
10240TIP3   OH252210   3.920   1.596  14.872  0.4940 -0.5473 -0.0077
10240TIP3    H152211   3.947   1.516  14.918 -2.0127 -2.9521 -2.3717
10240TIP3    H252212   3.825   1.596  14.878  0.3711  1.6534 -1.1365
10241TIP3   OH252213   2.306   5.964   2.913 -0.3325  0.4193 -0.3033
10241TIP3    H152214   2.380   5.932   2.964  0.1941 -1.5501 -2.1546
10241TIP3    H252215   2.236   5.975   2.976  0.8813  0.1350  1.1483
10242TIP3   OH252216   0.777   3.724   3.270  0.2714 -0.6013 -0.0164
10242TIP3    H152217   0.733   3.663   3.211  0.0917  0.3169 -0.8727
10242TIP3    H252218   0.813   3.791   3.212  1.3762 -0.4553  0.8158
10243TIP3   OH252219   5.369   5.834  16.066  0.5672 -0.3952  0.0483
10243TIP3    H152220   5.463   5.818  16.075  1.0928  1.4448 -1.6772
10243TIP3    H252221   5.351   5.824  15.973 -1.4346 -2.8244  0.5702
10244TIP3   OH252222   0.195   3.958   0.097 -0.3571  0.1774 -0.0582
10244TIP3    H152223   0.234   3.871   0.104 -1.5781 -0.3963 -0.3153
10244TIP3    H252224   0.105   3.943   0.070 -0.0893  1.6144 -1.9458
10245TIP3   OH252225   6.566   4.167  12.773  0.2722  0.6140 -0.6455
10245TIP3    H152226   6.535   4.104  12.707  0.6070  1.1568 -1.3387
10245TIP3    H252227   6.507   4.155  12.847 -0.6237  0.5439 -1.3478
10246TIP3   OH252228   2.650   4.791  11.390 -0.0219 -0.1326  0.8634
10246TIP3    H152229   2.706   4.715  11.406 -0.6640 -0.6808  0.5225
10246TIP3    H252230   2.657   4.806  11.296  0.6107  0.6425  1.0181
10247TIP3   OH252231   2.790   1.414  13.515  0.2401 -0.1636 -0.3682
10247TIP3    H152232   2.787   1.507  13.541 -0.6676 -0.7279  1.8120
10247TIP3    H252233   2.860   1.376  13.568 -1.4570 -1.3094  1.1762
10248TIP3   OH252234   6.044   2.655  13.272 -0.2658  0.1130 -0.5670
10248TIP3    H152235   5.992   2.734  13.287 -0.8688 -0.2643 -0.6180
10248TIP3    H252236   5.990   2.584  13.308  0.0703 -0.3199 -0.9105
10249TIP3   OH252237   2.918   6.286   1.758 -0.3319  0.4134  0.1120
10249TIP3    H152238   2.989   6.241   1.713  0.5114  0.4897  1.3330
10249TIP3    H252239   2.954   6.371   1.781 -0.4266  0.0299  1.7468
10250TIP3   OH252240   4.365   6.188   0.355 -0.0370 -0.1923  0.1653
10250TIP3    H152241   4.375   6.173   0.261 -0.7769 -0.3212  0.1039
10250TIP3    H252242   4.453   6.210   0.385  0.1365  0.2083 -0.6226
10251TIP3   OH252243   6.662   2.773   2.499 -0.5873 -0.0095  0.3305
10251TIP3    H152244   6.683   2.863   2.524  2.3909 -0.9194  1.6084
10251TIP3    H252245   6.640   2.730   2.581 -0.4843 -0.7825 -0.0364
10252TIP3   OH252246   3.525   3.263   4.216 -0.2851 -0.1978 -0.1367
10252TIP3    H152247   3.595   3.252   4.280 -0.4093  1.6415  0.3551
10252TIP3    H252248   3.512   3.175   4.179 -1.2444 -1.7234  3.3856
10253TIP3   OH252249   4.709   1.866  10.341 -0.0265 -0.1673 -0.2271
10253TIP3    H152250   4.635   1.921  10.369  0.2715 -0.6712  1.7571
10253TIP3    H252251   4.669   1.792  10.297 -0.5127  0.8970 -1.6522
10254TIP3   OH252252   0.497   2.552   0.102 -0.2289  0.7404 -0.1431
10254TIP3    H152253   0.417   2.511   0.069 -0.0321  2.1794 -2.6515
10254TIP3    H252254   0.470   2.595   0.184 -2.0490  1.1771 -0.9105
10255TIP3   OH252255   5.359   5.381   5.309 -0.0778 -0.6047 -0.0212
10255TIP3    H152256   5.397   5.414   5.227  0.6104 -0.5804  0.3016
10255TIP3    H252257   5.357   5.286   5.299  0.3839 -0.6276  0.0933
10256TIP3   OH252258   3.347   2.980  14.260 -0.0591  0.8809  0.1425
10256TIP3    H152259   3.379   2.890  14.263 -0.4973  0.5852 -2.1011
10256TIP3    H252260   3.256   2.974  14.288 -0.1499  0.5910 -0.2123
10257TIP3   OH252261   2.679   2.226   1.592  0.8401 -0.0923 -0.0965
10257TIP3    H152262   2.685   2.304   1.646 -1.8281  0.2294 -0.0945
10257TIP3    H252263   2.705   2.255   1.505  0.8013  0.5492  0.1006
10258TIP3   OH252264   2.619   4.834  13.303  0.3355  0.2283  0.6639
10258TIP3    H152265   2.575   4.795  13.378 -0.3956  0.5098  0.3941
10258TIP3    H252266   2.552   4.836  13.235  1.0377 -0.1712 -0.0479
10259TIP3   OH252267   0.387   3.965   1.634  0.1649 -0.0488  0.3402
10259TIP3    H152268   0.382   3.875   1.600 -2.3676  0.0663  0.2421
10259TIP3    H252269   0.397   4.020   1.556 -2.8863  0.0198 -0.0909
10260TIP3   OH252270   4.343   4.195  15.485  0.0988 -0.3868  0.2946
10260TIP3    H152271   4.359   4.246  15.564  1.9698  1.6790 -1.2878
10260TIP3    H252272   4.398   4.117  15.495 -0.5840 -0.7418  1.4897
10261TIP3   OH252273   3.284   6.811   2.785 -0.0212 -0.3406 -0.1707
10261TIP3    H152274   3.333   6.845   2.710  0.3966  0.0870  0.2898
10261TIP3    H252275   3.209   6.766   2.746 -0.0918  0.3261 -0.8260
10262TIP3   OH252276   2.099   1.971  11.602 -0.2543  0.1159  0.3420
10262TIP3    H152277   2.035   1.902  11.586  0.4077 -0.0716 -1.7166
10262TIP3    H252278   2.175   1.948  11.549  0.2987  1.9920  0.2170
10263TIP3   OH252279   3.609   5.750   0.239 -0.0578 -0.5379  0.3386
10263TIP3    H152280   3.701   5.776   0.237 -0.4528  0.8551 -0.9976
10263TIP3    H252281   3.609   5.667   0.287  1.9484 -0.7872 -0.0063
10264TIP3   OH252282   0.629   5.927   1.700 -0.2987 -0.4768 -0.1059
10264TIP3    H152283   0.721   5.903   1.704 -0.2121 -0.4616 -1.5222
10264TIP3    H252284   0.621   5.978   1.619 -0.7326  3.1402  1.9973
10265TIP3   OH252285   3.445   3.206  14.864 -0.1770 -0.1399 -0.4042
10265TIP3    H152286   3.523   3.245  14.824 -0.0460 -0.2076 -0.2150
10265TIP3    H252287   3.385   3.280  14.878  0.8371  0.3465  1.7871
10266TIP3   OH252288   5.501   4.552   1.280  0.2272  0.0115 -0.5526
10266TIP3    H152289   5.441   4.609   1.327  0.0294  0.1847 -1.0019
10266TIP3    H252290   5.444   4.490   1.234  0.3395  0.7122 -1.6691
10267TIP3   OH252291   4.568   2.089  16.800  0.0240  0.0963 -0.2554
10267TIP3    H152292   4.549   2.183  16.806 -0.1108  0.0273  0.4434
10267TIP3    H252293   4.630   2.082  16.727  0.5160  0.8027  0.0895
10268TIP3   OH252294   2.172   0.129  11.153  0.0843 -0.5746  0.3550
10268TIP3    H152295   2.205   0.091  11.234  1.2727 -0.4296 -0.0390
10268TIP3    H252296   2.174   0.057  11.090 -2.7023 -1.2366  0.8721
10269TIP3   OH252297   5.420   5.069   4.291 -0.1178  0.4954  0.2007
10269TIP3    H152298   5.377   5.080   4.206  0.0197 -3.7416 -0.6196
10269TIP3    H252299   5.349   5.044   4.351  0.1641  0.8542  0.6930
10270TIP3   OH252300   6.286   4.716  11.341 -0.6397  0.0077 -0.5463
10270TIP3    H152301   6.240   4.648  11.290 -1.4098  0.0179  0.1251
10270TIP3    H252302   6.378   4.698  11.325 -0.8125 -1.5717  0.0783
10271TIP3   OH252303   5.734   6.061   5.605  0.5468 -0.1319  0.6465
10271TIP3    H152304   5.817   6.081   5.648 -0.5098  2.7096  1.6523
10271TIP3    H252305   5.683   6.142   5.612 -2.5257 -1.8685  0.5283
10272TIP3   OH252306   1.836   0.363   4.247 -0.4335  0.1283  0.1779
10272TIP3    H152307   1.765   0.309   4.212  0.6810 -0.2402 -1.6747
10272TIP3    H252308   1.801   0.452   4.249 -1.1627 -0.1528 -0.0733
10273TIP3   OH252309   4.211   5.917  13.741  0.2585  0.3224 -0.0190
10273TIP3    H152310   4.306   5.908  13.751  0.4811  0.3675 -1.7060
10273TIP3    H252311   4.188   5.851  13.676 -0.2817  2.4154 -2.1275
10274TIP3   OH252312   3.439   1.859   3.017  0.5664 -0.4298  0.0770
10274TIP3    H152313   3.381   1.897   3.083  0.5877  0.4177 -0.3706
10274TIP3    H252314   3.498   1.802   3.066  0.1462 -0.3316  0.6977
10275TIP3   OH252315   5.104   2.966   2.241  0.0093  0.0279  0.2831
10275TIP3    H152316   5.165   2.926   2.303  0.4402  0.3522  0.0707
10275TIP3    H252317   5.144   2.951   2.155 -1.0629 -1.3094 -0.0277
10276TIP3   OH252318   1.860   6.538   5.952  0.4133 -0.7372 -0.3206
10276TIP3    H152319   1.894   6.591   6.024 -0.4411  0.8825 -1.0527
10276TIP3    H252320   1.934   6.529   5.892  1.3308 -2.6575  0.9834
10277TIP3   OH252321   0.275   5.091  17.095  0.2995  0.3501 -0.7609
10277TIP3    H152322   0.183   5.115  17.093 -0.1371 -1.2588 -1.3144
10277TIP3    H252323   0.294   5.059  17.007  1.0328 -0.5674 -0.2813
10278TIP3   OH252324   6.158   6.283  11.859  0.4892 -0.7283 -0.2630
10278TIP3    H152325   6.231   6.276  11.797  0.5579  0.1024 -0.2881
10278TIP3    H252326   6.120   6.369  11.841 -1.8426 -1.9497 -1.7379
10279TIP3   OH252327   6.682   3.907   1.310 -0.3328  0.2450  0.3628
10279TIP3    H152328   6.600   3.937   1.350 -0.3482  1.4544 -0.5178
10279TIP3    H252329   6.672   3.927   1.217  1.1246  0.7783  0.3040
10280TIP3   OH252330   0.028   5.998  12.244  0.1398  0.4502  0.0929
10280TIP3    H152331  -0.043   6.046  12.200 -0.3173  1.6548  2.0072
10280TIP3    H252332   0.088   5.974  12.173 -1.3442  0.8364 -1.3795
10281TIP3   OH252333   4.439   1.849  15.648 -0.7645 -0.0267 -0.3674
10281TIP3    H152334   4.471   1.928  15.692  1.0671 -1.3581  0.8099
10281TIP3    H252335   4.362   1.879  15.599 -1.0026  2.1747  1.2079
10282TIP3   OH252336   4.320   5.322   2.065 -0.2919  0.0011 -0.3493
10282TIP3    H152337   4.270   5.258   2.116 -0.7261 -1.1763 -2.1553
10282TIP3    H252338   4.409   5.286   2.063  0.1955  1.0304  1.1168
10283TIP3   OH252339   5.508   1.549  14.899  0.2350  0.3210  0.2116
10283TIP3    H152340   5.600   1.525  14.910  0.1846 -0.0943 -0.2483
10283TIP3    H252341   5.496   1.624  14.957  0.5967 -0.2656  1.0631
10284TIP3   OH252342   1.658   1.824   0.411  0.4776 -0.0151  0.2909
10284TIP3    H152343   1.610   1.747   0.440 -1.4406  0.5667 -1.1748
10284TIP3    H252344   1.614   1.898   0.452  1.9200  0.3951  1.1889
10285TIP3   OH252345   4.938   3.080   1.534  0.0183  0.0191 -0.7245
10285TIP3    H152346   4.979   3.157   1.573  2.8610 -1.3626 -0.6624
10285TIP3    H252347   4.991   3.063   1.455 -0.0087 -2.2572 -0.3114
10286TIP3   OH252348   0.304   3.075  12.844 -0.5134 -0.3689 -0.1616
10286TIP3    H152349   0.371   3.071  12.912  1.0113 -0.8833 -1.6032
10286TIP3    H252350   0.324   3.156  12.796 -0.1187 -1.1521 -1.3604
10287TIP3   OH252351   2.511   5.554   0.571  0.4212 -0.0611 -0.0331
10287TIP3    H152352   2.575   5.574   0.639 -0.1955 -1.1794  0.9181
10287TIP3    H252353   2.543   5.472   0.533  0.7970  0.5880 -1.1694
10288TIP3   OH252354   3.327   0.472  11.973 -0.2765 -0.1165  0.2211
10288TIP3    H152355   3.247   0.499  12.018  0.5023  0.6985  1.1589
10288TIP3    H252356   3.324   0.519  11.889 -0.3779  0.5657  0.5984
10289TIP3   OH252357   5.261   4.843  14.950  0.4942  0.2954 -0.7656
10289TIP3    H152358   5.284   4.901  14.877 -1.0541  0.5103 -1.1232
10289TIP3    H252359   5.222   4.900  15.016  0.3899 -0.1191 -0.4620
10290TIP3   OH252360   2.608   0.502   2.505 -0.0186  0.5637 -0.4445
10290TIP3    H152361   2.667   0.561   2.552  1.4623  0.5853 -2.2472
10290TIP3    H252362   2.581   0.551   2.427 -1.1916 -0.0461 -0.4481
10291TIP3   OH252363   1.458   6.003   5.166  0.3552 -0.3409 -0.0662
10291TIP3    H152364   1.435   6.034   5.254  0.2727 -0.3938 -0.0690
10291TIP3    H252365   1.389   6.039   5.110  0.1965 -0.6247 -0.0535
10292TIP3   OH252366   0.419   5.003   3.271 -0.0140 -0.0498  0.4671
10292TIP3    H152367   0.429   4.910   3.294  0.6093  0.5497  3.0233
10292TIP3    H252368   0.326   5.021   3.287  0.0710 -0.0335  0.9882
10293TIP3   OH252369   0.279   2.069  16.190 -0.1433  0.2165  0.3620
10293TIP3    H152370   0.258   2.150  16.143 -0.2294 -0.6235 -1.0995
10293TIP3    H252371   0.195   2.023  16.196 -0.4174  0.8992  2.5963
10294TIP3   OH252372   3.073   3.505   4.477 -0.5710  0.3268  0.2867
10294TIP3    H152373   3.104   3.566   4.410 -0.8180 -0.8299 -0.9186
10294TIP3    H252374   3.112   3.537   4.559 -0.6051  2.0149 -0.3189
10295TIP3   OH252375   5.565   3.303   4.542 -0.8055 -0.5346  0.1996
10295TIP3    H152376   5.644   3.277   4.494  0.3496  2.3835  0.3030
10295TIP3    H252377   5.533   3.381   4.496 -3.1142 -1.0723  0.7491
10296TIP3   OH252378   0.856   5.215   4.049  0.1755 -0.4566  0.0965
10296TIP3    H152379   0.923   5.284   4.050  0.4590 -0.6891 -1.1715
10296TIP3    H252380   0.796   5.241   3.980 -0.2730 -0.9727  0.2903
10297TIP3   OH252381   1.369   4.311   3.670 -0.3096  0.4259 -0.0529
10297TIP3    H152382   1.362   4.290   3.763 -1.2744  0.3860 -0.1251
10297TIP3    H252383   1.449   4.268   3.641 -0.1869  0.1532  0.6883
10298TIP3   OH252384   4.258   5.633   6.784 -0.5522 -0.2930 -0.0558
10298TIP3    H152385   4.197   5.626   6.711  1.3627 -1.0908 -1.6792
10298TIP3    H252386   4.295   5.545   6.793  1.3246  0.4467 -0.0630
10299TIP3   OH252387   5.319   1.111  13.828  0.2170  0.0342 -0.1049
10299TIP3    H152388   5.340   1.196  13.868  0.8695  0.4111 -1.1883
10299TIP3    H252389   5.403   1.078  13.797 -0.2659 -0.1955 -1.2289
10300TIP3   OH252390   3.793   6.100  11.177  0.1210 -1.3395 -0.9105
10300TIP3    H152391   3.785   6.168  11.110  0.6172 -0.3866 -0.0172
10300TIP3    H252392   3.856   6.038  11.139  2.2353  0.3782 -0.4279
10301TIP3   OH252393   3.930   3.048   0.485  0.1033  0.6000 -0.6570
10301TIP3    H152394   3.882   3.119   0.526 -0.2499  0.0597 -0.1155
10301TIP3    H252395   3.862   2.994   0.444  0.1801 -0.3599  0.4133
10302TIP3   OH252396   5.506   5.718  12.408 -0.2352  0.1367  0.1858
10302TIP3    H152397   5.545   5.700  12.493  0.8365  1.8482  0.1042
10302TIP3    H252398   5.555   5.662  12.347  0.1194  0.1290  0.4734
10303TIP3   OH252399   4.883   3.859  16.806  0.0447  0.2710 -0.4579
10303TIP3    H152400   4.844   3.936  16.848 -2.0137 -0.1964 -1.4183
10303TIP3    H252401   4.927   3.894  16.728  2.2104  0.8736  0.9236
10304TIP3   OH252402   4.797   6.721   0.409 -0.3937  0.1742 -0.2195
10304TIP3    H152403   4.723   6.660   0.400 -0.2282 -0.0230 -0.2656
10304TIP3    H252404   4.810   6.728   0.504  0.3988 -0.8638 -0.2384
10305TIP3   OH252405   4.975   1.541   2.941 -0.3503  0.3460  0.5462
10305TIP3    H152406   4.892   1.559   2.898  0.1615 -1.6037 -1.4381
10305TIP3    H252407   5.032   1.612   2.914 -0.8743  0.7316  0.4438
10306TIP3   OH252408   4.738   6.223   3.113 -0.6483  0.0858  0.3330
10306TIP3    H152409   4.737   6.280   3.036  0.3890 -0.7609 -0.3550
10306TIP3    H252410   4.678   6.152   3.091 -0.1309 -0.3087  0.1670
10307TIP3   OH252411   6.259   1.137  11.928 -0.4124  0.2907 -0.0343
10307TIP3    H152412   6.295   1.135  11.839  3.0393  1.0351  1.1939
10307TIP3    H252413   6.249   1.230  11.947 -2.0332  0.1130  0.0760
10308TIP3   OH252414   2.128   6.158  13.270  0.1024  0.3543  0.5425
10308TIP3    H152415   2.129   6.062  13.277  1.5779 -0.0566 -3.0664
10308TIP3    H252416   2.191   6.187  13.336  0.6229 -1.2996  0.8372
10309TIP3   OH252417   3.213   5.385   0.737 -0.4506  0.6845  0.5183
10309TIP3    H152418   3.246   5.422   0.819 -3.0803  0.4245  1.7858
10309TIP3    H252419   3.189   5.295   0.758 -0.0811  0.2293 -0.8679
10310TIP3   OH252420   2.350   3.787   5.251 -0.2259 -0.0316  0.0844
10310TIP3    H152421   2.401   3.707   5.260 -0.1751 -0.0430 -0.2905
10310TIP3    H252422   2.277   3.777   5.312 -1.0763 -1.0293 -1.0584
10311TIP3   OH252423   0.457   0.447   5.941 -0.3219 -0.0984 -0.6798
10311TIP3    H152424   0.444   0.419   5.850  0.3524  0.1678 -0.8667
10311TIP3    H252425   0.467   0.366   5.991 -1.0868 -0.2604 -0.7726
10312TIP3   OH252426   3.957   2.448  14.065 -0.2790 -0.3135  0.2329
10312TIP3    H152427   4.005   2.530  14.071 -1.7739  0.5623  0.7297
10312TIP3    H252428   3.952   2.417  14.156  0.2363 -0.9479  0.0553
10313TIP3   OH252429   4.869   5.107  15.702  0.1963  0.0613 -0.4175
10313TIP3    H152430   4.817   5.060  15.638  1.2735  0.3483 -1.5375
10313TIP3    H252431   4.960   5.082  15.683  0.8591  2.7719 -1.2854
10314TIP3   OH252432   4.986   1.018  16.181 -0.6105  0.2505 -0.0163
10314TIP3    H152433   4.938   0.966  16.246  1.1574  0.2618  1.3850
10314TIP3    H252434   4.926   1.090  16.158 -2.2185 -1.1243 -0.3042
10315TIP3   OH252435   0.856   1.501  14.306 -0.5959  0.3146 -0.1673
10315TIP3    H152436   0.886   1.540  14.388 -0.2050 -0.8032  0.2396
10315TIP3    H252437   0.896   1.414  14.305 -1.6423 -0.1747 -0.9248
10316TIP3   OH252438   6.192   4.685   3.799 -0.2540  0.0824 -0.2045
10316TIP3    H152439   6.109   4.678   3.751 -0.1272  0.7577 -0.5312
10316TIP3    H252440   6.238   4.603   3.780 -1.8631 -1.4405  1.9694
10317TIP3   OH252441   4.199   4.872   5.616 -0.3364 -0.3697 -0.5195
10317TIP3    H152442   4.140   4.942   5.586 -2.2370 -1.0493  1.3832
10317TIP3    H252443   4.209   4.887   5.710  1.3165 -1.2043 -0.5240
10318TIP3   OH252444   2.530   2.139  12.572 -0.0775 -0.0719  0.0977
10318TIP3    H152445   2.504   2.153  12.663 -0.5943 -0.0853 -0.0420
10318TIP3    H252446   2.524   2.044  12.559 -1.9553  0.0785 -0.4929
10319TIP3   OH252447   5.463   3.562  14.080 -0.1938  0.5712  0.0622
10319TIP3    H152448   5.520   3.605  14.144  1.2841  0.2070 -0.9668
10319TIP3    H252449   5.471   3.469  14.101 -0.6116  0.5324  0.0571
10320TIP3   OH252450   2.620   5.177  17.033  0.6627  0.3108  0.0594
10320TIP3    H152451   2.649   5.254  17.082 -0.0760 -0.0986  1.1809
10320TIP3    H252452   2.699   5.145  16.989  0.8835  1.9561 -0.7815
10321TIP3   OH252453   4.220   6.746   3.058 -0.1189 -0.3186  0.6246
10321TIP3    H152454   4.304   6.699   3.066  0.3677  0.0380 -1.7364
10321TIP3    H252455   4.185   6.746   3.147  2.1886 -0.8349  1.6260
10322TIP3   OH252456   6.052   2.308   0.446 -0.0017  0.2131 -0.0552
10322TIP3    H152457   6.118   2.246   0.476  0.8979  1.9592  1.7698
10322TIP3    H252458   5.995   2.257   0.389  2.1404 -1.6679 -0.6353
10323TIP3   OH252459   1.484   3.046  16.871 -0.4853  0.4990 -0.2320
10323TIP3    H152460   1.560   3.105  16.868  0.2704 -0.4872 -1.7020
10323TIP3    H252461   1.484   3.011  16.960  0.2706  1.1514  0.0381
10324TIP3   OH252462   5.361   3.185   3.509  0.3233  0.4014 -0.3613
10324TIP3    H152463   5.401   3.191   3.596  0.2526 -0.6661 -0.2381
10324TIP3    H252464   5.388   3.099   3.477 -0.4571  0.3856 -0.9880
10325TIP3   OH252465   6.432   4.916   4.096 -0.7705 -0.0716 -0.1652
10325TIP3    H152466   6.475   4.906   4.181 -0.0142 -0.7471 -0.6057
10325TIP3    H252467   6.501   4.946   4.037 -1.0433 -0.5703 -0.7565
10326TIP3   OH252468   6.513   6.798  12.507  0.3855 -0.0698 -0.5494
10326TIP3    H152469   6.468   6.725  12.463 -0.0710  0.3906 -0.8657
10326TIP3    H252470   6.556   6.845  12.435  0.2695  0.2487 -0.4103
10327TIP3   OH252471   6.567   1.964  16.577 -0.0780  0.6225  0.2278
10327TIP3    H152472   6.490   1.998  16.530 -0.1656  0.2191  0.0754
10327TIP3    H252473   6.579   1.876  16.542 -1.0418 -0.2599  2.0206
10328TIP3   OH252474   2.227   1.105  16.454  0.1091 -0.5787  0.6353
10328TIP3    H152475   2.300   1.162  16.479  1.2528 -2.0151  0.7686
10328TIP3    H252476   2.234   1.099  16.359 -0.1546 -0.3109  0.5997
10329TIP3   OH252477   2.108   3.504   6.129  0.5142  0.2956 -0.1208
10329TIP3    H152478   2.121   3.471   6.040  1.5749  0.3055  0.0184
10329TIP3    H252479   2.060   3.586   6.118  0.6275  0.2902 -0.6779
10330TIP3   OH252480   5.202   1.481  11.207  0.6682  0.2996 -0.2471
10330TIP3    H152481   5.293   1.480  11.175  0.7219  2.3764 -0.3320
10330TIP3    H252482   5.152   1.442  11.135  1.3864  0.0398 -0.6237
10331TIP3   OH252483   6.247   4.045  11.876  0.0653  0.2578 -0.1824
10331TIP3    H152484   6.187   4.070  11.946  0.6597 -1.0409  0.8255
10331TIP3    H252485   6.331   4.034  11.919  0.4819 -0.3764 -1.1263
10332TIP3   OH252486   4.920   2.092   0.871 -0.0986 -0.0776 -0.3038
10332TIP3    H152487   4.958   2.179   0.884 -0.6442  0.1707 -0.3553
10332TIP3    H252488   4.862   2.102   0.796  0.7070 -0.7686 -1.0454
10333TIP3   OH252489   4.852   5.364   2.629 -0.4476  0.7901 -0.0420
10333TIP3    H152490   4.882   5.302   2.562 -0.5344  0.0023  0.6246
10333TIP3    H252491   4.930   5.381   2.682 -0.3710  1.4403 -0.3573
10334TIP3   OH252492   3.680   2.874  15.349  0.4264 -0.1582 -0.5308
10334TIP3    H152493   3.737   2.934  15.398 -2.0140 -0.3045  2.8166
10334TIP3    H252494   3.687   2.790  15.395 -1.4375 -0.5108 -0.7930
10335TIP3   OH252495   1.884   3.474  11.919  0.1849 -0.2510  0.2546
10335TIP3    H152496   1.789   3.461  11.913 -0.1696  1.7779  0.5967
10335TIP3    H252497   1.919   3.431  11.842 -1.1689  0.1091 -0.6018
10336TIP3   OH252498   0.708   0.663  13.525  0.1585  0.6611  0.0660
10336TIP3    H152499   0.750   0.748  13.537  1.9873 -0.0260 -1.0026
10336TIP3    H252500   0.694   0.630  13.614  0.4191  1.6148  0.4704
10337TIP3   OH252501   2.161   6.329  16.857  0.2136  0.0171  0.4117
10337TIP3    H152502   2.075   6.334  16.898 -0.5523 -0.9197 -0.9921
10337TIP3    H252503   2.144   6.297  16.769  2.0819 -1.1344  0.4068
10338TIP3   OH252504   0.176   1.973  16.940 -0.2691 -0.5501 -0.5886
10338TIP3    H152505   0.104   1.989  16.878 -1.0327 -0.8954  0.1863
10338TIP3    H252506   0.188   2.057  16.984 -0.6863 -0.6790 -0.2224
10339TIP3   OH252507   3.234   1.951  11.187  0.0485  0.5108  0.5400
10339TIP3    H152508   3.215   1.923  11.097  2.0405  3.3764 -0.9344
10339TIP3    H252509   3.168   2.017  11.206  1.2236  1.9009  0.0168
10340TIP3   OH252510   2.892   1.704   4.821 -0.2982 -0.0054 -0.1629
10340TIP3    H152511   2.871   1.780   4.875 -0.4710 -0.9402  1.1367
10340TIP3    H252512   2.810   1.654   4.816  0.4554 -1.4948  1.3400
10341TIP3   OH252513   4.117   1.599   2.724  0.1817 -0.4286 -0.0412
10341TIP3    H152514   4.082   1.574   2.809  1.7927 -0.4637  0.6272
10341TIP3    H252515   4.045   1.649   2.683 -0.9217 -1.1446  0.9613
10342TIP3   OH252516   5.721   2.283  17.032  0.4502 -0.2725  0.1127
10342TIP3    H152517   5.678   2.198  17.026 -0.6550  0.2932 -0.3515
10342TIP3    H252518   5.814   2.264  17.025  0.1288 -1.2215 -2.7688
10343TIP3   OH252519   2.596   5.513  10.911 -0.1191 -0.1711 -0.0490
10343TIP3    H152520   2.688   5.540  10.918  0.3495 -1.6157 -0.3217
10343TIP3    H252521   2.568   5.500  11.001  0.4583 -1.3187 -0.0190
10344TIP3   OH252522   4.276   2.304   2.713 -0.1886 -0.6574  0.0721
10344TIP3    H152523   4.364   2.267   2.711  0.1859  0.2261 -0.5670
10344TIP3    H252524   4.290   2.399   2.716 -1.1207 -0.5187  0.3064
10345TIP3   OH252525   4.346   3.657  12.581 -0.7518  0.7813 -0.3969
10345TIP3    H152526   4.274   3.692  12.529 -0.8928  2.2912  0.7292
10345TIP3    H252527   4.303   3.602  12.647 -0.5885 -0.9567 -1.6743
10346TIP3   OH252528   6.371   6.219   3.675 -0.1418  0.6314  0.2032
10346TIP3    H152529   6.285   6.211   3.634 -0.2554  0.3200  0.4963
10346TIP3    H252530   6.366   6.162   3.753  0.4172  0.3901  0.0697
10347TIP3   OH252531   6.506   5.721  13.697  0.3549 -0.3850  0.5265
10347TIP3    H152532   6.481   5.793  13.754 -1.4326 -0.4684 -0.0790
10347TIP3    H252533   6.470   5.643  13.739 -0.5190 -0.5105 -0.4025
10348TIP3   OH252534   1.417   1.427   0.875 -0.0274 -0.3200 -0.4243
10348TIP3    H152535   1.505   1.455   0.850 -0.2637  0.4901 -0.3716
10348TIP3    H252536   1.374   1.506   0.907 -0.1726 -1.0562  1.3277
10349TIP3   OH252537   3.542   0.018   1.037  0.0612 -0.3438 -0.4797
10349TIP3    H152538   3.543  -0.076   1.017  0.1290 -0.8217  1.5361
10349TIP3    H252539   3.632   0.039   1.059 -0.3064 -0.3763  1.2475
10350TIP3   OH252540   5.864   6.577   4.249 -0.4578 -0.3140  0.0221
10350TIP3    H152541   5.955   6.551   4.266  0.0932  1.4085 -0.1061
10350TIP3    H252542   5.856   6.574   4.153 -0.3898 -0.0249  0.0063
10351TIP3   OH252543   3.322   0.371  13.510  0.1972 -0.5291  0.8352
10351TIP3    H152544   3.258   0.309  13.545  0.9719 -1.1419  1.2135
10351TIP3    H252545   3.316   0.447  13.568 -0.3416 -0.4843  0.7296
10352TIP3   OH252546   0.761   3.637  12.552 -0.2140  0.4741  0.4172
10352TIP3    H152547   0.807   3.563  12.512 -1.2147 -0.3600  0.7488
10352TIP3    H252548   0.736   3.692  12.478 -2.5059 -1.3126 -0.2957
10353TIP3   OH252549   2.153   4.725   1.832  0.4288  0.4892 -0.0373
10353TIP3    H152550   2.097   4.660   1.789 -2.1672  2.3077  0.3301
10353TIP3    H252551   2.149   4.801   1.774 -0.0069  1.6869  1.4975
10354TIP3   OH252552   6.362   5.058   1.557  0.2636  0.0372  0.5941
10354TIP3    H152553   6.457   5.051   1.561  0.2543  0.1707  1.1800
10354TIP3    H252554   6.333   4.978   1.514  0.8076  1.1583 -2.0289
10355TIP3   OH252555   5.448   3.829  11.939  0.0641 -0.3297  0.5111
10355TIP3    H152556   5.370   3.882  11.923 -0.4755 -1.0976  0.5611
10355TIP3    H252557   5.516   3.892  11.962  0.2448  0.6542 -2.3234
10356TIP3   OH252558   1.549   0.027   5.648 -0.0878  0.0492  0.0447
10356TIP3    H152559   1.559   0.038   5.743  2.8240  0.0765 -0.1549
10356TIP3    H252560   1.495  -0.051   5.638  0.6255 -0.7187  1.7671
10357TIP3   OH252561   1.220   4.167   3.470  0.4210  0.4442 -0.0432
10357TIP3    H152562   1.125   4.176   3.472  0.5280  1.7097  0.5443
10357TIP3    H252563   1.250   4.216   3.547  1.5322 -0.1388 -0.0855
10358TIP3   OH252564   5.855   3.959   6.463  0.0832  0.6004 -0.5252
10358TIP3    H152565   5.922   3.930   6.525  0.3319 -0.1790 -1.1413
10358TIP3    H252566   5.785   3.893   6.472  0.0080  0.6300 -0.8773
10359TIP3   OH252567   2.282   4.454  11.941  0.1079 -0.4433 -0.2171
10359TIP3    H152568   2.188   4.469  11.932  0.3265  0.9524 -0.2646
10359TIP3    H252569   2.323   4.517  11.882  1.0785 -1.0534 -0.2158
10360TIP3   OH252570   3.144   0.865  14.550  0.2050  0.1815  0.3777
10360TIP3    H152571   3.057   0.844  14.516  0.1358 -0.4559  0.9192
10360TIP3    H252572   3.204   0.844  14.478 -0.0774  0.5591  0.0276
10361TIP3   OH252573   1.604   0.579   2.718 -0.3063  0.6060 -0.3406
10361TIP3    H152574   1.688   0.597   2.675  0.9587 -3.7545 -0.1630
10361TIP3    H252575   1.614   0.618   2.805  2.1816 -0.8131  0.1230
10362TIP3   OH252576   2.461   1.413   3.828  0.2479 -0.1708 -0.1844
10362TIP3    H152577   2.439   1.483   3.889 -1.2016 -0.8435  0.1160
10362TIP3    H252578   2.440   1.449   3.741 -0.2681 -0.1360 -0.0508
10363TIP3   OH252579   0.007   3.183  11.182  0.1190 -0.7395 -0.3604
10363TIP3    H152580  -0.057   3.165  11.113 -0.7001 -1.2807  0.5263
10363TIP3    H252581  -0.001   3.276  11.199 -1.1019 -0.9525  0.3643
10364TIP3   OH252582   1.640   0.014  13.722  0.4044 -0.2438  0.6648
10364TIP3    H152583   1.708  -0.036  13.676 -1.6704 -1.2918 -1.5057
10364TIP3    H252584   1.666   0.105  13.712  0.8201 -0.5263 -1.4290
10365TIP3   OH252585   1.206   1.984  16.856 -0.2685  0.2755 -0.2729
10365TIP3    H152586   1.112   2.000  16.850 -0.2923  0.6522  0.9347
10365TIP3    H252587   1.214   1.889  16.867 -0.4831  0.2133 -0.6291
10366TIP3   OH252588   4.170   3.706  12.382 -0.4509  0.0184 -0.2375
10366TIP3    H152589   4.078   3.702  12.405 -0.6585  1.8232 -0.5397
10366TIP3    H252590   4.176   3.779  12.320  1.7506  3.1195  3.1588
10367TIP3   OH252591   2.961   4.376   5.323 -0.3927 -0.3496  0.0502
10367TIP3    H152592   2.899   4.375   5.396 -0.9838 -0.5045 -0.4443
10367TIP3    H252593   2.927   4.443   5.264 -0.8010 -1.2792 -0.8087
10368TIP3   OH252594   2.133   4.722   3.575 -0.0016  0.8797 -0.0387
10368TIP3    H152595   2.120   4.690   3.664 -0.6921 -0.5007 -0.6017
10368TIP3    H252596   2.217   4.685   3.548 -0.1398  0.6873 -0.2079
10369TIP3   OH252597   1.171   5.377  10.403 -0.2449  0.1773 -0.2541
10369TIP3    H152598   1.198   5.290  10.374 -0.1353  0.4414 -0.9775
10369TIP3    H252599   1.076   5.376  10.397 -0.1574  0.7267 -2.1541
10370TIP3   OH252600   3.383   6.090   0.049  0.5199 -0.5136 -0.0357
10370TIP3    H152601   3.479   6.097   0.049  0.5350 -0.4598  1.5561
10370TIP3    H252602   3.364   6.021   0.112 -0.5836  1.4546  1.9274
10371TIP3   OH252603   6.013   1.432   1.677  0.1768  0.2792  0.0327
10371TIP3    H152604   5.998   1.350   1.628  0.5440  1.3253 -1.9296
10371TIP3    H252605   6.107   1.446   1.671  0.2570  0.3503  1.2446
10372TIP3   OH252606   6.141   1.605  14.802  0.0381 -0.4918  0.1758
10372TIP3    H152607   6.179   1.523  14.771 -0.8320 -1.0761  0.6191
10372TIP3    H252608   6.059   1.579  14.844 -0.8510  0.7164 -0.7394
10373TIP3   OH252609   6.226   3.869   3.099  0.4386  0.1313 -0.5223
10373TIP3    H152610   6.153   3.823   3.056  1.1490 -0.7644 -0.8147
10373TIP3    H252611   6.186   3.915   3.172 -0.5885  0.5350 -1.3102
10374TIP3   OH252612   5.200   4.269  13.300  0.7226 -0.1463 -0.4376
10374TIP3    H152613   5.201   4.329  13.225  1.2888  0.1051 -0.2329
10374TIP3    H252614   5.129   4.302  13.355  1.3456  0.6451 -0.0870
10375TIP3   OH252615   5.038   1.873  12.524 -0.4045  0.1350 -0.2539
10375TIP3    H152616   5.010   1.787  12.493  0.0698 -0.2341  0.3324
10375TIP3    H252617   5.111   1.855  12.583 -0.1609  0.9566 -0.2930
10376TIP3   OH252618   6.793   2.172  14.499  0.2148 -0.0469 -0.0150
10376TIP3    H152619   6.791   2.114  14.575  1.0244 -0.7217 -0.4905
10376TIP3    H252620   6.707   2.214  14.499 -0.1858 -0.8287  0.6628
10377TIP3   OH252621   5.828   6.024  12.467  0.0150 -0.3186  0.6073
10377TIP3    H152622   5.914   6.054  12.437  0.3534 -0.1824  1.6997
10377TIP3    H252623   5.846   5.972  12.545 -0.9284  0.0329  1.0736
10378TIP3   OH252624   2.475   1.493   1.738 -0.1223  0.0549 -0.3197
10378TIP3    H152625   2.488   1.587   1.751 -0.5538  0.1142 -0.2970
10378TIP3    H252626   2.541   1.469   1.673 -1.3514  0.8005 -1.9222
10379TIP3   OH252627   0.339   4.553  12.900 -0.1914  0.6205  0.2801
10379TIP3    H152628   0.246   4.543  12.920 -0.4782 -2.5294 -1.8958
10379TIP3    H252629   0.383   4.537  12.984 -1.5323  1.0564  1.1065
10380TIP3   OH252630   0.950   0.880  15.892 -0.6788  0.6098  0.4296
10380TIP3    H152631   0.946   0.975  15.903 -0.3892  0.5560  1.0042
10380TIP3    H252632   0.861   0.850  15.909 -0.3008  0.5454  2.5370
10381TIP3   OH252633   2.754   2.178  16.130 -0.0543 -0.1199  0.8170
10381TIP3    H152634   2.713   2.170  16.044 -0.1766 -0.9939  0.9463
10381TIP3    H252635   2.798   2.263  16.128 -0.7758  0.2481  0.2053
10382TIP3   OH252636   1.875   4.530   0.178 -0.4901  0.4509  0.0104
10382TIP3    H152637   1.954   4.580   0.158 -0.0792  0.6387  1.9133
10382TIP3    H252638   1.804   4.582   0.141  0.2022  0.6844 -1.0259
10383TIP3   OH252639   2.365   4.212   5.244 -0.0140  0.0626  0.5591
10383TIP3    H152640   2.284   4.215   5.295 -1.2510  1.0000 -1.3494
10383TIP3    H252641   2.433   4.238   5.307 -1.4690  1.2372  1.7427
10384TIP3   OH252642   6.519   1.051   5.196 -0.3027  0.3691 -0.6572
10384TIP3    H152643   6.537   1.145   5.190 -0.2098  0.2983 -1.6176
10384TIP3    H252644   6.580   1.011   5.134  2.0808 -0.6794  2.1150
10385TIP3   OH252645   0.795   0.489   2.174 -0.3575 -0.7517 -0.0218
10385TIP3    H152646   0.757   0.426   2.235  0.1285 -0.5786  0.4684
10385TIP3    H252647   0.788   0.573   2.219 -1.7755 -0.2969 -1.0145
10386TIP3   OH252648   3.541   3.763   0.497 -0.5752 -0.7590  0.1374
10386TIP3    H152649   3.604   3.728   0.434 -0.0926 -0.2946  0.3540
10386TIP3    H252650   3.592   3.777   0.577 -0.6078  0.9551 -0.1053
10387TIP3   OH252651   0.605   2.794   4.284  0.4010  0.5117 -0.0121
10387TIP3    H152652   0.522   2.772   4.242  1.8536 -0.4769 -2.6030
10387TIP3    H252653   0.660   2.716   4.271  3.0093  2.4900 -2.0774
10388TIP3   OH252654   5.650   4.330  11.157  0.1709 -0.4920 -0.6770
10388TIP3    H152655   5.660   4.289  11.242  2.5168  3.0208  0.9961
10388TIP3    H252656   5.715   4.287  11.101 -0.7127 -2.1604 -0.4660
10389TIP3   OH252657   6.135   2.106  13.144 -0.6551  0.1794 -0.3148
10389TIP3    H152658   6.105   2.134  13.057 -1.7973 -1.1611 -0.3892
10389TIP3    H252659   6.082   2.156  13.206 -0.2741  0.6799 -0.3859
10390TIP3   OH252660   4.005   1.174  16.905  0.0648 -0.2928  0.0906
10390TIP3    H152661   4.092   1.150  16.936  0.2671 -0.6963 -0.7671
10390TIP3    H252662   3.977   1.243  16.965  1.0100 -0.0918  0.3211
10391TIP3   OH252663   0.126   4.579  16.543  0.3801  0.2023 -0.0347
10391TIP3    H152664   0.146   4.598  16.635 -0.9081 -1.9985  0.8025
10391TIP3    H252665   0.202   4.531  16.512 -0.3261 -1.5914  0.8415
10392TIP3   OH252666   5.947   0.073  13.012 -0.2285 -0.5337 -0.3282
10392TIP3    H152667   5.967  -0.021  13.006  0.1277 -0.6291  1.6357
10392TIP3    H252668   6.021   0.115  12.969  2.1858 -1.0609  2.9157
10393TIP3   OH252669   1.610   5.349   1.613 -0.1247  0.0244  0.4627
10393TIP3    H152670   1.699   5.316   1.624 -0.0572  0.3751  0.9802
10393TIP3    H252671   1.619   5.444   1.620 -0.8494 -0.0179  2.9572
10394TIP3   OH252672   2.473   0.810   5.977 -0.4847  0.0510 -0.5271
10394TIP3    H152673   2.476   0.717   5.958 -0.6469  0.2550 -1.6190
10394TIP3    H252674   2.391   0.822   6.026  1.6620 -1.0583  3.8646
10395TIP3   OH252675   5.781   5.330   1.194  0.9858  0.2110 -0.5433
10395TIP3    H152676   5.795   5.336   1.099 -0.8996 -1.2204 -0.9699
10395TIP3    H252677   5.863   5.294   1.228  2.0157  1.5825 -1.4812
10396TIP3   OH252678   4.272   0.802   0.617 -0.9689 -0.0880 -0.3079
10396TIP3    H152679   4.314   0.741   0.678  0.9158  1.4100  0.0220
10396TIP3    H252680   4.224   0.747   0.556  0.3075 -1.8650  0.2111
10397TIP3   OH252681   3.068   4.854   3.463  0.5340  0.5685 -0.1048
10397TIP3    H152682   2.989   4.872   3.413  0.7000  0.8653 -0.2618
10397TIP3    H252683   3.132   4.825   3.398  0.5373  0.2720  0.0288
10398TIP3   OH252684   6.569   0.573  15.071  0.4103  0.2012  0.8094
10398TIP3    H152685   6.595   0.662  15.091  0.8473  0.7225 -1.7213
10398TIP3    H252686   6.631   0.518  15.119  0.2915  1.2348  2.1898
10399TIP3   OH252687   2.093   1.650   1.464  0.5004 -0.1682 -0.4080
10399TIP3    H152688   2.161   1.709   1.494 -0.1279  0.7982 -0.8448
10399TIP3    H252689   2.032   1.706   1.416 -0.6148 -0.9997 -0.0058
10400TIP3   OH252690   1.044   1.442  11.993  0.4610  0.1882  0.2761
10400TIP3    H152691   1.113   1.453  12.059  0.6454 -0.1881  0.1460
10400TIP3    H252692   1.090   1.448  11.910  0.6835 -2.1053  0.1756
10401TIP3   OH252693   0.170   2.749   1.001 -0.4358 -0.3730  0.3328
10401TIP3    H152694   0.113   2.672   1.008 -0.4926 -0.1890  3.3778
10401TIP3    H252695   0.111   2.819   0.974 -1.0219 -0.7972  0.4705
10402TIP3   OH252696   2.388   0.410  12.473  0.0772 -0.3731  0.4714
10402TIP3    H152697   2.406   0.323  12.437 -1.0050 -0.5835  0.4000
10402TIP3    H252698   2.367   0.394  12.565  0.9563 -0.0507  0.7395
10403TIP3   OH252699   3.027   3.776  13.617  0.2202 -0.3574 -0.1659
10403TIP3    H152700   3.112   3.737  13.636 -0.1859 -0.4698  1.5795
10403TIP3    H252701   2.969   3.702  13.601  0.4705 -0.2746 -1.5750
10404TIP3   OH252702   1.563   5.035   6.131  0.2975 -0.4113  0.2533
10404TIP3    H152703   1.497   5.007   6.195 -1.8740 -0.2984 -1.7980
10404TIP3    H252704   1.546   5.128   6.118  0.6288 -0.4604 -0.5744
10405TIP3   OH252705   1.995   1.528  12.602 -0.0607  0.2008 -0.1982
10405TIP3    H152706   2.048   1.521  12.522  0.1187  1.3988 -0.1930
10405TIP3    H252707   2.059   1.526  12.673  0.0605  2.0763 -0.2047
10406TIP3   OH252708   3.185   0.020  16.285 -0.2198  0.4547  0.7072
10406TIP3    H152709   3.186  -0.015  16.196 -3.2574 -0.9790  1.1093
10406TIP3    H252710   3.276   0.015  16.314  0.7709  0.4479 -2.0835
10407TIP3   OH252711   0.755   2.633   1.255  0.5854  0.7049 -0.0331
10407TIP3    H152712   0.700   2.679   1.319  0.7161  1.2225 -0.2815
10407TIP3    H252713   0.841   2.676   1.262  0.6899  0.5492 -0.3249
10408TIP3   OH252714   1.384   0.625  15.069  0.2049  0.0797  0.4854
10408TIP3    H152715   1.426   0.709  15.053 -0.2759  0.3402  0.5953
10408TIP3    H252716   1.362   0.592  14.981 -2.3704  1.4778  0.5214
10409TIP3   OH252717   6.543   2.113   2.222 -0.8972  0.7924  0.3590
10409TIP3    H152718   6.554   2.185   2.160  1.3745  0.3710  0.1892
10409TIP3    H252719   6.585   2.144   2.302  0.8262 -0.5491  0.0532
10410TIP3   OH252720   4.943   2.565   1.828  0.7308 -0.1201  0.3827
10410TIP3    H152721   4.872   2.506   1.804 -1.0091  1.4290  1.3898
10410TIP3    H252722   4.975   2.532   1.912  1.1816 -0.7895 -0.0457
10411TIP3   OH252723   4.608   3.485   3.721 -0.7914  0.2564 -0.4023
10411TIP3    H152724   4.548   3.412   3.704 -1.5486  0.7055  0.2870
10411TIP3    H252725   4.686   3.445   3.757 -1.1010 -0.2459 -0.2869
10412TIP3   OH252726   1.101   6.313  14.290 -0.3259  0.3825  0.2303
10412TIP3    H152727   1.006   6.321  14.282 -0.2550  2.9206  1.0009
10412TIP3    H252728   1.135   6.349  14.208 -0.0378  0.6224  0.4508
10413TIP3   OH252729   1.401   4.524  13.699 -0.6495  0.0561  0.3924
10413TIP3    H152730   1.432   4.614  13.704  0.0609 -0.0639 -1.2663
10413TIP3    H252731   1.311   4.532  13.668 -0.2923  0.1717 -0.6345
10414TIP3   OH252732   0.071   6.540  12.497 -0.4722 -0.1451 -0.6063
10414TIP3    H152733   0.137   6.538  12.429  0.2641  3.1850 -0.1640
10414TIP3    H252734  -0.006   6.577  12.455 -1.4968 -2.1100 -0.6047
10415TIP3   OH252735   5.977   0.078  17.120  0.0298 -0.1134  0.0254
10415TIP3    H152736   5.952   0.170  17.120  0.6559  0.0670 -0.7242
10415TIP3    H252737   5.942   0.043  17.038 -0.5417 -0.6375  0.4886
10416TIP3   OH252738   1.586   1.751  10.213 -0.2391 -0.5304 -0.2087
10416TIP3    H152739   1.560   1.788  10.298 -0.2707 -2.5347  0.7300
10416TIP3    H252740   1.591   1.826  10.154  1.0000  1.1140  1.8427
10417TIP3   OH252741   4.552   6.781  12.025  0.3865 -0.7148  0.7185
10417TIP3    H152742   4.522   6.700  11.985  0.2564  0.4906 -1.8502
10417TIP3    H252743   4.475   6.838  12.026  0.8799 -0.0274  0.8225
10418TIP3   OH252744   2.889   2.607   6.025  0.3793  0.1024 -0.0446
10418TIP3    H152745   2.897   2.700   6.004  0.0377  0.1695  0.1187
10418TIP3    H252746   2.898   2.563   5.941 -0.6602  0.3533 -0.3029
10419TIP3   OH252747   5.338   4.361   0.229 -0.8743  0.0734 -0.6499
10419TIP3    H152748   5.399   4.434   0.230  1.1074 -1.4804 -1.1154
10419TIP3    H252749   5.257   4.397   0.193  0.7635  1.5237 -3.1486
10420TIP3   OH252750   6.037   2.927   6.430  0.3759 -0.0789  0.1545
10420TIP3    H152751   6.031   2.892   6.342  0.2448 -1.5521  0.7225
10420TIP3    H252752   6.126   2.905   6.459  0.1298 -0.3795  0.7014
10421TIP3   OH252753   4.706   0.963   5.339 -0.5069 -0.0276  0.3430
10421TIP3    H152754   4.737   0.929   5.423  0.7599  0.2214  0.0080
10421TIP3    H252755   4.773   1.026   5.313 -1.6152  0.9681 -0.1795
10422TIP3   OH252756   2.839   5.166   1.811 -0.0205  0.2417 -0.3848
10422TIP3    H152757   2.857   5.072   1.816 -1.8272 -0.1722 -0.7761
10422TIP3    H252758   2.915   5.207   1.851  1.4674 -1.3178 -1.4498
10423TIP3   OH252759   1.969   2.165  13.458 -0.3406  0.2335 -0.4767
10423TIP3    H152760   2.042   2.198  13.511  0.2965  0.0863 -1.2438
10423TIP3    H252761   1.905   2.133  13.522  0.8917 -0.9624  0.2045
10424TIP3   OH252762   1.774   0.309   1.987 -0.6242 -0.1847 -0.0423
10424TIP3    H152763   1.749   0.217   1.984  1.5460 -0.8194  0.3128
10424TIP3    H252764   1.869   0.309   1.983 -0.4740  1.9536  1.8118
10425TIP3   OH252765   1.231   3.235  10.339 -0.2204  0.2153 -0.1740
10425TIP3    H152766   1.262   3.200  10.422 -0.3163  0.6390  0.0400
10425TIP3    H252767   1.139   3.258  10.354 -0.1291  0.6627 -0.2777
10426TIP3   OH252768   6.721   1.191  16.425 -0.0568 -0.1854  0.1220
10426TIP3    H152769   6.765   1.140  16.494 -0.5849  0.8921  1.2967
10426TIP3    H252770   6.639   1.144  16.409 -1.2014  0.9589  2.1977
10427TIP3   OH252771   0.895   3.513   4.964 -0.2373 -0.0791 -0.1627
10427TIP3    H152772   0.977   3.509   4.914  0.2386 -2.0824  0.6857
10427TIP3    H252773   0.835   3.456   4.916  0.2023 -1.9665  1.4357
10428TIP3   OH252774   1.022   4.146   1.508 -0.0632  0.1698  0.2860
10428TIP3    H152775   1.000   4.175   1.420  2.4583  0.2323 -0.4001
10428TIP3    H252776   1.040   4.052   1.498  1.0886  0.3546  0.5291
10429TIP3   OH252777   2.753   6.812  14.086  0.0010  0.0290  0.1605
10429TIP3    H152778   2.753   6.771  14.000  1.7826  0.6111 -0.1524
10429TIP3    H252779   2.759   6.739  14.148  3.1346 -0.3330 -0.3882
10430TIP3   OH252780   6.622   0.371  15.267  0.3094  0.6665  0.1137
10430TIP3    H152781   6.615   0.413  15.352  0.9040 -1.1864  1.1154
10430TIP3    H252782   6.644   0.280  15.286 -0.3885 -0.0015 -1.9903
10431TIP3   OH252783   4.222   6.377  16.700  0.8874 -0.2375 -0.5192
10431TIP3    H152784   4.315   6.357  16.689  0.6971 -0.3117 -2.2398
10431TIP3    H252785   4.177   6.314  16.644 -0.3678 -1.4065  1.6453
10432TIP3   OH252786   5.664   1.187   4.436 -0.0366 -0.1826  0.4910
10432TIP3    H152787   5.667   1.102   4.393  0.7720 -0.3257  0.8109
10432TIP3    H252788   5.582   1.226   4.406  1.9650  1.2129 -4.0292
10433TIP3   OH252789   5.073   5.184  13.967  0.2382 -0.5978  0.0624
10433TIP3    H152790   5.099   5.126  13.896  1.9047  1.4849 -1.1528
10433TIP3    H252791   5.039   5.262  13.924 -0.3561  0.0404  1.5988
10434TIP3   OH252792   6.462   5.885  16.071 -0.0742  0.6892  0.5249
10434TIP3    H152793   6.380   5.870  16.118 -0.4222  1.3139  0.1333
10434TIP3    H252794   6.435   5.910  15.983  0.5787 -0.8655 -0.1564
10435TIP3   OH252795   1.416   5.110  16.324  0.5153 -0.5743  0.0653
10435TIP3    H152796   1.470   5.033  16.304 -0.1636 -1.6056  1.9339
10435TIP3    H252797   1.443   5.135  16.412  1.3762  1.9703 -0.8439
10436TIP3   OH252798   3.608   0.279  16.562 -1.0496 -0.2613 -0.0003
10436TIP3    H152799   3.646   0.267  16.475 -0.8087 -0.1670  0.0908
10436TIP3    H252800   3.534   0.218  16.564 -0.7784 -0.6031 -0.1086
10437TIP3   OH252801   4.446   2.458   3.612  0.0776 -0.0435  0.0381
10437TIP3    H152802   4.408   2.380   3.570 -1.9946  0.6275  0.5347
10437TIP3    H252803   4.411   2.531   3.563 -0.0368  0.6528  1.1235
10438TIP3   OH252804   4.438   1.612  14.733  0.2269 -0.2982  0.1939
10438TIP3    H152805   4.528   1.640  14.719  0.0028  0.8366  0.8477
10438TIP3    H252806   4.416   1.645  14.821 -0.9184 -0.2684 -0.0840
10439TIP3   OH252807   6.700   0.039   2.902 -0.1425 -0.2456  0.0264
10439TIP3    H152808   6.660  -0.040   2.867 -1.5682  1.2359 -1.9582
10439TIP3    H252809   6.634   0.074   2.963 -0.5885  0.6169 -0.9256
10440TIP3   OH252810   5.475   0.161   3.835 -0.0129 -0.0849 -0.6647
10440TIP3    H152811   5.571   0.156   3.838 -0.0755 -1.7780  0.3145
10440TIP3    H252812   5.448   0.146   3.926 -1.2209 -1.4051 -1.1974
10441TIP3   OH252813   2.239   5.843   1.143  0.3960 -0.0789  0.5538
10441TIP3    H152814   2.247   5.761   1.192 -0.1577  0.1449  1.0320
10441TIP3    H252815   2.194   5.818   1.062  2.0040 -0.5851 -0.2198
10442TIP3   OH252816   5.936   0.831  16.067  0.0597  0.3745  0.2582
10442TIP3    H152817   6.020   0.840  16.023  1.2421 -1.3374  1.9969
10442TIP3    H252818   5.934   0.905  16.128  0.7023 -0.0244  0.7771
10443TIP3   OH252819   4.302   6.014  15.151 -0.4671  0.4927  0.7370
10443TIP3    H152820   4.260   5.976  15.228 -0.5936  0.6801  0.7599
10443TIP3    H252821   4.231   6.028  15.089 -0.7289  2.4360  1.4195
10444TIP3   OH252822   6.092   6.108  16.722  0.5817  0.4662 -0.0754
10444TIP3    H152823   6.066   6.015  16.722 -0.2659  0.6993  0.4982
10444TIP3    H252824   6.172   6.109  16.669  0.6833 -0.6151  0.0147
10445TIP3   OH252825   1.206   4.843   2.050  0.2899  0.4548  0.4876
10445TIP3    H152826   1.210   4.856   2.145 -0.7909  0.1882  0.5752
10445TIP3    H252827   1.214   4.748   2.038 -2.0808  0.2117  0.4881
10446TIP3   OH252828   6.000   5.794  14.755 -0.8559  0.0561  0.1874
10446TIP3    H152829   5.978   5.787  14.662 -0.6194  1.2928  0.0222
10446TIP3    H252830   5.988   5.705  14.789 -2.3939 -0.1187 -0.6970
10447TIP3   OH252831   4.131   2.199  12.243 -0.3031  0.5045 -0.3197
10447TIP3    H152832   4.134   2.294  12.256  0.0579  0.2559  1.6367
10447TIP3    H252833   4.193   2.182  12.173 -0.3246  1.6991 -0.6459
10448TIP3   OH252834   1.905   2.542   4.232  0.3056  0.4637  0.1245
10448TIP3    H152835   1.885   2.449   4.242  0.1961  0.6404  1.9356
10448TIP3    H252836   1.829   2.587   4.268  0.7719  1.2350  0.1583
10449TIP3   OH252837   3.068   2.660  15.113  0.0717  1.0569  0.2582
10449TIP3    H152838   3.149   2.672  15.063  0.1389 -0.2732  0.0035
10449TIP3    H252839   2.998   2.665  15.048  0.0581  0.7333  0.2473
10450TIP3   OH252840   2.185   0.328   1.409 -0.1828 -0.4261  0.0045
10450TIP3    H152841   2.093   0.311   1.389 -0.4688  0.0278  0.8671
10450TIP3    H252842   2.219   0.244   1.440 -0.5493 -0.3903  0.5215
10451TIP3   OH252843   1.105   0.790   1.428  0.3244 -0.5138  0.3521
10451TIP3    H152844   1.072   0.766   1.515 -0.9389 -1.2613 -0.3013
10451TIP3    H252845   1.151   0.712   1.398 -0.2495 -0.6880 -0.1056
10452TIP3   OH252846   5.182   2.691   1.783  0.3197 -0.3407 -0.2690
10452TIP3    H152847   5.096   2.649   1.790  0.1861  0.1477  1.8358
10452TIP3    H252848   5.171   2.756   1.713 -1.2600  0.1912  0.4199
10453TIP3   OH252849   0.303   0.244   1.172 -0.0190  0.1359  0.0011
10453TIP3    H152850   0.223   0.204   1.138  0.1851  0.3804 -0.7731
10453TIP3    H252851   0.329   0.307   1.105  1.4104 -0.6805 -0.2381
10454TIP3   OH252852   4.030   4.599   3.963 -0.0147  0.1995 -0.6447
10454TIP3    H152853   4.076   4.520   3.992 -0.4236  0.5921  1.1947
10454TIP3    H252854   3.954   4.566   3.915 -0.7864 -0.6061  1.0423
10455TIP3   OH252855   6.771   5.309  15.916 -0.0138  0.1292  0.1950
10455TIP3    H152856   6.737   5.277  16.000 -1.1514 -2.0377 -1.0275
10455TIP3    H252857   6.856   5.265  15.907 -1.4669 -2.6494 -1.3667
10456TIP3   OH252858   0.767   0.770  12.222 -0.4441 -0.5647 -0.0101
10456TIP3    H152859   0.787   0.677  12.210  0.4474 -0.6319  1.7218
10456TIP3    H252860   0.852   0.814  12.220 -0.5259 -0.1902  2.1468
10457TIP3   OH252861   6.282   1.541   3.217 -0.1988  0.4600  0.4338
10457TIP3    H152862   6.203   1.519   3.167 -0.8073  0.7107  1.2577
10457TIP3    H252863   6.249   1.587   3.294  0.8228  1.3041  0.3821
10458TIP3   OH252864   1.402   1.433   2.911 -0.1869 -0.8372 -0.3875
10458TIP3    H152865   1.443   1.520   2.908  2.4877 -1.9836  0.0269
10458TIP3    H252866   1.372   1.424   3.001  1.9963 -1.3134  0.3552
10459TIP3   OH252867   0.041   3.338  10.626  0.2515  0.9596  0.1706
10459TIP3    H152868   0.037   3.420  10.577 -1.0508  1.1980  0.6573
10459TIP3    H252869   0.086   3.277  10.567 -2.1203  0.9418 -1.7711
10460TIP3   OH252870   2.557   1.964  12.280  0.1469  0.3407 -0.1453
10460TIP3    H152871   2.504   1.931  12.208 -0.7112 -0.2156  0.7017
10460TIP3    H252872   2.526   1.916  12.357  0.2914  1.6537  0.7888
10461TIP3   OH252873   2.456   3.451  11.987  0.1176  0.0213  0.3218
10461TIP3    H152874   2.390   3.435  11.920 -0.7470 -0.7975  1.3337
10461TIP3    H252875   2.418   3.415  12.067  0.5479  2.1491  1.5482
10462TIP3   OH252876   5.521   2.258   3.245 -0.7113 -0.0882  0.6496
10462TIP3    H152877   5.521   2.352   3.226 -3.0294 -0.7301 -3.8860
10462TIP3    H252878   5.445   2.245   3.302 -1.7628  0.6148 -0.5394
10463TIP3   OH252879   2.916   1.131  14.654 -0.7668 -0.6667 -0.0756
10463TIP3    H152880   2.965   1.148  14.574 -0.0577  0.9277  0.6571
10463TIP3    H252881   2.977   1.152  14.725 -2.1394  0.3240  0.8651
10464TIP3   OH252882   6.254   5.644  11.879  0.0546 -0.7023 -0.4385
10464TIP3    H152883   6.304   5.671  11.802  2.5028 -3.6124 -0.0369
10464TIP3    H252884   6.295   5.691  11.951 -0.8782  0.4320 -0.6260
10465TIP3   OH252885   2.237   5.650   4.747 -0.1466 -0.0029 -0.5267
10465TIP3    H152886   2.242   5.627   4.840  0.2174  1.2211 -0.2206
10465TIP3    H252887   2.249   5.567   4.701  0.1813 -0.5535  0.5136
10466TIP3   OH252888   2.237   6.130   2.176 -0.4991  0.0990 -0.2115
10466TIP3    H152889   2.248   6.225   2.166 -0.1900  0.1440  0.5201
10466TIP3    H252890   2.255   6.095   2.089 -1.2367  0.7644 -0.6471
10467TIP3   OH252891   6.510   1.647  11.937 -0.2044  0.2774  0.0420
10467TIP3    H152892   6.462   1.727  11.959 -1.4793 -0.4943  0.1510
10467TIP3    H252893   6.583   1.645  12.000  0.0289  1.4959 -0.1599
10468TIP3   OH252894   5.885   5.753  15.278 -1.1516 -0.4105 -0.2599
10468TIP3    H152895   5.901   5.842  15.309 -0.9650 -0.1566 -1.0664
10468TIP3    H252896   5.856   5.705  15.356 -0.7649  0.2259  0.2814
10469TIP3   OH252897   6.142   3.335  10.802 -0.2625  0.0755 -0.0947
10469TIP3    H152898   6.076   3.291  10.749 -0.4817  0.4320 -0.1162
10469TIP3    H252899   6.117   3.317  10.892  0.1414 -0.5782 -0.1049
10470TIP3   OH252900   0.825   5.844  13.588  0.2713  0.4035 -0.1472
10470TIP3    H152901   0.832   5.793  13.507  1.2043 -1.0262  0.7934
10470TIP3    H252902   0.852   5.784  13.657 -1.1419  1.3823  1.3343
10471TIP3   OH252903   5.168   2.983  12.774  0.1687  0.1750  0.1741
10471TIP3    H152904   5.116   2.938  12.707  1.9853  1.6330 -2.3585
10471TIP3    H252905   5.258   2.973  12.745  1.0539  0.7683  2.5239
10472TIP3   OH252906   0.133   2.197  12.198 -0.2973 -0.0324 -0.1747
10472TIP3    H152907   0.050   2.152  12.214 -0.1765 -0.5236 -0.8487
10472TIP3    H252908   0.109   2.289  12.190 -0.7668 -0.1595 -0.2772
10473TIP3   OH252909   4.136   5.366   5.183 -0.0509  0.0010  0.2826
10473TIP3    H152910   4.136   5.290   5.241  0.6422 -0.6781 -0.5910
10473TIP3    H252911   4.220   5.408   5.199 -1.3505  2.0185  2.5349
10474TIP3   OH252912   3.896   0.651  14.856 -0.2150 -0.1245 -0.4478
10474TIP3    H152913   3.927   0.569  14.816  0.1700  0.4025 -1.2494
10474TIP3    H252914   3.928   0.647  14.946  0.2252 -0.6392 -0.6211
10475TIP3   OH252915   3.912   4.842  12.265 -0.6797  0.3556  0.5842
10475TIP3    H152916   3.949   4.859  12.352 -2.8846  1.0599  1.4599
10475TIP3    H252917   3.817   4.849  12.277 -1.0701  0.3431 -1.8714
10476TIP3   OH252918   3.458   0.568   5.649 -0.0224  0.0694 -0.5891
10476TIP3    H152919   3.435   0.476   5.659  1.1623 -0.1785 -0.0336
10476TIP3    H252920   3.536   0.580   5.703 -0.0859  1.3735 -0.7470
10477TIP3   OH252921   4.601   0.976  12.773  0.3785  0.5846 -0.1110
10477TIP3    H152922   4.667   1.043  12.791  1.2103 -0.3472  0.3975
10477TIP3    H252923   4.578   0.942  12.860  0.0951  0.0902 -0.3767
10478TIP3   OH252924   6.071   2.100   2.351  0.2567  0.0536  0.0783
10478TIP3    H152925   6.073   2.129   2.443 -2.0744  0.9344 -0.0614
10478TIP3    H252926   6.020   2.019   2.353  0.1815  0.0864 -0.4262
10479TIP3   OH252927   6.626   5.839   5.841  0.6616 -0.0611 -0.0937
10479TIP3    H152928   6.543   5.797   5.865  1.2492 -1.1641  0.0635
10479TIP3    H252929   6.608   5.933   5.849  0.0211 -0.2992  1.9596
10480TIP3   OH252930   3.153   1.399   0.429 -0.3699 -0.9833  0.5159
10480TIP3    H152931   3.073   1.441   0.458  0.4625  1.5825 -0.6436
10480TIP3    H252932   3.138   1.380   0.336  1.2948  2.2506 -0.5404
10481TIP3   OH252933   0.710   4.637  16.249  0.3913 -0.5436  0.1813
10481TIP3    H152934   0.697   4.707  16.184  1.4841 -0.4392  0.0637
10481TIP3    H252935   0.710   4.557  16.197 -0.6567 -0.6347  0.2948
10482TIP3   OH252936   3.282   5.731   5.781  0.3604  0.1962 -0.6427
10482TIP3    H152937   3.190   5.721   5.805  0.1156  1.1628 -1.1452
10482TIP3    H252938   3.329   5.681   5.848 -0.5227 -0.4111 -0.4487
10483TIP3   OH252939   5.522   4.945  15.383  0.1210  0.2949 -0.2041
10483TIP3    H152940   5.558   4.970  15.298  1.4054  1.1477  0.5566
10483TIP3    H252941   5.477   5.024  15.414 -2.2882 -0.6642 -1.0130
10484TIP3   OH252942   3.182   4.471  13.704 -0.1960  0.2081  0.4285
10484TIP3    H152943   3.272   4.452  13.677  0.0364  1.9180 -0.1119
10484TIP3    H252944   3.173   4.428  13.789  1.0715 -0.1117  0.4276
10485TIP3   OH252945   4.848   3.483  11.990 -0.2574  0.3595  0.1588
10485TIP3    H152946   4.920   3.421  11.995 -0.6201 -0.0189  0.8757
10485TIP3    H252947   4.814   3.475  11.901 -1.9788 -2.4245  0.9300
10486TIP3   OH252948   4.271   2.355   0.135  0.0664 -0.0597 -0.0113
10486TIP3    H152949   4.292   2.355   0.229 -2.3680 -2.3877  0.6729
10486TIP3    H252950   4.269   2.447   0.111  0.6272  0.6165  2.2803
10487TIP3   OH252951   1.027   1.048   4.602 -0.2126 -0.5626 -0.3309
10487TIP3    H152952   1.049   1.079   4.690 -1.5592  2.2352 -0.8519
10487TIP3    H252953   0.942   1.007   4.611 -0.9721  0.9158 -0.4837
10488TIP3   OH252954   1.409   6.085  12.164  0.3211 -0.0926  0.0214
10488TIP3    H152955   1.437   5.995  12.180  0.4521 -0.1850 -0.7173
10488TIP3    H252956   1.480   6.125  12.115 -0.7956 -0.3319 -1.8713
10489TIP3   OH252957   6.521   5.868  14.785 -0.4913  0.0498  0.7004
10489TIP3    H152958   6.530   5.851  14.691 -0.4063 -0.6150  0.8275
10489TIP3    H252959   6.428   5.885  14.798 -0.4495  0.4755  0.4407
10490TIP3   OH252960   2.825   4.340  13.977  0.0120  0.3995 -0.7682
10490TIP3    H152961   2.783   4.255  13.968  0.0155  0.1111  1.4963
10490TIP3    H252962   2.918   4.323  13.960 -0.0234  0.0133 -0.5634
10491TIP3   OH252963   6.563   3.994  11.208  0.5243  0.4423 -0.4640
10491TIP3    H152964   6.644   3.951  11.234  0.1070 -0.9667 -1.3627
10491TIP3    H252965   6.565   3.993  11.112 -1.0507 -0.6461 -0.5141
10492TIP3   OH252966   1.182   3.801  10.280  0.4632 -0.0135  0.0105
10492TIP3    H152967   1.109   3.753  10.242  0.3699  0.7980 -0.8522
10492TIP3    H252968   1.221   3.849  10.207  0.4491  1.3566  0.8564
10493TIP3   OH252969   6.466   6.292   2.473  0.5135 -0.0065 -0.2130
10493TIP3    H152970   6.472   6.228   2.543  0.2554 -0.9929 -1.0707
10493TIP3    H252971   6.431   6.371   2.515 -1.9541 -1.2997  0.3343
10494TIP3   OH252972   6.339   4.150  11.375  0.0428  0.2323 -0.2344
10494TIP3    H152973   6.412   4.111  11.328 -2.0283 -0.2519 -3.3820
10494TIP3    H252974   6.316   4.086  11.442 -0.9368 -2.4590 -2.8854
10495TIP3   OH252975   2.147   2.564  13.322  0.2848  0.1648 -0.9079
10495TIP3    H152976   2.131   2.658  13.332  0.1169 -0.0300  0.9808
10495TIP3    H252977   2.141   2.549  13.228 -2.5435  1.5805 -1.0833
10496TIP3   OH252978   1.127   2.926   5.121  0.2016 -0.1849  0.1965
10496TIP3    H152979   1.167   3.003   5.162 -0.3519  0.1602  0.1025
10496TIP3    H252980   1.195   2.892   5.062  0.9712 -0.6359  1.3149
10497TIP3   OH252981   1.936   3.594  10.403  0.2135 -0.0442 -0.1538
10497TIP3    H152982   1.880   3.637  10.338  0.1156 -1.6351 -1.1787
10497TIP3    H252983   2.009   3.559  10.352  2.7975  2.8290  1.2633
10498TIP3   OH252984   4.802   1.946  12.661 -0.3189 -0.3459  0.1914
10498TIP3    H152985   4.889   1.952  12.622 -0.4517  0.3363  0.0022
10498TIP3    H252986   4.760   1.874  12.613 -0.6679  0.8092 -1.3013
10499TIP3   OH252987   2.606   6.062   5.652 -0.4251 -0.3564  0.2235
10499TIP3    H152988   2.569   6.077   5.565  0.7032  1.0709 -0.0512
10499TIP3    H252989   2.598   6.146   5.696 -0.4025 -0.8974  1.2799
10500TIP3   OH252990   6.269   5.771   0.691 -0.2265 -0.3869 -0.4056
10500TIP3    H152991   6.184   5.817   0.689  0.3388  0.6692 -1.6511
10500TIP3    H252992   6.270   5.720   0.610 -0.2701 -1.5736  0.3216
10501TIP3   OH252993   3.834   4.418   3.931 -0.4511  0.1616 -0.3334
10501TIP3    H152994   3.747   4.454   3.948 -0.4306  0.2920 -0.5018
10501TIP3    H252995   3.816   4.330   3.897 -0.4959 -0.0394  0.2031
10502TIP3   OH252996   2.118   6.504  13.909 -0.2711  0.1052 -0.3084
10502TIP3    H152997   2.125   6.409  13.900 -1.5440 -0.2319  1.6504
10502TIP3    H252998   2.209   6.534  13.910  0.1557 -1.0872 -0.8882
10503TIP3   OH252999   1.999   2.950  11.019  0.1029 -0.0655  0.2151
10503TIP3    H153000   1.906   2.926  11.018 -0.2834  1.2400  1.3095
10503TIP3    H253001   2.024   2.950  10.927 -0.5353 -1.9513 -0.0266
10504TIP3   OH253002   3.504   6.550   4.900  0.2073 -0.4546  0.0787
10504TIP3    H153003   3.595   6.525   4.887  0.1225 -0.6966 -0.0626
10504TIP3    H253004   3.501   6.643   4.876  0.4479 -0.4057  0.2389
10505TIP3   OH253005   0.015   0.782  14.129 -0.2408  0.1935  0.2697
10505TIP3    H153006   0.090   0.804  14.073 -0.8366  0.5143 -0.4149
10505TIP3    H253007   0.038   0.698  14.168  0.1996 -0.0233 -0.4354
10506TIP3   OH253008   1.577   6.273   1.292  0.0560 -0.5046  0.5439
10506TIP3    H153009   1.587   6.255   1.198  1.3806 -2.2231  0.9563
10506TIP3    H253010   1.549   6.190   1.329 -1.3072  0.3883  1.5924
10507TIP3   OH253011   1.493   3.061   2.323 -0.2745  0.7402 -0.5296
10507TIP3    H153012   1.542   3.015   2.255  0.5674 -1.1645  1.2324
10507TIP3    H253013   1.539   3.145   2.333  2.0869 -0.5635  0.3405
10508TIP3   OH253014   2.771   3.798  11.396 -0.5720  0.3447 -0.6009
10508TIP3    H153015   2.848   3.846  11.426 -1.0050  2.3657 -2.4965
10508TIP3    H253016   2.717   3.789  11.474 -0.0922  2.2612  0.0149
10509TIP3   OH253017   2.174   1.818   5.170  0.3296 -0.0733  0.0228
10509TIP3    H153018   2.136   1.733   5.190  1.3288 -0.6099 -0.2676
10509TIP3    H253019   2.253   1.822   5.224  0.3014  0.6605  0.0131
10510TIP3   OH253020   5.462   4.116   3.687  0.7605 -0.0083  0.1571
10510TIP3    H153021   5.380   4.075   3.660  0.2698  0.2872  1.1656
10510TIP3    H253022   5.453   4.207   3.661  0.7202  0.0500  0.3760
10511TIP3   OH253023   3.406   5.575  17.099 -0.0544  0.6529 -0.1185
10511TIP3    H153024   3.477   5.551  17.158  0.3037  0.6734 -0.5410
10511TIP3    H253025   3.327   5.541  17.141  0.3579 -0.6415 -0.3490
10512TIP3   OH253026   3.638   5.246   4.786  0.1724 -0.4070 -0.0137
10512TIP3    H153027   3.611   5.305   4.715 -0.6142  0.0225  0.6292
10512TIP3    H253028   3.727   5.219   4.762 -0.2261 -0.5864 -1.3637
10513TIP3   OH253029   4.559   1.478   3.967 -0.4704 -0.1691  0.0482
10513TIP3    H153030   4.562   1.471   4.062 -0.9451 -0.7225  0.0265
10513TIP3    H253031   4.519   1.396   3.938 -1.9605  0.7166 -0.5190
10514TIP3   OH253032   6.002   5.621   4.547 -0.1578 -0.3873 -0.1071
10514TIP3    H153033   6.068   5.588   4.608  0.7839  1.3616 -0.1213
10514TIP3    H253034   6.024   5.579   4.464  1.3521  0.6466 -0.2580
10515TIP3   OH253035   3.301   4.542  16.701 -0.1552 -0.5197 -0.2598
10515TIP3    H153036   3.378   4.597  16.714 -0.8116  0.0140  1.7120
10515TIP3    H253037   3.307   4.475  16.769 -1.7760 -0.0473  0.4025
10516TIP3   OH253038   1.513   6.358  12.156 -0.3634  0.0867  0.3017
10516TIP3    H153039   1.421   6.339  12.137 -0.3839  0.7846 -0.3353
10516TIP3    H253040   1.562   6.297  12.100 -0.4278 -0.6029  0.9779
10517TIP3   OH253041   0.985   2.295   5.292  0.7780 -0.0672  0.1806
10517TIP3    H153042   0.987   2.297   5.196  3.5852  3.0124  0.1353
10517TIP3    H253043   0.905   2.343   5.315  0.6145  0.0762 -0.6339
10518TIP3   OH253044   6.162   1.028  16.517 -0.0892  0.2596 -0.8752
10518TIP3    H153045   6.178   1.115  16.553 -2.0012  1.0733 -1.8416
10518TIP3    H253046   6.215   0.970  16.572  0.8377  1.9440  0.1279
10519TIP3   OH253047   1.121   4.604   2.245 -0.3209 -0.4431  0.0121
10519TIP3    H153048   1.184   4.669   2.275 -0.8616 -0.0585  0.3241
10519TIP3    H253049   1.041   4.653   2.228  0.1211 -0.5241 -2.7488
10520TIP3   OH253050   6.243   4.292  11.772  0.1206  0.0406 -0.1459
10520TIP3    H153051   6.317   4.323  11.824  0.6058 -0.9670 -0.1960
10520TIP3    H253052   6.230   4.201  11.801 -1.9358  0.5621  0.7837
10521TIP3   OH253053   3.906   4.817   4.065 -0.6372  0.3225 -0.5492
10521TIP3    H153054   3.894   4.858   3.979  0.8921 -2.7859 -2.4407
10521TIP3    H253055   3.963   4.742   4.047 -1.4641 -1.3231  2.9798
10522TIP3   OH253056   2.567   6.014  16.236 -0.8127  0.1958  0.2027
10522TIP3    H153057   2.576   6.064  16.317 -1.4681  0.1923  0.2877
10522TIP3    H253058   2.530   6.076  16.174  0.4292  0.4233 -0.3354
10523TIP3   OH253059   1.475   4.289   0.960  0.2315  0.5399 -0.0205
10523TIP3    H153060   1.465   4.194   0.951 -0.5897  0.7985 -2.2934
10523TIP3    H253061   1.534   4.314   0.889  1.5716  1.6117  1.3896
10524TIP3   OH253062   4.360   2.677   3.004  0.2191  0.0393 -0.0253
10524TIP3    H153063   4.319   2.757   2.969  0.5110 -0.3578 -1.3268
10524TIP3    H253064   4.291   2.611   3.001  0.6884 -0.4271 -1.4838
10525TIP3   OH253065   3.488   1.490   3.793  0.5034  0.0076  0.2337
10525TIP3    H153066   3.557   1.467   3.855  0.9755  0.9019  0.0634
10525TIP3    H253067   3.438   1.559   3.838  0.5811  0.3521 -0.2020
10526TIP3   OH253068   2.113   2.430   5.483  0.4348 -0.7292 -0.3244
10526TIP3    H153069   2.171   2.354   5.482  2.2400  0.5841 -0.8140
10526TIP3    H253070   2.157   2.493   5.541 -1.5801 -0.4188  0.9909
10527TIP3   OH253071   3.916   5.216   6.724 -0.3601  0.2896  0.3039
10527TIP3    H153072   3.955   5.137   6.685  0.6312  1.2289 -0.6845
10527TIP3    H253073   3.978   5.286   6.703 -1.6069  1.4857  0.4631
10528TIP3   OH253074   6.614   1.054  11.267  0.0957  0.1766 -0.1654
10528TIP3    H153075   6.682   0.992  11.293 -0.2335  0.1531  0.6830
10528TIP3    H253076   6.615   1.120  11.336 -1.8808 -0.7250  0.8065
10529TIP3   OH253077   5.056   4.120  12.762  0.3061 -0.6537 -0.0873
10529TIP3    H153078   5.022   4.094  12.677  0.0699 -0.7981  0.0523
10529TIP3    H253079   5.078   4.038  12.806 -1.8264 -0.7563  0.9381
10530TIP3   OH253080   4.051   1.851  11.316 -0.0637 -0.0345 -0.7036
10530TIP3    H153081   4.114   1.843  11.388 -0.3030 -0.9051 -0.5817
10530TIP3    H253082   4.037   1.945  11.307 -1.1019  0.0640  1.3324
10531TIP3   OH253083   1.329   5.184  13.302 -0.4655  0.3983  0.1387
10531TIP3    H153084   1.254   5.218  13.252 -0.6106  0.5672  0.4642
10531TIP3    H253085   1.310   5.209  13.393 -1.4775 -2.1070  0.7112
10532TIP3   OH253086   0.700   3.046  12.171 -0.2807  0.0229 -0.1890
10532TIP3    H153087   0.660   2.971  12.215 -1.6136  0.3387 -0.7909
10532TIP3    H253088   0.640   3.065  12.099  0.9742  0.5596 -1.1194
10533TIP3   OH253089   0.235   2.151   0.322  0.0590 -0.2018  0.0247
10533TIP3    H153090   0.288   2.146   0.243 -0.6294 -0.6858 -0.4205
10533TIP3    H253091   0.269   2.227   0.369  0.7057 -0.1155 -0.5616
10534TIP3   OH253092   6.389   2.307  10.683 -0.0521  0.0146 -0.0994
10534TIP3    H153093   6.362   2.318  10.592 -0.2206  0.5995  0.0108
10534TIP3    H253094   6.357   2.221  10.708  1.1666 -0.7234 -0.9919
10535TIP3   OH253095   1.835   3.553  12.209  0.3752  0.9637  0.2130
10535TIP3    H153096   1.876   3.501  12.139  0.9612  1.2906  0.3128
10535TIP3    H253097   1.906   3.572  12.270 -0.6481 -2.0196  2.6268
10536TIP3   OH253098   4.745   0.286  16.765 -0.1917 -0.4606 -0.5022
10536TIP3    H153099   4.688   0.222  16.723 -2.7265  0.7211  0.8886
10536TIP3    H253100   4.784   0.334  16.692  1.3532 -3.1042 -1.5640
10537TIP3   OH253101   4.464   3.045   1.722 -0.6444  0.3383 -0.3629
10537TIP3    H153102   4.536   3.079   1.776 -1.1237  1.1643 -0.2195
10537TIP3    H253103   4.403   3.007   1.784 -1.6450  2.1261 -0.1975
10538TIP3   OH253104   0.988   5.695   2.283  0.3902  0.1839 -0.0962
10538TIP3    H153105   0.953   5.660   2.201  1.3712 -0.3690 -0.2867
10538TIP3    H253106   1.066   5.744   2.258  0.4087  0.4432  0.4502
10539TIP3   OH253107   0.269   2.665  14.836  0.1546  0.6387  0.1301
10539TIP3    H153108   0.208   2.673  14.763  0.5499  0.6178 -0.2030
10539TIP3    H253109   0.351   2.699  14.803  0.0712  1.6193  0.9019
10540TIP3   OH253110   1.829   4.875   2.086  0.0587  0.0663 -0.2009
10540TIP3    H153111   1.878   4.892   2.005  0.5018 -1.0573 -0.1831
10540TIP3    H253112   1.738   4.895   2.063 -0.0764 -1.7291 -1.4903
10541TIP3   OH253113   5.580   3.006  16.637 -0.1389  0.3439 -0.1556
10541TIP3    H153114   5.508   2.965  16.590  0.7540  0.1853 -1.4474
10541TIP3    H253115   5.554   3.098  16.644 -1.6610 -0.1824  1.8126
10542TIP3   OH253116   1.732   1.301  15.742  0.7697  1.5431  0.2987
10542TIP3    H153117   1.809   1.353  15.765  2.4803 -0.2380 -1.0248
10542TIP3    H253118   1.752   1.213  15.773 -2.3317  1.6182  3.0760
10543TIP3   OH253119   6.145   4.788   6.374  0.0363  0.4948 -0.8048
10543TIP3    H153120   6.062   4.749   6.401 -0.7615  1.8346 -1.2531
10543TIP3    H253121   6.202   4.713   6.357 -1.0651 -0.4451 -0.4663
10544TIP3   OH253122   2.265   0.678  12.487 -0.1228 -0.0061  0.1500
10544TIP3    H153123   2.360   0.665  12.484 -0.4726 -3.1736 -0.3111
10544TIP3    H253124   2.239   0.643  12.571 -1.0414 -0.5035 -0.3333
10545TIP3   OH253125   4.216   0.411  15.346  0.5439  0.7197 -0.6313
10545TIP3    H153126   4.252   0.323  15.345  0.3037  0.6054  0.0391
10545TIP3    H253127   4.214   0.438  15.254 -0.2538 -0.3288 -0.9358
10546TIP3   OH253128   5.287   0.544  14.674 -0.3702  0.1518  0.4269
10546TIP3    H153129   5.348   0.472  14.690  0.2016 -0.0348 -2.1891
10546TIP3    H253130   5.342   0.620  14.658 -0.8081  0.2183 -0.9151
10547TIP3   OH253131   1.119   2.410  12.774 -0.2871  0.3463 -0.3808
10547TIP3    H153132   1.032   2.389  12.808 -0.2636 -0.6598 -0.8988
10547TIP3    H253133   1.176   2.403  12.851 -0.7357  1.6343  0.0902
10548TIP3   OH253134   1.773   2.230  17.172 -0.4475  0.3182  0.2806
10548TIP3    H153135   1.733   2.297  17.227 -1.2115  0.4912 -0.4496
10548TIP3    H253136   1.855   2.269  17.142 -0.4247  0.5437  0.6298
10549TIP3   OH253137   0.270   0.682   5.289  0.0613  0.1398 -0.0361
10549TIP3    H153138   0.234   0.637   5.213 -0.0433  1.2015 -0.6473
10549TIP3    H253139   0.270   0.617   5.359  1.4523 -1.2843 -1.3023
10550TIP3   OH253140   5.520   6.768   0.950  0.3567 -0.1155 -0.1856
10550TIP3    H153141   5.600   6.722   0.975  0.4550  0.0615 -0.1756
10550TIP3    H253142   5.550   6.845   0.902  0.1711 -0.5611 -1.0539
10551TIP3   OH253143   3.515   2.882   5.815 -0.0470  0.3066 -0.3926
10551TIP3    H153144   3.527   2.815   5.747 -0.8041 -0.5399  0.2826
10551TIP3    H253145   3.602   2.895   5.853  0.2082  0.1242 -0.9121
10552TIP3   OH253146   1.530   0.946  10.943  0.3794  0.1256 -0.3656
10552TIP3    H153147   1.531   0.898  10.861 -0.9753 -1.7981  0.6814
10552TIP3    H253148   1.437   0.957  10.964  0.6876  0.0872  1.1728
10553TIP3   OH253149   0.467   2.453  11.043  0.2684  0.7084  0.7563
10553TIP3    H153150   0.405   2.525  11.052  0.7711  1.0619  1.4592
10553TIP3    H253151   0.449   2.397  11.119 -0.2069  0.0079  0.1487
10554TIP3   OH253152   1.190   0.065   5.132 -0.0078  0.0953  0.1934
10554TIP3    H153153   1.120   0.122   5.100 -2.3422 -1.5712  1.9690
10554TIP3    H253154   1.198   0.087   5.225 -0.2613 -1.7172  0.6837
10555TIP3   OH253155   5.572   1.372   5.113  0.0510  0.5562  0.1889
10555TIP3    H153156   5.645   1.430   5.091 -0.2171 -0.0012 -2.6497
10555TIP3    H253157   5.498   1.407   5.063 -0.8993 -0.4522  0.8520
10556TIP3   OH253158   0.921   2.588  15.180  0.0704  0.1425  0.2241
10556TIP3    H153159   0.838   2.580  15.132  0.0218 -0.5141  0.4055
10556TIP3    H253160   0.939   2.682  15.180 -1.6947  0.5621  1.8442
10557TIP3   OH253161   3.839   3.202   0.190 -0.1192  0.1759  0.0082
10557TIP3    H153162   3.840   3.294   0.218  0.6222 -0.3522  1.8747
10557TIP3    H253163   3.911   3.195   0.126  0.8842  0.5784  1.0562
10558TIP3   OH253164   1.228   1.736  16.762 -0.5556  0.5178  0.1944
10558TIP3    H153165   1.166   1.700  16.700 -0.6650  1.0286  0.0009
10558TIP3    H253166   1.300   1.673  16.764 -1.7806 -0.9174  1.6488
10559TIP3   OH253167   6.517   1.413  12.315 -0.5094  0.1736 -0.0077
10559TIP3    H153168   6.551   1.366  12.391 -1.3232 -2.2564 -1.0330
10559TIP3    H253169   6.427   1.436  12.339  0.1268  2.0248  0.7862
10560TIP3   OH253170   0.566   3.448  12.862 -0.0764  0.0959 -0.5329
10560TIP3    H153171   0.639   3.479  12.915 -1.1692  1.9021  0.0017
10560TIP3    H253172   0.536   3.369  12.906  1.6554 -0.8281 -0.9066
10561TIP3   OH253173   2.735   6.507  15.259 -0.1383  0.6799 -0.8438
10561TIP3    H153174   2.775   6.593  15.251  1.9094 -0.0757  0.4293
10561TIP3    H253175   2.770   6.457  15.185 -0.0012  0.4633 -0.6335
10562TIP3   OH253176   5.543   0.617   3.321 -0.3590 -0.1231 -0.2946
10562TIP3    H153177   5.598   0.553   3.366  0.2578 -0.3795 -1.3748
10562TIP3    H253178   5.535   0.583   3.232  1.0982  1.9298 -1.3010
10563TIP3   OH253179   2.970   6.114   6.361  0.1827 -0.1090  0.1208
10563TIP3    H153180   2.946   6.202   6.333 -0.2434 -0.8699 -2.0982
10563TIP3    H253181   2.915   6.096   6.437 -0.8422  0.9529 -0.3522
10564TIP3   OH253182   4.193   2.827  16.081 -0.1941 -0.2346 -0.1913
10564TIP3    H153183   4.120   2.887  16.096 -1.0226 -0.8957 -1.3737
10564TIP3    H253184   4.155   2.757  16.028  0.7934 -1.7064  0.9653
10565TIP3   OH253185   1.179   1.548  13.223 -0.3383 -0.2697  0.2374
10565TIP3    H153186   1.217   1.503  13.299  3.1227  0.1051 -1.0729
10565TIP3    H253187   1.160   1.636  13.254 -1.6184 -0.8871  1.3128
10566TIP3   OH253188   6.352   4.358  16.800  0.3872 -0.1104  0.2637
10566TIP3    H153189   6.291   4.431  16.816  0.0100 -0.1880 -0.7226
10566TIP3    H253190   6.363   4.357  16.705  0.9874 -0.8659  0.3337
10567TIP3   OH253191   3.170   3.244  16.402 -0.4187  0.1246  0.1143
10567TIP3    H153192   3.186   3.264  16.310  1.9081  0.4204  0.5141
10567TIP3    H253193   3.088   3.288  16.423 -0.7361  0.4419 -1.6879
10568TIP3   OH253194   0.726   4.867  14.059  0.3347 -0.8042 -0.4059
10568TIP3    H153195   0.635   4.843  14.072  0.5344 -1.4471 -0.1547
10568TIP3    H253196   0.735   4.952  14.101 -0.1526 -0.7314 -0.4532
10569TIP3   OH253197   6.139   2.582   2.199  0.1585  0.3242 -0.2564
10569TIP3    H153198   6.194   2.636   2.142  0.1134  0.0313 -0.5844
10569TIP3    H253199   6.157   2.613   2.288  0.5439  0.5030 -0.3986
10570TIP3   OH253200   4.444   5.269   3.598 -0.3059 -0.3647 -0.0042
10570TIP3    H153201   4.410   5.304   3.515 -0.1029  1.2956  0.5726
10570TIP3    H253202   4.456   5.175   3.581 -0.4381 -0.1019 -1.7920
10571TIP3   OH253203   5.487   3.540   5.789 -0.3034 -0.0678 -0.0956
10571TIP3    H153204   5.543   3.468   5.820  0.3525  0.3042 -0.3929
10571TIP3    H253205   5.433   3.562   5.865  0.2112 -0.1931  0.3161
10572TIP3   OH253206   6.205   6.399   6.114  0.2821  0.0892 -0.0983
10572TIP3    H153207   6.214   6.491   6.140  0.2404 -0.4010  1.7227
10572TIP3    H253208   6.247   6.395   6.028  1.3864  1.5411  0.3342
10573TIP3   OH253209   6.655   6.675   3.193  0.3053 -0.5079 -0.0021
10573TIP3    H153210   6.631   6.698   3.104  0.6311 -0.0890  0.0151
10573TIP3    H253211   6.739   6.631   3.185 -0.1658 -1.4371 -0.0027
10574TIP3   OH253212   0.047   4.288   0.843 -0.2410  0.3142 -0.3398
10574TIP3    H153213   0.030   4.239   0.763  2.5642  1.0074 -1.5054
10574TIP3    H253214   0.019   4.377   0.823 -0.1793  0.3386 -0.3201
10575TIP3   OH253215   4.928   1.572  12.732 -0.4971  0.2044 -0.2583
10575TIP3    H153216   4.943   1.480  12.708 -0.4638  0.6862 -2.2011
10575TIP3    H253217   4.864   1.604  12.669  1.5211  2.2490 -1.4362
10576TIP3   OH253218   0.147   4.241   6.081 -0.4979  0.1472  0.1633
10576TIP3    H153219   0.057   4.226   6.051  0.4805  0.0623 -3.0785
10576TIP3    H253220   0.167   4.165   6.136 -2.3630  0.1719  0.9602
10577TIP3   OH253221   4.715   0.244  14.380  0.3599 -0.4455  0.5573
10577TIP3    H153222   4.720   0.170  14.441  0.9038 -1.4117 -0.6229
10577TIP3    H253223   4.765   0.216  14.304 -0.0629  0.8493 -0.2311
10578TIP3   OH253224   0.647   2.118  11.066  0.4557  0.0669  0.8886
10578TIP3    H153225   0.649   2.022  11.066 -0.6403  0.0254  1.0930
10578TIP3    H253226   0.555   2.140  11.051  0.5193  1.0742  1.8208
10579TIP3   OH253227   1.909   6.757   3.629 -0.0508  0.0686 -0.2117
10579TIP3    H153228   1.898   6.811   3.551  3.4093  0.4136 -0.6159
10579TIP3    H253229   1.839   6.692   3.623 -1.1395  1.3008 -2.4697
10580TIP3   OH253230   5.634   1.285   1.555  0.1092 -0.0460 -0.1371
10580TIP3    H153231   5.624   1.326   1.469 -3.0166 -1.3106 -0.5238
10580TIP3    H253232   5.671   1.199   1.536 -1.4692 -0.7044 -0.4183
10581TIP3   OH253233   4.256   0.538  16.757  0.2009 -0.2652  0.0330
10581TIP3    H153234   4.326   0.526  16.692 -0.6550  0.2557 -1.0200
10581TIP3    H253235   4.288   0.493  16.835  1.6788 -0.1171 -0.4445
10582TIP3   OH253236   5.927   3.297  12.819  0.1415  0.1145  0.0494
10582TIP3    H153237   6.014   3.259  12.833 -0.9580 -2.9173 -0.5717
10582TIP3    H253238   5.933   3.340  12.734  0.7689 -1.0785 -0.5445
10583TIP3   OH253239   4.075   2.179   5.515  0.6194  0.5420  0.0238
10583TIP3    H153240   3.981   2.163   5.503  0.4582  1.9643 -0.7110
10583TIP3    H253241   4.084   2.274   5.518  2.3114  0.5342 -2.2927
10584TIP3   OH253242   2.313   2.593   4.342  0.3596 -0.1256 -0.0335
10584TIP3    H153243   2.348   2.506   4.361  1.0285  0.1331 -0.0155
10584TIP3    H253244   2.377   2.653   4.382  0.3483  0.3828 -0.7575
10585TIP3   OH253245   2.333   4.902   1.629  0.3398 -0.6767  0.6108
10585TIP3    H153246   2.250   4.945   1.606 -0.0636 -0.7058  1.9309
10585TIP3    H253247   2.401   4.964   1.602 -0.1143 -0.5302 -0.2331
10586TIP3   OH253248   3.007   4.882  12.147  0.8891  0.2124 -0.0436
10586TIP3    H153249   2.984   4.956  12.091  2.9074  2.3949  1.7890
10586TIP3    H253250   2.927   4.864  12.196  0.4124  1.3916 -0.3431
10587TIP3   OH253251   5.978   3.694  12.193  0.0455  0.1487  0.0644
10587TIP3    H153252   6.050   3.663  12.139  1.2546  0.2232  1.5783
10587TIP3    H253253   5.905   3.636  12.170  1.3031 -1.6335  0.3643
10588TIP3   OH253254   5.487   5.267   5.894  0.2010 -0.0371 -0.5417
10588TIP3    H153255   5.495   5.181   5.852 -0.4830 -0.6294  0.5052
10588TIP3    H253256   5.555   5.268   5.960 -0.5172 -0.2405  0.2145
10589TIP3   OH253257   6.091   4.799   2.702  0.3257 -0.2151 -0.0778
10589TIP3    H153258   6.039   4.855   2.760  1.3524  0.7824 -0.0667
10589TIP3    H253259   6.081   4.838   2.616 -1.2856 -1.7638 -0.6431
10590TIP3   OH253260   4.632   1.199   0.034  0.3386  0.2847 -0.4684
10590TIP3    H153261   4.598   1.130  -0.023  0.0452 -0.6096  0.7723
10590TIP3    H253262   4.720   1.171   0.057  0.1356  0.1968  0.2278
10591TIP3   OH253263   5.595   4.304   1.016 -0.5051 -0.3095  0.3237
10591TIP3    H153264   5.647   4.374   1.056 -1.7389  0.5898  0.4040
10591TIP3    H253265   5.638   4.223   1.044  0.3885  0.3868  1.0194
10592TIP3   OH253266   1.110   5.026  14.992 -0.2483 -0.3576  0.7304
10592TIP3    H153267   1.037   5.035  14.931  0.8640 -2.5867 -1.0861
10592TIP3    H253268   1.185   5.062  14.945  0.2977 -0.4207  1.5365
10593TIP3   OH253269   4.895   6.631  12.611  0.7951 -0.9642  0.0468
10593TIP3    H153270   4.894   6.717  12.569 -0.1276 -0.5701  0.8364
10593TIP3    H253271   4.924   6.571  12.542  1.9385  0.0374 -0.3765
10594TIP3   OH253272   0.948   6.131  15.798 -0.3647 -0.2472 -0.3024
10594TIP3    H153273   0.996   6.199  15.845  0.9506 -0.0455 -1.8538
10594TIP3    H253274   1.016   6.074  15.763 -1.4097 -1.7295  0.0079
10595TIP3   OH253275   4.432   0.211   5.716 -0.0111 -0.0863  0.2966
10595TIP3    H153276   4.419   0.150   5.789  2.6228  0.4629  1.3272
10595TIP3    H253277   4.399   0.164   5.640 -3.2582 -0.5224  1.8080
10596TIP3   OH253278   4.418   4.401   2.995 -0.1715  0.1956 -0.1797
10596TIP3    H153279   4.508   4.384   3.024 -0.8107 -0.1058  1.8631
10596TIP3    H253280   4.404   4.494   3.014 -0.6859 -0.0698  0.8472
10597TIP3   OH253281   0.849   4.309   3.711 -0.6489 -0.2236  0.0492
10597TIP3    H153282   0.859   4.333   3.803  0.7395  1.5256 -0.5014
10597TIP3    H253283   0.908   4.235   3.699 -0.8949 -0.5121  0.5739
10598TIP3   OH253284   3.252   0.619  16.892  0.2537 -0.0485 -0.5736
10598TIP3    H153285   3.337   0.651  16.861 -0.3202  0.3492 -1.8416
10598TIP3    H253286   3.195   0.696  16.886  0.0942  0.0385  1.5344
10599TIP3   OH253287   5.245   1.825   2.140 -0.8595 -0.2623 -0.0509
10599TIP3    H153288   5.327   1.863   2.174  0.0763 -0.2826 -2.1374
10599TIP3    H253289   5.193   1.900   2.113 -1.3812 -0.2731  0.8660
10600TIP3   OH253290   5.607   4.710  12.075 -0.4209  0.5460 -0.4305
10600TIP3    H153291   5.622   4.656  12.152  1.3710 -3.0794 -3.0274
10600TIP3    H253292   5.686   4.764  12.068 -0.8034  1.2557  0.4193
10601TIP3   OH253293   1.835   1.740   5.851 -0.6510  0.4553  0.5034
10601TIP3    H153294   1.879   1.795   5.917  2.5162  1.8122 -2.4069
10601TIP3    H253295   1.780   1.800   5.802  0.7280  0.5860 -0.9855
10602TIP3   OH253296   2.759   5.239   4.970  0.5590 -0.6256  0.2126
10602TIP3    H153297   2.706   5.315   4.947 -1.2816 -1.8948 -0.0114
10602TIP3    H253298   2.800   5.262   5.054 -1.1103  0.0990  0.8744
10603TIP3   OH253299   3.338   1.605   2.060 -0.5515  0.0713 -0.3275
10603TIP3    H153300   3.410   1.639   2.008 -0.1988 -0.1051  0.0423
10603TIP3    H253301   3.271   1.580   1.996  0.6116 -1.8933 -0.8492
10604TIP3   OH253302   6.615   1.367  15.878 -0.3196  0.2745  0.3479
10604TIP3    H153303   6.583   1.423  15.949 -0.0177  0.7678  0.1002
10604TIP3    H253304   6.707   1.353  15.898 -0.5256 -0.6201  0.7170
10605TIP3   OH253305   5.272   0.258  11.691  0.0048 -0.2460  0.5606
10605TIP3    H153306   5.253   0.274  11.784 -0.8599  0.4212  0.2807
10605TIP3    H253307   5.249   0.166  11.677 -1.4714  0.0828  0.6360
10606TIP3   OH253308   1.765   0.596  13.170 -0.4106 -0.1765 -0.4059
10606TIP3    H153309   1.705   0.655  13.124 -1.1293 -0.5976 -0.0306
10606TIP3    H253310   1.711   0.519  13.191  1.1088 -2.2090 -3.2627
10607TIP3   OH253311   5.878   0.599   2.740  0.0027 -0.0938 -0.6845
10607TIP3    H153312   5.951   0.649   2.703 -0.3912  1.3146  0.3559
10607TIP3    H253313   5.800   0.648   2.713 -0.5216 -1.1775 -1.1680
10608TIP3   OH253314   0.740   2.833  16.760 -0.0987 -0.1848 -0.2657
10608TIP3    H153315   0.693   2.751  16.772  0.2136 -0.4413 -0.7440
10608TIP3    H253316   0.820   2.808  16.713  0.1029  0.3605 -0.2210
10609TIP3   OH253317   4.812   3.790   3.770  0.3342 -0.3121 -0.8684
10609TIP3    H153318   4.864   3.710   3.762  1.9259  0.5246  0.4625
10609TIP3    H253319   4.843   3.846   3.699 -0.9667 -0.9107 -1.9660
10610TIP3   OH253320   1.958   5.060  14.442 -0.7337  0.2944 -0.4863
10610TIP3    H153321   1.889   5.090  14.384 -0.0945  4.4444  0.5876
10610TIP3    H253322   2.039   5.081  14.395 -0.1724 -1.5227 -0.3874
10611TIP3   OH253323   0.719   1.183   4.349 -0.0145  0.2065  0.4692
10611TIP3    H153324   0.645   1.223   4.303  0.6927 -0.1973 -1.0773
10611TIP3    H253325   0.680   1.111   4.398 -0.4460 -1.2848 -1.9134
10612TIP3   OH253326   0.808   0.680  16.190  0.0826  0.1679 -0.1913
10612TIP3    H153327   0.735   0.691  16.251  0.0236 -0.5546 -0.1185
10612TIP3    H253328   0.876   0.739  16.222  0.5180 -1.0831  1.3160
10613TIP3   OH253329   4.554   0.418   0.218 -0.1899 -0.2677  0.2180
10613TIP3    H153330   4.492   0.465   0.273 -0.7441 -1.2352  0.4421
10613TIP3    H253331   4.530   0.326   0.228 -0.1803 -0.4817 -1.4840
10614TIP3   OH253332   2.223   5.306   4.871  0.4100  0.2900 -0.2346
10614TIP3    H153333   2.229   5.351   4.955  1.3073  0.8713 -0.5895
10614TIP3    H253334   2.147   5.345   4.828 -1.5967 -1.7378  1.2605
10615TIP3   OH253335   0.386   5.923  12.245 -0.0964 -0.6937  0.0511
10615TIP3    H153336   0.385   5.992  12.312 -1.1544  0.2518 -0.8940
10615TIP3    H253337   0.326   5.955  12.177 -1.8781 -3.2537  0.2850
10616TIP3   OH253338   1.036   3.927  11.569 -0.2254 -0.4465 -0.0648
10616TIP3    H153339   0.991   3.949  11.651 -0.7538 -0.8767 -0.2378
10616TIP3    H253340   0.995   3.846  11.540  0.8607 -1.0003 -0.0858
10617TIP3   OH253341   3.906   4.697   0.488 -0.0785  0.2218 -0.9188
10617TIP3    H153342   3.877   4.625   0.433 -0.6459 -0.0225 -0.3023
10617TIP3    H253343   3.835   4.761   0.483  0.4185  0.7477 -1.4602
10618TIP3   OH253344   5.109   0.991  16.643 -0.3100  0.2438 -0.7391
10618TIP3    H153345   5.032   0.935  16.651 -0.6492  0.8363  0.4251
10618TIP3    H253346   5.132   0.987  16.550 -0.4928 -1.5684 -0.7388
10619TIP3   OH253347   5.330   6.730   3.688 -0.4000  0.1345  0.1977
10619TIP3    H153348   5.275   6.758   3.615 -0.4728  1.1371  0.6265
10619TIP3    H253349   5.384   6.806   3.708  0.3348 -0.4615  0.5422
10620TIP3   OH253350   3.905   6.814   1.508  0.1423  0.2747 -0.1507
10620TIP3    H153351   3.952   6.793   1.588 -2.5173  1.5276  1.9068
10620TIP3    H253352   3.964   6.871   1.459  1.6993 -0.2278  1.0619
10621TIP3   OH253353   2.512   0.081   5.476  0.3310 -0.2348 -0.4564
10621TIP3    H153354   2.462   0.113   5.401 -0.3238 -0.8283 -0.2770
10621TIP3    H253355   2.534  -0.009   5.453  2.3521  0.3406 -1.0609
10622TIP3   OH253356   0.508   2.441   4.145 -0.0596  0.1503  0.1276
10622TIP3    H153357   0.551   2.364   4.107 -0.0081  0.6955 -0.9726
10622TIP3    H253358   0.513   2.427   4.239 -3.2207 -2.9944  0.0761
10623TIP3   OH253359   4.647   2.483   0.378  0.6449  0.3360  0.4241
10623TIP3    H153360   4.685   2.499   0.292  2.5884 -1.0247  0.9674
10623TIP3    H253361   4.707   2.525   0.440  1.5513 -2.0846  1.3257
10624TIP3   OH253362   0.372   4.809  15.319 -0.1551 -0.1256  0.2631
10624TIP3    H153363   0.388   4.882  15.379  0.5174 -0.0822  0.0378
10624TIP3    H253364   0.283   4.823  15.288 -1.1862 -1.0804  2.5419
10625TIP3   OH253365   4.040   4.394  11.594  0.0517 -0.6218 -0.0206
10625TIP3    H153366   4.117   4.449  11.577  0.9297 -2.0369 -0.7408
10625TIP3    H253367   4.031   4.340  11.516 -1.3443 -0.8863  0.2984
10626TIP3   OH253368   2.992   5.837   2.888 -0.1843 -0.1282 -0.0757
10626TIP3    H153369   2.931   5.892   2.937 -1.7913 -0.7073 -1.3406
10626TIP3    H253370   3.013   5.888   2.810  1.3218  0.2297  0.5151
10627TIP3   OH253371   1.746   2.123  11.829 -0.1109  0.0445  0.1220
10627TIP3    H153372   1.652   2.140  11.827  0.2436  2.2287 -1.7377
10627TIP3    H253373   1.771   2.115  11.737  1.3641 -1.7621  0.6151
10628TIP3   OH253374   4.375   2.882  11.797  0.0998 -0.3520  0.1625
10628TIP3    H153375   4.322   2.896  11.876  1.1310  0.4108  0.7495
10628TIP3    H253376   4.442   2.819  11.824  1.1285  0.7342  0.2585
10629TIP3   OH253377   2.964   5.803   5.501 -0.0248 -0.0706  0.3916
10629TIP3    H153378   2.960   5.718   5.544 -0.6183 -0.3428 -0.1808
10629TIP3    H253379   2.993   5.783   5.412 -3.5408 -0.1466 -0.8788
10630TIP3   OH253380   5.866   6.013  12.966  0.2949  0.5756  0.3877
10630TIP3    H153381   5.874   5.955  13.042  0.0354 -0.8724 -0.6566
10630TIP3    H253382   5.772   6.020  12.950  0.3395  1.0448  0.3225
10631TIP3   OH253383   4.884   0.443   2.543 -0.1611  0.6189 -0.3516
10631TIP3    H153384   4.917   0.530   2.522  0.7102  0.1788 -0.8860
10631TIP3    H253385   4.820   0.457   2.613 -0.0816  1.6862 -0.4857
10632TIP3   OH253386   4.646   3.016  13.138 -0.5357  0.2273  0.1392
10632TIP3    H153387   4.587   3.018  13.063  0.7348 -2.1838 -1.0488
10632TIP3    H253388   4.707   3.088  13.122 -1.3871  0.9027 -0.1385
10633TIP3   OH253389   3.404   4.766  14.050 -0.1559  0.0363 -0.2560
10633TIP3    H153390   3.427   4.729  13.965  0.9154  0.1520 -0.0364
10633TIP3    H253391   3.319   4.808  14.037  0.3465  0.7176 -1.4761
10634TIP3   OH253392   5.921   3.679   4.476  0.0861 -0.5855 -0.5516
10634TIP3    H153393   5.952   3.662   4.564 -0.0694  1.0450 -0.1379
10634TIP3    H253394   5.933   3.597   4.429  1.4938 -1.0768  0.6011
10635TIP3   OH253395   4.453   4.585  13.366  0.5957 -0.3913 -0.1629
10635TIP3    H153396   4.544   4.611  13.378  0.6937  0.0685 -1.7863
10635TIP3    H253397   4.402   4.653  13.411  1.0208 -0.8144  1.0207
10636TIP3   OH253398   0.106   1.161   1.552  0.1762 -0.4528 -0.3096
10636TIP3    H153399   0.169   1.224   1.517 -0.1201  1.1801  1.8732
10636TIP3    H253400   0.045   1.146   1.479  0.8389  1.0135 -1.2247
10637TIP3   OH253401   1.825   1.412   4.108 -0.3803  0.2091  0.2874
10637TIP3    H153402   1.786   1.489   4.068  0.7124  0.3502 -0.5465
10637TIP3    H253403   1.896   1.446   4.163  0.2927 -0.2039 -0.3060
10638TIP3   OH253404   5.811   0.722   3.922 -0.4437 -0.3030 -0.5096
10638TIP3    H153405   5.750   0.655   3.891  1.2810 -2.9302  1.3349
10638TIP3    H253406   5.868   0.740   3.847 -1.0822 -0.7208 -1.1016
10639TIP3   OH253407   2.231   4.159  11.022 -0.1682  0.2076 -0.3246
10639TIP3    H153408   2.170   4.231  11.005 -0.2264 -0.2635 -2.3858
10639TIP3    H253409   2.283   4.153  10.942 -1.1152 -2.9582 -0.8436
10640TIP3   OH253410   2.047   6.375  14.979 -0.1606 -0.1849 -0.2713
10640TIP3    H153411   2.016   6.464  14.960 -0.6237 -0.1769  0.4624
10640TIP3    H253412   2.142   6.384  14.987  0.0829 -0.2170 -2.6080
10641TIP3   OH253413   3.051   5.969   1.690  0.0202  0.4247 -0.2126
10641TIP3    H153414   3.106   6.032   1.736  0.5481  0.2053 -0.5323
10641TIP3    H253415   2.990   5.936   1.756  0.3491  0.5846  0.1703
10642TIP3   OH253416   4.498   1.596  16.914 -0.1112 -0.4627  0.4618
10642TIP3    H153417   4.520   1.672  16.968 -0.6303  0.3840 -0.4815
10642TIP3    H253418   4.581   1.552  16.898  0.7382  1.7307 -1.6544
10643TIP3   OH253419   3.659   3.035  14.681 -0.6110  0.2485 -0.7073
10643TIP3    H153420   3.620   2.985  14.753 -0.9567  0.8609 -0.4623
10643TIP3    H253421   3.605   3.114  14.674 -0.3650  0.3643 -1.4069
10644TIP3   OH253422   4.775   5.275  15.898 -0.3084  0.1142 -0.6521
10644TIP3    H153423   4.823   5.207  15.850 -1.3771  0.0724 -1.7181
10644TIP3    H253424   4.837   5.306  15.964  0.1286 -2.0545  0.0390
10645TIP3   OH253425   1.462   2.381   5.412 -0.2754  0.1847  0.0342
10645TIP3    H153426   1.368   2.384   5.432 -0.2709  0.1381  0.0617
10645TIP3    H253427   1.505   2.401   5.495 -0.2717  0.7924 -0.1093
10646TIP3   OH253428   4.597   3.252  16.746 -1.1214  0.4469 -0.0230
10646TIP3    H153429   4.619   3.228  16.837 -0.5622 -2.4504 -0.8255
10646TIP3    H253430   4.571   3.344  16.752  0.4285  0.8306  2.8168
10647TIP3   OH253431   5.761   1.191  16.761  0.3749  0.0770  1.1112
10647TIP3    H153432   5.700   1.136  16.712 -0.5772  0.1597  2.1729
10647TIP3    H253433   5.770   1.270  16.708 -2.2282  1.0449  1.9798
10648TIP3   OH253434   0.003   6.363   1.833 -0.4992 -0.8081 -0.1696
10648TIP3    H153435   0.018   6.269   1.826 -2.0299 -1.0512 -0.3917
10648TIP3    H253436  -0.083   6.371   1.874 -0.4673  0.4951 -0.3212
10649TIP3   OH253437   6.134   4.529  13.709 -0.3421  0.1596  0.0979
10649TIP3    H153438   6.114   4.447  13.665  0.7193 -0.5486  0.9018
10649TIP3    H253439   6.057   4.547  13.763 -0.4794 -0.4337  0.1028
10650TIP3   OH253440   1.213   5.452   3.854  0.5546  0.5262 -0.2792
10650TIP3    H153441   1.292   5.427   3.805  0.6207 -1.4482  0.7176
10650TIP3    H253442   1.245   5.513   3.921  0.8742  1.3205 -1.1359
10651TIP3   OH253443   2.673   3.941   2.482 -0.0440  0.2635 -0.1048
10651TIP3    H153444   2.618   4.012   2.449 -0.4807  0.0766  0.2116
10651TIP3    H253445   2.759   3.981   2.494 -0.4227  0.8981  0.6252
10652TIP3   OH253446   6.184   5.218   4.508 -0.6644  0.4850  0.2695
10652TIP3    H153447   6.208   5.130   4.479 -2.1425  0.5234 -1.2514
10652TIP3    H253448   6.266   5.268   4.504 -0.2201 -0.2884 -1.0169
10653TIP3   OH253449   1.868   3.242   4.348  0.2699 -0.0301  0.2711
10653TIP3    H153450   1.833   3.239   4.437 -0.3503 -1.3550  0.0148
10653TIP3    H253451   1.792   3.261   4.293  0.4958 -0.0282 -0.0441
10654TIP3   OH253452   2.806   4.928  17.117  0.2766  0.5904  0.0064
10654TIP3    H153453   2.819   4.850  17.063 -1.1693  0.7556 -0.6202
10654TIP3    H253454   2.864   4.994  17.079 -1.4157  0.9991 -2.0208
10655TIP3   OH253455   2.110   1.179  13.707  0.1609 -0.6232 -0.3866
10655TIP3    H153456   2.098   1.204  13.799  2.6037  3.0597 -0.8564
10655TIP3    H253457   2.038   1.118  13.690 -1.2513 -0.4031  3.5416
10656TIP3   OH253458   3.615   1.640  13.046  0.0594 -0.6932 -0.0108
10656TIP3    H153459   3.572   1.637  12.961  1.1785 -2.4439 -0.5796
10656TIP3    H253460   3.546   1.623  13.110 -0.8795  1.1070 -0.4752
10657TIP3   OH253461   3.980   3.094   4.605 -0.7068 -0.5263  0.1513
10657TIP3    H153462   4.028   3.158   4.552 -1.0744 -0.0141  0.4197
10657TIP3    H253463   4.043   3.024   4.622  0.1654  0.4484  1.0803
10658TIP3   OH253464   0.366   6.474  11.378  0.0476  0.1049  0.0959
10658TIP3    H153465   0.282   6.441  11.409 -0.2981  0.2150 -0.6912
10658TIP3    H253466   0.396   6.532  11.448 -0.2528 -0.3839  0.6392
10659TIP3   OH253467   5.801   3.888  13.304 -0.1871 -0.9775 -0.2165
10659TIP3    H153468   5.852   3.813  13.274  0.7759 -0.7643  0.8422
10659TIP3    H253469   5.800   3.880  13.400 -2.0601 -0.9103 -0.1797
10660TIP3   OH253470   5.108   6.397  13.121 -0.2635 -0.7011  0.4359
10660TIP3    H153471   5.078   6.459  13.188 -2.9883  0.3850 -1.5974
10660TIP3    H253472   5.170   6.340  13.167  1.1362  2.4238  2.8563
10661TIP3   OH253473   6.218   6.249   2.887 -0.2742  0.2913 -0.4584
10661TIP3    H153474   6.170   6.274   2.966 -1.0411 -1.6032 -0.2657
10661TIP3    H253475   6.186   6.310   2.820 -0.3034  1.3187  0.4646
10662TIP3   OH253476   6.248   6.472   5.115  0.1976 -0.1466  0.0765
10662TIP3    H153477   6.253   6.388   5.069  1.5087 -0.1715  0.2352
10662TIP3    H253478   6.165   6.510   5.085  0.3739 -0.7523 -1.2696
10663TIP3   OH253479   1.596   6.759  15.578 -0.5299  0.1282 -0.1612
10663TIP3    H153480   1.662   6.822  15.609 -1.1903  0.4960  0.5497
10663TIP3    H253481   1.602   6.763  15.483  0.3149  0.3303 -0.1045
10664TIP3   OH253482   2.934   2.010   5.501 -0.9212 -0.2953  0.2017
10664TIP3    H153483   2.953   2.024   5.593  3.5418 -1.1386 -0.3567
10664TIP3    H253484   2.936   1.915   5.490  0.3141 -0.1597 -1.0001
10665TIP3   OH253485   6.785   0.071   2.049  0.2019 -0.1525  0.2416
10665TIP3    H153486   6.764  -0.023   2.044  0.2570 -0.1512 -0.0183
10665TIP3    H253487   6.880   0.075   2.043  0.2760 -0.1402  1.2157
10666TIP3   OH253488   1.204   2.430   1.639 -0.4189  0.4216 -0.4758
10666TIP3    H153489   1.277   2.449   1.698 -1.5717  0.2086  1.0777
10666TIP3    H253490   1.187   2.512   1.594  0.6361  0.5258 -0.7070
10667TIP3   OH253491   3.923   4.066   6.636 -0.1546 -0.0583  0.3221
10667TIP3    H153492   3.928   4.119   6.716  0.3204  0.8519 -0.2859
10667TIP3    H253493   4.006   4.082   6.592 -0.4233 -0.5278 -0.3644
10668TIP3   OH253494   6.330   5.556   3.289  0.0021 -0.3256  0.1043
10668TIP3    H153495   6.267   5.560   3.360  0.5492 -0.1902  0.5831
10668TIP3    H253496   6.293   5.612   3.221 -0.3368 -0.1543  0.4268
10669TIP3   OH253497   3.583   1.308  15.311  0.1366 -0.2242  0.2789
10669TIP3    H153498   3.515   1.262  15.360  0.3980  0.1456  1.0159
10669TIP3    H253499   3.584   1.266  15.225  0.0150 -1.2471  0.7581
10670TIP3   OH253500   3.860   5.283   5.661  0.4636 -0.0347 -0.2099
10670TIP3    H153501   3.832   5.307   5.749  1.9004 -1.1843  0.5914
10670TIP3    H253502   3.834   5.358   5.607 -2.1221 -0.0845  0.8151
10671TIP3   OH253503   4.466   5.669   2.347  0.1624 -0.3486 -0.6891
10671TIP3    H153504   4.529   5.647   2.278 -0.7812  1.8330 -2.4012
10671TIP3    H253505   4.492   5.616   2.422  2.8984 -0.8574 -1.8777
10672TIP3   OH253506   4.212   1.958  10.537  0.1565  0.1523  0.0299
10672TIP3    H153507   4.130   1.923  10.501  0.9535 -1.0957 -0.6211
10672TIP3    H253508   4.236   1.899  10.608  1.5854 -0.7750 -1.1682
10673TIP3   OH253509   3.729   5.959  16.017 -0.7196  0.2687 -0.1853
10673TIP3    H153510   3.654   6.007  16.051  0.2229  2.0793 -0.5597
10673TIP3    H253511   3.696   5.870  16.005 -1.5055 -0.2759  4.2078
10674TIP3   OH253512   2.849   6.806  16.176 -0.8814  0.5785  0.2368
10674TIP3    H153513   2.931   6.852  16.195 -0.7778  1.0840 -1.2806
10674TIP3    H253514   2.785   6.847  16.234  0.0376 -0.2447  1.8894
10675TIP3   OH253515   6.774   3.906  12.448  0.1095  0.2577 -0.0159
10675TIP3    H153516   6.718   3.835  12.479  1.1708  0.1487  1.7920
10675TIP3    H253517   6.733   3.986  12.481 -0.0736  0.3451 -0.4470
10676TIP3   OH253518   3.259   3.853   0.471 -0.3005  0.4203 -0.0733
10676TIP3    H153519   3.354   3.852   0.473 -0.3046 -0.3155  0.5406
10676TIP3    H253520   3.233   3.875   0.561 -0.6842 -1.7874  0.4309
10677TIP3   OH253521   0.646   3.732   2.743  0.5896  0.1596 -0.5079
10677TIP3    H153522   0.603   3.681   2.675 -0.2092 -0.2151  0.2612
10677TIP3    H253523   0.733   3.694   2.750  0.4630 -0.2065 -0.8781
10678TIP3   OH253524   0.977   6.072   4.355  0.0762  0.6632  0.0463
10678TIP3    H153525   0.981   6.033   4.442  1.5137  0.6631  0.0007
10678TIP3    H253526   1.068   6.073   4.324 -0.2055  1.9855 -0.8616
10679TIP3   OH253527   6.175   1.990   3.955  0.0170 -0.0630 -0.7250
10679TIP3    H153528   6.088   1.996   3.996  0.1327 -1.7497 -0.1716
10679TIP3    H253529   6.236   2.013   4.025  0.0611  0.1881 -0.8468
10680TIP3   OH253530   5.323   4.187  12.800 -0.1441  0.1650 -0.2325
10680TIP3    H153531   5.344   4.116  12.861 -0.3644 -0.8870 -1.3301
10680TIP3    H253532   5.228   4.185  12.793 -0.1394  0.4620 -0.3848
10681TIP3   OH253533   4.061   6.210   3.817  0.4078 -0.0065  0.4733
10681TIP3    H153534   3.969   6.184   3.825  0.4694 -0.3533  0.0605
10681TIP3    H253535   4.070   6.282   3.880 -0.4813  0.9108 -0.3825
10682TIP3   OH253536   3.076   2.106  14.648  0.0822 -0.4194  0.1945
10682TIP3    H153537   3.073   2.201  14.650  1.7894 -0.3158 -0.6757
10682TIP3    H253538   3.035   2.082  14.565  1.3109 -0.3133 -0.4662
10683TIP3   OH253539   6.352   2.408   2.477 -0.1409  0.1987  0.0463
10683TIP3    H153540   6.326   2.356   2.554 -2.0853 -1.0825 -1.3838
10683TIP3    H253541   6.395   2.486   2.514 -3.4717  1.0348  2.5921
10684TIP3   OH253542   2.435   3.766  12.960 -0.1829 -0.3598  0.0164
10684TIP3    H153543   2.425   3.691  13.018 -1.8799  1.0113  1.6132
10684TIP3    H253544   2.347   3.804  12.955  0.4313  0.9525 -1.5521
10685TIP3   OH253545   1.592   2.560  11.617  0.0571 -0.8302  0.1669
10685TIP3    H153546   1.518   2.522  11.570 -0.3066 -1.3546  1.1335
10685TIP3    H253547   1.668   2.509  11.589  0.1042 -0.1815 -0.9568
10686TIP3   OH253548   6.628   5.498  13.843 -0.0192 -0.5125 -0.3098
10686TIP3    H153549   6.595   5.512  13.931  2.5399 -2.9069  1.1773
10686TIP3    H253550   6.579   5.423  13.810  0.9163 -1.3998  0.2485
10687TIP3   OH253551   4.086   6.513   0.267 -0.1831  0.5790  0.4962
10687TIP3    H153552   4.079   6.433   0.319 -0.6959  1.2851  1.5542
10687TIP3    H253553   4.065   6.485   0.178 -0.7984 -0.3956  0.9226
10688TIP3   OH253554   5.813   3.419  13.048  0.0364  0.3540  0.1960
10688TIP3    H153555   5.730   3.466  13.035  0.5835  1.5052  0.7381
10688TIP3    H253556   5.828   3.374  12.965  0.0425  2.0285 -0.7486
10689TIP3   OH253557   0.114   5.376   0.074  0.5246  0.0702  0.3107
10689TIP3    H153558   0.041   5.334   0.030  1.3875  0.6375 -1.7662
10689TIP3    H253559   0.108   5.346   0.165 -0.5277 -2.2545 -0.4596
10690TIP3   OH253560   1.297   0.549  12.149 -0.0569  0.7412 -0.0394
10690TIP3    H153561   1.389   0.546  12.124 -0.0965  1.5947 -0.3061
10690TIP3    H253562   1.296   0.518  12.240  0.6851  2.0669  0.4506
10691TIP3   OH253563   2.628   2.681   5.538 -0.5411  0.4112 -0.2072
10691TIP3    H153564   2.667   2.746   5.596 -0.2626  0.7558 -0.7689
10691TIP3    H253565   2.635   2.599   5.586 -2.8664  1.0847  1.4617
10692TIP3   OH253566   4.771   6.774  13.907  0.5346 -0.7843  0.1824
10692TIP3    H153567   4.787   6.741  13.819 -2.6255 -0.1331 -0.7314
10692TIP3    H253568   4.756   6.695  13.960  0.0156 -1.0936 -0.4177
10693TIP3   OH253569   5.583   2.212  10.493 -0.4220  0.2217  0.6559
10693TIP3    H153570   5.493   2.179  10.484 -0.6850  1.3768 -1.8203
10693TIP3    H253571   5.609   2.235  10.404  2.8012 -1.1683  1.1130
10694TIP3   OH253572   5.220   2.622  16.414  0.5858  0.3924  0.6618
10694TIP3    H153573   5.143   2.607  16.469  0.7811 -0.7566  0.6414
10694TIP3    H253574   5.201   2.576  16.332  0.2884  2.1033 -0.2846
10695TIP3   OH253575   4.878   4.928  14.114  0.0152 -0.0845 -0.3283
10695TIP3    H153576   4.863   4.978  14.194  0.1755  0.5110 -0.6633
10695TIP3    H253577   4.971   4.940  14.095 -0.1652  0.3612 -0.9813
10696TIP3   OH253578   2.836   5.322   2.620 -0.2130 -0.0276  0.1339
10696TIP3    H153579   2.808   5.232   2.638  0.1291 -0.1194  0.2011
10696TIP3    H253580   2.919   5.313   2.574  0.6450  0.2771  1.5717
10697TIP3   OH253581   0.846   0.629   4.848 -0.6002 -0.3473  0.8460
10697TIP3    H153582   0.902   0.645   4.925  0.4351 -0.4064  0.1259
10697TIP3    H253583   0.789   0.557   4.875 -1.8051  1.0898  2.3346
10698TIP3   OH253584   2.323   5.207  17.030 -0.5493 -0.2345  0.2714
10698TIP3    H153585   2.313   5.301  17.045 -0.1707  0.2463 -2.1506
10698TIP3    H253586   2.417   5.191  17.041 -0.4887 -0.1592 -0.1231
10699TIP3   OH253587   1.000   0.949   5.586 -0.1976  0.1894  0.4869
10699TIP3    H153588   1.010   0.988   5.673 -1.0037  0.5692  0.4186
10699TIP3    H253589   0.905   0.937   5.576 -0.0185 -1.1638  0.2272
10700TIP3   OH253590   2.574   5.571   0.936  0.2501 -0.0486  0.0693
10700TIP3    H153591   2.604   5.592   0.848 -3.1474 -0.3096 -1.3345
10700TIP3    H253592   2.573   5.476   0.940 -0.7181 -0.0581 -0.1006
10701TIP3   OH253593   2.240   5.409  15.713 -0.7164  0.3693 -0.3794
10701TIP3    H153594   2.211   5.318  15.704 -0.2002  0.2411 -0.8335
10701TIP3    H253595   2.165   5.461  15.685 -1.0659  0.0907  0.0205
10702TIP3   OH253596   3.827   6.243   2.444  0.0173  0.7525 -0.0495
10702TIP3    H153597   3.907   6.204   2.409  1.1982  0.4184  2.7049
10702TIP3    H253598   3.858   6.317   2.497 -1.7533  2.1900 -0.9354
10703TIP3   OH253599   4.572   2.040  15.297  0.8154 -0.4319  0.1675
10703TIP3    H153600   4.606   1.965  15.248 -1.4213 -1.1792 -0.3244
10703TIP3    H253601   4.506   2.079  15.240  0.6431  0.8120  1.1660
10704TIP3   OH253602   1.528   6.635   2.729  0.3673 -0.1854 -0.1388
10704TIP3    H153603   1.550   6.636   2.823 -0.9540 -1.1731  0.1995
10704TIP3    H253604   1.445   6.588   2.724 -1.5519  3.0266 -1.4036
10705TIP3   OH253605   4.252   5.760  11.890  0.3168  0.1628 -0.2779
10705TIP3    H153606   4.272   5.843  11.933 -0.5323  0.3374 -0.1896
10705TIP3    H253607   4.172   5.777  11.841  0.8391 -0.2562 -1.3073
10706TIP3   OH253608   0.723   5.885  16.632 -0.4284  0.0020  0.1450
10706TIP3    H153609   0.671   5.898  16.553  0.8826 -1.0232 -0.9265
10706TIP3    H253610   0.727   5.790  16.644  0.6081  0.0804  0.5762
10707TIP3   OH253611   0.594   2.255  15.684  0.4879  0.2929 -0.0635
10707TIP3    H153612   0.689   2.271  15.685  0.5691 -0.1743 -0.1103
10707TIP3    H253613   0.584   2.177  15.630  0.0381  0.5705 -0.3784
10708TIP3   OH253614   4.574   4.750  12.958 -0.3256  0.3857 -0.1021
10708TIP3    H153615   4.623   4.798  12.891  1.8808 -1.3379  0.1727
10708TIP3    H253616   4.618   4.770  13.040 -0.4049 -0.7480  0.2414
10709TIP3   OH253617   0.042   0.791  13.214  0.3962  0.1243  0.3904
10709TIP3    H153618   0.094   0.762  13.140 -2.1956 -1.9041 -0.7786
10709TIP3    H253619   0.025   0.712  13.264 -3.2852  0.1758 -0.4897
10710TIP3   OH253620   4.726   6.231   3.518 -0.5581  0.3293 -0.1323
10710TIP3    H153621   4.640   6.269   3.499 -0.3070  0.5731 -0.8207
10710TIP3    H253622   4.788   6.293   3.480 -0.0325  0.5772  1.0713
10711TIP3   OH253623   6.258   5.313  16.869  0.1579  0.4954  0.0390
10711TIP3    H153624   6.349   5.294  16.845  0.1253  1.3719 -0.8623
10711TIP3    H253625   6.257   5.407  16.887 -0.4573  0.3909  0.5853
10712TIP3   OH253626   0.070   6.120   4.700 -0.2265  0.0389  0.1722
10712TIP3    H153627   0.072   6.024   4.695 -3.3014 -0.1372  0.0548
10712TIP3    H253628  -0.013   6.144   4.658  0.9667  2.8736 -0.8023
10713TIP3   OH253629   1.652   3.564  15.781 -0.5067  0.1455 -0.7889
10713TIP3    H153630   1.732   3.593  15.738  0.9557 -1.4537  0.6767
10713TIP3    H253631   1.623   3.640  15.832  0.4073  0.5678 -0.8803
10714TIP3   OH253632   4.469   4.309  13.395 -0.1210 -0.1004 -0.0272
10714TIP3    H153633   4.558   4.292  13.363  0.5441  0.4156  1.4417
10714TIP3    H253634   4.455   4.402  13.378 -0.0357  0.0141  0.4981
10715TIP3   OH253635   2.945   4.800   0.673  0.0063  0.3253 -0.3009
10715TIP3    H153636   3.007   4.844   0.615  0.7134 -0.7405 -0.3950
10715TIP3    H253637   2.997   4.777   0.750 -0.6447  0.7133  0.2677
10716TIP3   OH253638   4.124   5.749   4.011 -0.0926  0.2692 -0.3553
10716TIP3    H153639   4.179   5.717   3.940  1.9423  0.7876  0.8968
10716TIP3    H253640   4.098   5.837   3.983  3.3572  1.8262  0.7422
10717TIP3   OH253641   3.722   4.324  14.939 -0.4192  0.3138 -0.4246
10717TIP3    H153642   3.732   4.374  14.858 -2.1787  1.9565  0.2686
10717TIP3    H253643   3.810   4.293  14.960  0.2177  0.6034 -2.4872
10718TIP3   OH253644   6.655   4.930   2.514  0.3099 -0.2095 -0.3520
10718TIP3    H153645   6.667   4.855   2.456 -0.1653  0.3791 -1.2225
10718TIP3    H253646   6.641   4.891   2.600 -0.5681 -1.1478 -0.8935
10719TIP3   OH253647   6.747   6.651   1.929  0.2068  0.2522 -0.1811
10719TIP3    H153648   6.684   6.581   1.939 -0.0479  0.7374  2.3660
10719TIP3    H253649   6.831   6.611   1.950  0.3247  0.2686 -0.6266
10720TIP3   OH253650   0.134   1.302  14.314  0.2233 -0.2051 -0.9770
10720TIP3    H153651   0.069   1.232  14.323  0.0518  0.1894  1.5853
10720TIP3    H253652   0.086   1.374  14.273 -0.5855 -0.4017 -0.4083
10721TIP3   OH253653   3.675   3.873  13.695  0.1027  0.2131 -0.3796
10721TIP3    H153654   3.682   3.805  13.629  1.1999 -0.3780  0.3268
10721TIP3    H253655   3.720   3.949  13.657 -0.2433  0.2315 -0.7563
10722TIP3   OH253656   0.572   4.353   4.928 -0.3875 -0.3613  0.8903
10722TIP3    H153657   0.622   4.430   4.957 -0.7597 -0.4071  1.6621
10722TIP3    H253658   0.531   4.320   5.008 -2.1010 -0.0125  0.1755
10723TIP3   OH253659   2.335   3.076   2.555 -0.2019 -0.4341  0.0419
10723TIP3    H153660   2.423   3.067   2.517 -1.1362  1.4909 -2.8939
10723TIP3    H253661   2.289   2.997   2.527  0.2325 -0.8719  0.5448
10724TIP3   OH253662   0.406   3.912  16.270 -0.3963  0.2082  0.7049
10724TIP3    H153663   0.338   3.974  16.299 -2.2435 -0.8825 -1.0144
10724TIP3    H253664   0.431   3.944  16.183 -1.7125 -1.6070 -0.4161
10725TIP3   OH253665   1.907   5.376  15.792  0.0432 -0.4110  0.7207
10725TIP3    H153666   1.968   5.372  15.866 -0.7292 -2.1810  1.2997
10725TIP3    H253667   1.919   5.294  15.746 -0.9860 -0.2238  0.0813
10726TIP3   OH253668   2.867   3.226  11.773 -0.2718  0.0552  0.0317
10726TIP3    H153669   2.900   3.236  11.683  0.3091 -0.2577  0.2000
10726TIP3    H253670   2.794   3.164  11.765 -1.3456  1.3423 -0.4529
10727TIP3   OH253671   3.649   3.763  11.033 -0.0599  0.1783  0.7785
10727TIP3    H153672   3.617   3.714  11.109 -1.3804  0.8078  0.6522
10727TIP3    H253673   3.681   3.695  10.973 -0.0652 -0.3975  1.4140
10728TIP3   OH253674   5.047   1.853   0.627  0.6014 -0.0535 -0.2013
10728TIP3    H153675   5.098   1.857   0.708 -0.3872 -2.5421  0.6226
10728TIP3    H253676   5.044   1.761   0.604 -0.2230  0.4494 -2.4178
10729TIP3   OH253677   4.115   5.655  15.478  0.5980 -0.4469  0.1057
10729TIP3    H153678   4.177   5.636  15.549 -0.6650 -0.9014  1.1314
10729TIP3    H253679   4.082   5.569  15.451  1.9314 -0.3862 -1.9004
10730TIP3   OH253680   3.919   6.275  14.787 -0.3712  0.3044 -0.0259
10730TIP3    H153681   3.985   6.344  14.781 -1.2436  1.0421 -2.1364
10730TIP3    H253682   3.844   6.315  14.830 -0.5639  0.4173 -0.4634
10731TIP3   OH253683   0.041   1.456  13.079 -0.4479  0.2179 -0.2862
10731TIP3    H153684   0.063   1.482  12.990 -1.4198  2.5192  0.0884
10731TIP3    H253685   0.122   1.419  13.114  0.5108  1.1224 -1.4678
10732TIP3   OH253686   4.938   5.677  15.995  0.4475 -0.3240 -0.0051
10732TIP3    H153687   4.998   5.645  15.928  0.2739  1.5413 -1.0936
10732TIP3    H253688   4.983   5.659  16.078  1.9508 -0.0685 -0.7455
10733TIP3   OH253689   2.034   3.994  10.833  0.4655 -0.3311 -0.4385
10733TIP3    H153690   2.125   3.969  10.819  0.0938 -0.4380 -3.1454
10733TIP3    H253691   2.021   4.070  10.778 -0.4135  1.4636  2.0508
10734TIP3   OH253692   3.141   6.153   4.232 -0.6085 -0.5177  1.1032
10734TIP3    H153693   3.159   6.185   4.320 -0.3663 -1.2992  1.3417
10734TIP3    H253694   3.077   6.216   4.197  0.2637  0.5346  1.3473
10735TIP3   OH253695   1.230   2.424  12.018  0.0416 -0.2133 -0.0231
10735TIP3    H153696   1.310   2.438  11.968 -0.0769  2.1767  0.3629
10735TIP3    H253697   1.261   2.384  12.100  0.5184 -1.6244 -0.8463
10736TIP3   OH253698   2.465   6.657   3.752  0.6129 -0.1288 -0.8386
10736TIP3    H153699   2.519   6.735   3.768  0.2922 -0.0726  0.0007
10736TIP3    H253700   2.519   6.601   3.697  0.3695  1.2415 -2.5856
10737TIP3   OH253701   4.226   0.435  12.661  0.4230 -0.2705 -0.1856
10737TIP3    H153702   4.162   0.414  12.729 -1.0298  1.5106 -0.9207
10737TIP3    H253703   4.262   0.350  12.634 -2.2502 -1.4418 -0.3317
10738TIP3   OH253704   5.438   4.964  12.747  0.4675 -0.2215 -0.0557
10738TIP3    H153705   5.384   4.887  12.731  0.4969 -0.1476 -0.5300
10738TIP3    H253706   5.462   4.995  12.660 -0.3786  0.9060  0.0710
10739TIP3   OH253707   5.560   2.888  12.076  0.1343  0.3495  0.0718
10739TIP3    H153708   5.614   2.818  12.038 -0.9359 -1.2352  1.3297
10739TIP3    H253709   5.613   2.921  12.149 -0.5285 -1.2530  1.3500
10740TIP3   OH253710   5.347   2.888   0.987 -0.3899  0.1422 -0.1190
10740TIP3    H153711   5.310   2.869   1.073  0.2275  1.1742  0.3895
10740TIP3    H253712   5.288   2.844   0.926 -0.9898 -0.3793  0.8126
10741TIP3   OH253713   3.746   6.825   6.169  0.1990 -0.3392 -0.0257
10741TIP3    H153714   3.825   6.873   6.195  0.6979 -0.4770 -1.2485
10741TIP3    H253715   3.680   6.854   6.232  0.8897  0.7459  0.2411
10742TIP3   OH253716   4.275   5.604   4.399 -0.5407 -0.5403 -0.7632
10742TIP3    H153717   4.240   5.599   4.488  0.0390  2.9365 -0.1970
10742TIP3    H253718   4.206   5.645   4.348  0.5537  1.2138 -0.9113
10743TIP3   OH253719   2.522   6.008  11.766 -0.2682 -0.0189 -0.0920
10743TIP3    H153720   2.571   5.963  11.697  0.5992  0.1321  0.4120
10743TIP3    H253721   2.456   5.944  11.793 -0.8796  0.0693 -1.3340
10744TIP3   OH253722   1.769   5.517  17.182  0.1155  0.5036  0.3083
10744TIP3    H153723   1.674   5.509  17.192 -0.0059  0.4831 -0.7474
10744TIP3    H253724   1.804   5.498  17.269 -0.7275 -1.5796  0.2561
10745TIP3   OH253725   1.804   5.244  12.398  0.4900  0.2582  0.7302
10745TIP3    H153726   1.781   5.175  12.336 -0.3596 -0.7600  2.1271
10745TIP3    H253727   1.737   5.311  12.385 -1.3370 -1.1588  2.3669
10746TIP3   OH253728   3.548   1.582  14.304  0.4219  0.3929 -0.3880
10746TIP3    H153729   3.492   1.655  14.329 -0.2781 -0.3217  0.1697
10746TIP3    H253730   3.619   1.622  14.254 -1.0382  1.2265 -1.8956
10747TIP3   OH253731   5.954   4.104  12.816 -0.1973 -0.5218  0.5154
10747TIP3    H153732   5.889   4.065  12.874 -1.0441  1.4971  0.9941
10747TIP3    H253733   5.904   4.135  12.741  0.3343  0.2336  0.4594
10748TIP3   OH253734   1.978   6.451  11.822  0.5353  0.0874  0.2483
10748TIP3    H153735   1.962   6.458  11.728 -0.0598 -1.9188  0.1557
10748TIP3    H253736   1.906   6.499  11.863  1.9529  2.8455 -0.2686
10749TIP3   OH253737   6.363   4.603   4.424  0.4870  0.0748  0.2986
10749TIP3    H153738   6.301   4.578   4.355  1.4018  0.2050 -0.5950
10749TIP3    H253739   6.381   4.696   4.408  2.4618 -0.4345 -0.7476
10750TIP3   OH253740   6.631   4.962  15.371 -0.3162 -0.1663 -0.1165
10750TIP3    H153741   6.621   4.999  15.458 -0.0150 -0.0649 -0.1233
10750TIP3    H253742   6.576   4.883  15.371 -0.3903 -0.1142  0.1310
10751TIP3   OH253743   3.607   0.067   0.636  0.2861  0.5766 -1.1782
10751TIP3    H153744   3.689   0.018   0.644  0.8475  1.3902 -1.8180
10751TIP3    H253745   3.580   0.085   0.726  0.4287 -0.3062 -0.9521
10752TIP3   OH253746   5.884   3.270  14.018 -0.4610 -0.0144  0.0249
10752TIP3    H153747   5.913   3.326  13.946  1.4344  0.6687  1.2506
10752TIP3    H253748   5.842   3.330  14.080  2.4088  0.3681  1.7864
10753TIP3   OH253749   6.030   6.328   3.838 -0.3361  0.1526  0.3275
10753TIP3    H153750   6.118   6.344   3.871  0.9678 -0.6496 -2.4671
10753TIP3    H253751   6.005   6.244   3.877  1.6605 -1.3920 -1.5200
10754TIP3   OH253752   6.678   1.837  14.859 -0.5144 -0.2228  0.1103
10754TIP3    H153753   6.689   1.924  14.896  0.2458  0.1919 -1.0454
10754TIP3    H253754   6.604   1.800  14.907 -0.0241  0.5499  1.5299
10755TIP3   OH253755   1.623   4.994   3.151 -0.1328  0.3204  0.0255
10755TIP3    H153756   1.641   4.904   3.179 -1.3704 -0.5695 -1.8131
10755TIP3    H253757   1.628   5.046   3.231 -0.5089 -1.5696  1.3391
10756TIP3   OH253758   3.330   3.296  15.700  0.4786 -0.0623  0.2036
10756TIP3    H153759   3.312   3.371  15.756 -0.8193 -0.6578  0.6386
10756TIP3    H253760   3.425   3.287  15.701  0.5858  1.0293  0.8604
10757TIP3   OH253761   1.487   1.173   1.925 -0.4698  0.1866 -0.3892
10757TIP3    H153762   1.581   1.159   1.923 -0.5439 -0.7704  1.1563
10757TIP3    H253763   1.468   1.196   2.016 -1.4845  2.5233 -1.1108
10758TIP3   OH253764   3.179   4.406   2.156 -0.2613  0.3754 -0.2316
10758TIP3    H153765   3.175   4.341   2.226  1.3149  0.7784  0.2901
10758TIP3    H253766   3.247   4.468   2.185  0.4502  0.5437 -2.1195
10759TIP3   OH253767   4.576   1.841   0.583 -0.1107 -0.1894  0.3515
10759TIP3    H153768   4.658   1.841   0.533 -0.1348  0.7418  0.2916
10759TIP3    H253769   4.513   1.885   0.526 -0.5017 -0.3771  0.6353
10760TIP3   OH253770   0.923   3.639   3.634 -0.2755 -0.3674  0.6195
10760TIP3    H153771   0.882   3.671   3.714  1.6350  0.7447  1.2116
10760TIP3    H253772   1.016   3.633   3.655  0.1278 -1.1549 -1.1789
10761TIP3   OH253773   3.579   1.850   5.377 -0.4864  0.2996 -0.5604
10761TIP3    H153774   3.530   1.771   5.356  1.4866 -0.6483 -1.8666
10761TIP3    H253775   3.587   1.896   5.294 -1.1284  1.6251  0.0842
10762TIP3   OH253776   3.583   2.040  14.982  0.6595 -0.3358  0.1867
10762TIP3    H153777   3.591   2.069  15.073 -1.3720  0.7380  0.1032
10762TIP3    H253778   3.628   2.107  14.931  1.0265 -0.4567  0.3547
10763TIP3   OH253779   4.358   1.753  12.572  0.5389  0.0422 -0.0968
10763TIP3    H153780   4.288   1.702  12.612  0.1351  0.2879 -0.4755
10763TIP3    H253781   4.365   1.832  12.627  1.5903 -0.6959  0.8560
10764TIP3   OH253782   4.552   0.861  13.025 -0.5301  0.5248  0.2219
10764TIP3    H153783   4.610   0.785  13.033 -1.6386 -0.4655 -0.8248
10764TIP3    H253784   4.526   0.881  13.115  1.0948  0.7553  0.6740
10765TIP3   OH253785   6.006   4.007   5.447  0.2579 -0.1112  0.7956
10765TIP3    H153786   6.101   3.996   5.457  0.1280 -0.9934  1.1912
10765TIP3    H253787   5.969   3.932   5.493 -0.6347  0.1722  0.5518
10766TIP3   OH253788   3.132   3.096  16.773  0.0954  0.0425 -0.4185
10766TIP3    H153789   3.066   3.062  16.713 -0.5047 -0.2982  0.4076
10766TIP3    H253790   3.115   3.050  16.856  0.9045  0.4896  0.0113
10767TIP3   OH253791   5.345   4.788   1.338 -0.3999 -0.4315 -0.0657
10767TIP3    H153792   5.267   4.783   1.283 -0.2816 -0.0404 -0.2704
10767TIP3    H253793   5.403   4.849   1.292  0.1396 -0.9325 -0.0592
10768TIP3   OH253794   3.161   0.824  16.055  0.6439 -0.0813 -0.1354
10768TIP3    H153795   3.104   0.803  16.129  0.6787 -1.3182 -0.4412
10768TIP3    H253796   3.104   0.870  15.993  0.9500  2.2844  1.2297
10769TIP3   OH253797   0.177   0.941   1.704 -0.4707  0.0562 -0.6058
10769TIP3    H153798   0.096   0.890   1.701 -0.1773 -0.4368 -0.2195
10769TIP3    H253799   0.151   1.029   1.675 -0.9664 -0.3190 -1.3235
10770TIP3   OH253800   4.760   4.564   5.633 -0.0727 -0.0956 -0.6970
10770TIP3    H153801   4.738   4.591   5.543 -2.0136 -0.1592 -0.2913
10770TIP3    H253802   4.689   4.504   5.657  0.7286 -0.5071  0.6916
10771TIP3   OH253803   4.190   4.948   1.543 -0.1680 -0.7433  0.5369
10771TIP3    H153804   4.195   4.860   1.505  0.5898 -0.9451  1.0730
10771TIP3    H253805   4.242   4.942   1.623 -0.8611 -0.0378  1.0462
10772TIP3   OH253806   5.857   3.700   2.328 -0.1013 -1.2136  0.0514
10772TIP3    H153807   5.805   3.645   2.386 -0.2472 -1.1967 -0.0619
10772TIP3    H253808   5.828   3.676   2.240 -0.0726 -1.0501 -0.0036
10773TIP3   OH253809   2.230   3.509  16.150 -0.3623  0.0325  0.2964
10773TIP3    H153810   2.288   3.568  16.199 -1.2347  0.0219  1.3700
10773TIP3    H253811   2.153   3.563  16.131 -0.3191 -0.1726 -0.4897
10774TIP3   OH253812   4.451   6.079  15.859 -0.4317 -0.2000  0.2613
10774TIP3    H153813   4.379   6.113  15.912  0.0670 -0.3233  1.0452
10774TIP3    H253814   4.507   6.154  15.843 -0.1754 -0.3179  0.5914
10775TIP3   OH253815   5.633   5.674   6.172  0.4456 -0.3718  0.2211
10775TIP3    H153816   5.561   5.736   6.182  1.2935  0.6104  0.4212
10775TIP3    H253817   5.618   5.633   6.087 -0.4076 -0.2642  0.3137
10776TIP3   OH253818   1.727   6.566   3.531  0.2371 -0.7463 -0.0422
10776TIP3    H153819   1.755   6.569   3.439 -0.5833 -2.2734 -0.3715
10776TIP3    H253820   1.640   6.607   3.531  1.0347  1.0904  0.4448
10777TIP3   OH253821   2.984   5.550   2.796 -0.7323 -0.2158 -0.4228
10777TIP3    H153822   2.950   5.638   2.810  0.5476  0.3122 -0.5289
10777TIP3    H253823   2.943   5.522   2.714 -1.0028  0.3577 -0.4894
10778TIP3   OH253824   0.546   5.787  11.312 -0.8333 -0.2121  0.3322
10778TIP3    H153825   0.570   5.845  11.384 -0.4650  1.6507 -1.1945
10778TIP3    H253826   0.553   5.843  11.234 -1.0566 -2.1775 -1.1573
10779TIP3   OH253827   3.551   2.746   2.934  0.0553  0.4351  0.7497
10779TIP3    H153828   3.614   2.733   3.005  4.3450  1.3813 -2.4520
10779TIP3    H253829   3.559   2.667   2.880 -0.5617  1.1345 -0.4130
10780TIP3   OH253830   1.981   3.098  15.414  0.4692  0.3384  1.0435
10780TIP3    H153831   2.047   3.047  15.368  0.2839  2.3597 -1.7665
10780TIP3    H253832   2.002   3.087  15.507  3.1806 -1.1021  0.3647
10781TIP3   OH253833   2.721   3.946  14.456 -0.2453  0.1363  0.1931
10781TIP3    H153834   2.771   3.867  14.476  1.4521  1.2024  0.3996
10781TIP3    H253835   2.654   3.951  14.524  0.2845 -0.5806  0.7771
10782TIP3   OH253836   1.618   1.409  11.142 -0.5177 -0.4478  0.2446
10782TIP3    H153837   1.662   1.483  11.100 -1.2792  0.7888  1.5841
10782TIP3    H253838   1.525   1.423  11.126 -0.7082 -0.8131  0.9710
10783TIP3   OH253839   4.733   2.054   3.326  0.1814  0.4324  0.1273
10783TIP3    H153840   4.700   1.996   3.394  2.1576 -0.1616  0.6474
10783TIP3    H253841   4.665   2.121   3.317 -1.9443 -1.6218 -0.1336
10784TIP3   OH253842   1.096   1.189  16.562 -0.0303 -0.7644  0.0895
10784TIP3    H153843   1.121   1.103  16.526  0.5856 -0.5032 -0.1295
10784TIP3    H253844   1.079   1.243  16.484 -0.8722 -0.8117  0.2342
10785TIP3   OH253845   4.633   4.157  15.717 -0.3671  0.1667  0.1307
10785TIP3    H153846   4.606   4.115  15.799  0.8071  0.4570  0.6869
10785TIP3    H253847   4.682   4.089  15.671 -1.3047 -0.1010 -0.5032
10786TIP3   OH253848   4.867   3.583   2.074 -0.4611 -0.4413  0.2396
10786TIP3    H153849   4.797   3.574   2.139  0.0557  1.7284  1.2083
10786TIP3    H253850   4.935   3.633   2.119  0.1863  0.6060 -1.7719
10787TIP3   OH253851   3.770   0.045  11.788  0.4456  0.0256 -0.4468
10787TIP3    H153852   3.758   0.079  11.699 -0.9184  0.0928 -0.2620
10787TIP3    H253853   3.716   0.102  11.843  1.5234  0.1872  0.4849
10788TIP3   OH253854   3.725   3.582  11.551  0.4195 -0.1941 -0.7872
10788TIP3    H153855   3.733   3.587  11.456  1.4452  0.9239 -0.6661
10788TIP3    H253856   3.803   3.627  11.584 -0.0220 -0.3910  0.5871
10789TIP3   OH253857   3.788   2.609  15.845  0.1538 -0.5403  0.7713
10789TIP3    H153858   3.743   2.599  15.929  0.9947 -1.3295  1.1522
10789TIP3    H253859   3.789   2.520  15.808  1.4573 -0.5685  0.8254
10790TIP3   OH253860   5.581   5.855  15.452  0.6130 -0.5630  0.0058
10790TIP3    H153861   5.582   5.932  15.509  0.3154 -1.5497  1.4103
10790TIP3    H253862   5.615   5.886  15.368  1.0463  0.9532  0.7077
10791TIP3   OH253863   5.038   4.341   0.430  0.1751  0.0926 -0.2527
10791TIP3    H153864   5.131   4.339   0.406  0.0867 -0.3319 -0.5635
10791TIP3    H253865   5.015   4.250   0.446 -0.8075 -0.1459 -2.6131
10792TIP3   OH253866   0.987   2.806   6.120  0.0427 -0.3743 -0.0588
10792TIP3    H153867   0.978   2.859   6.199 -0.9254 -0.2444 -0.2374
10792TIP3    H253868   0.948   2.721   6.143  2.2086 -1.2883  0.4485
10793TIP3   OH253869   6.506   6.341   0.517 -0.0373  0.1097  0.2234
10793TIP3    H153870   6.504   6.431   0.485 -2.5561 -0.3921 -1.3408
10793TIP3    H253871   6.549   6.292   0.447 -0.2097 -0.1235  0.2769
10794TIP3   OH253872   3.278   5.772   4.249 -0.2244 -0.2887  0.4392
10794TIP3    H153873   3.337   5.816   4.188  0.5473 -1.5489  0.2463
10794TIP3    H253874   3.306   5.681   4.248 -1.7087 -0.7769  0.9094
10795TIP3   OH253875   3.034   0.133  14.425  0.1207 -0.4072 -0.2186
10795TIP3    H153876   3.017   0.071  14.354 -0.5840  0.8000 -1.1513
10795TIP3    H253877   2.966   0.200  14.415  0.5689  0.2785  1.0463
10796TIP3   OH253878   3.354   6.289  10.360  0.1107 -0.1754 -0.1933
10796TIP3    H153879   3.333   6.375  10.396 -1.8530 -0.4669 -0.5591
10796TIP3    H253880   3.441   6.269  10.395  1.2117  2.5201 -1.1670
10797TIP3   OH253881   0.756   4.561  12.106 -0.5432 -0.5475  0.2758
10797TIP3    H153882   0.709   4.496  12.054 -1.0758  0.4313 -0.4810
10797TIP3    H253883   0.705   4.569  12.186 -1.3701  0.0922 -0.2996
10798TIP3   OH253884   5.231   5.254  10.647 -0.0797 -0.4936  0.4782
10798TIP3    H153885   5.174   5.269  10.722 -2.1578 -0.0175 -1.0983
10798TIP3    H253886   5.267   5.167  10.661  0.3220 -0.0478  2.4580
10799TIP3   OH253887   6.773   0.038   1.072 -0.4350  0.1741  1.1139
10799TIP3    H153888   6.843  -0.021   1.101 -0.6257 -0.7774 -0.2820
10799TIP3    H253889   6.804   0.125   1.098  0.7930 -0.3302  1.4307
10800TIP3   OH253890   6.004   6.211   2.103 -0.3202 -0.6775  0.0821
10800TIP3    H153891   5.969   6.258   2.028 -0.4116 -1.5652 -0.4467
10800TIP3    H253892   5.933   6.211   2.167 -1.5911 -2.9828 -1.2033
10801TIP3   OH253893   2.998   1.730   1.353  0.6226  0.5720  0.0700
10801TIP3    H153894   2.918   1.780   1.336  0.3922 -0.0350 -0.6487
10801TIP3    H253895   2.975   1.672   1.426  0.7801  1.2422  0.6620
10802TIP3   OH253896   4.918   3.413  15.283 -0.0245  0.3693  0.1825
10802TIP3    H153897   4.854   3.392  15.216 -1.1811 -0.2844  1.4413
10802TIP3    H253898   4.896   3.502  15.311 -1.6630 -0.5155  1.9270
10803TIP3   OH253899   1.086   4.394   2.425 -0.4649  0.1002  0.3161
10803TIP3    H153900   1.094   4.450   2.347 -0.6382 -0.0794  0.1680
10803TIP3    H253901   1.112   4.451   2.497 -0.0650  0.1963  0.1006
10804TIP3   OH253902   3.375   2.827   4.510  0.4853 -0.1350  0.4027
10804TIP3    H153903   3.391   2.882   4.587  3.0414  0.3524 -0.3802
10804TIP3    H253904   3.423   2.747   4.527 -0.4390 -0.7824  0.0600
10805TIP3   OH253905   4.491   5.739   6.731  0.0825 -0.5691  0.0676
10805TIP3    H153906   4.409   5.692   6.747 -0.5416  0.3027 -0.4545
10805TIP3    H253907   4.503   5.794   6.808 -0.1921 -0.1860 -0.1615
10806TIP3   OH253908   6.582   3.616   1.737  0.6536  0.9141  0.0287
10806TIP3    H153909   6.634   3.547   1.696  0.8394  1.7125 -1.1222
10806TIP3    H253910   6.647   3.675   1.776  0.5574  1.1564 -0.1743
10807TIP3   OH253911   5.135   3.494   1.109  0.3891 -0.9338  0.3902
10807TIP3    H153912   5.055   3.474   1.061 -0.7009 -0.5303  1.9673
10807TIP3    H253913   5.194   3.421   1.090 -1.3272 -2.6300  1.3074
10808TIP3   OH253914   2.554   1.231  16.862  0.0826  0.2138 -0.1209
10808TIP3    H153915   2.468   1.226  16.903  1.5220 -3.1368  3.0832
10808TIP3    H253916   2.555   1.159  16.799  0.3230  0.7311 -0.7241
10809TIP3   OH253917   3.304   3.018   5.091  0.1116 -0.3586  0.2643
10809TIP3    H153918   3.329   3.043   5.180  1.5465  0.4453 -0.3250
10809TIP3    H253919   3.333   3.092   5.037  0.3046 -1.3240 -1.0039
10810TIP3   OH253920   3.619   1.831   4.442 -0.0578 -0.2655  0.3146
10810TIP3    H153921   3.634   1.919   4.478  0.2576 -0.6363  1.1048
10810TIP3    H253922   3.539   1.802   4.486 -0.9423  0.1585 -0.9683
10811TIP3   OH253923   0.260   0.002   5.757 -0.2203  0.1492 -0.2615
10811TIP3    H153924   0.321  -0.006   5.684 -0.8551 -2.7489 -0.5890
10811TIP3    H253925   0.269   0.093   5.785  2.9135  0.3267 -1.4007
10812TIP3   OH253926   2.947   5.443   0.718 -0.5254  0.5183 -0.2155
10812TIP3    H153927   2.935   5.348   0.707  0.4361  0.1293  1.6292
10812TIP3    H253928   3.041   5.454   0.730 -0.5880  1.7688 -0.8092
10813TIP3   OH253929   3.796   3.095   3.107  0.5513  0.6909 -0.3335
10813TIP3    H153930   3.854   3.159   3.149 -0.4441  0.7953  0.9548
10813TIP3    H253931   3.715   3.144   3.091  1.1741  0.9400 -3.3478
10814TIP3   OH253932   1.821   5.722  13.996 -0.3864  0.1232  0.8249
10814TIP3    H153933   1.913   5.701  13.985 -0.3554  0.7144 -0.1734
10814TIP3    H253934   1.780   5.699  13.912 -0.8656  1.2055  0.7354
10815TIP3   OH253935   1.862   0.446   4.909  0.5771 -0.3828  0.3223
10815TIP3    H153936   1.938   0.411   4.954 -0.2285 -0.1010  1.9789
10815TIP3    H253937   1.804   0.370   4.899  0.3328 -0.2488  0.6943
10816TIP3   OH253938   0.242   5.209  14.710 -0.2798  0.1253  0.0668
10816TIP3    H153939   0.268   5.212  14.802 -2.3418 -0.9346  0.7480
10816TIP3    H253940   0.319   5.240  14.662  0.6288  1.3004  2.1631
10817TIP3   OH253941   0.856   2.466  16.123 -0.2175  0.0914 -0.5616
10817TIP3    H153942   0.945   2.498  16.135  0.0560 -0.6074 -0.6580
10817TIP3    H253943   0.834   2.489  16.032  1.4964 -3.4645 -2.0647
10818TIP3   OH253944   2.971   4.967   5.562 -0.0138  0.4832 -0.0589
10818TIP3    H153945   2.929   4.900   5.616 -0.5485  0.8885  0.0281
10818TIP3    H253946   2.969   4.930   5.474 -1.3265  0.8421 -0.2089
10819TIP3   OH253947   3.613   3.252   5.241  0.1524 -0.7753  0.2460
10819TIP3    H153948   3.617   3.346   5.255 -1.5759 -0.5493 -0.4935
10819TIP3    H253949   3.642   3.240   5.150 -2.9921 -0.4560 -0.9559
10820TIP3   OH253950   5.681   0.553   1.668 -0.0310  0.2214  0.7883
10820TIP3    H153951   5.705   0.518   1.754 -1.5603 -0.1320  1.0986
10820TIP3    H253952   5.707   0.484   1.606 -0.1976 -0.1345  1.1078
10821TIP3   OH253953   0.827   5.902  16.156  0.3917  0.5147  0.2052
10821TIP3    H153954   0.904   5.862  16.196 -0.0985 -2.1968 -1.3288
10821TIP3    H253955   0.755   5.882  16.215  0.2335 -0.5128 -0.3127
10822TIP3   OH253956   1.321   1.186  15.663 -0.3845  0.5345 -0.3650
10822TIP3    H153957   1.287   1.102  15.632  1.2584  0.9297 -3.5969
10822TIP3    H253958   1.267   1.252  15.621  0.8977  1.0905 -1.2068
10823TIP3   OH253959   1.747   6.394   0.592  0.2347  0.7427 -0.2894
10823TIP3    H153960   1.841   6.382   0.610 -0.1249  1.3472  2.4448
10823TIP3    H253961   1.744   6.466   0.529  1.6059  0.6374 -0.5187
10824TIP3   OH253962   4.636   3.268  17.033 -0.4743 -0.0388  0.0768
10824TIP3    H153963   4.619   3.241  17.124 -0.4257  1.9057  0.7038
10824TIP3    H253964   4.690   3.346  17.041  1.3114 -1.0192 -1.7179
10825TIP3   OH253965   1.073   6.681   3.003 -0.0874 -0.6685 -0.0056
10825TIP3    H153966   1.101   6.685   3.095  1.8234  3.5099 -0.5149
10825TIP3    H253967   0.978   6.693   3.006 -0.2321 -1.9043  1.4213
10826TIP3   OH253968   0.369   3.438   4.915  0.3737 -0.4931 -0.4403
10826TIP3    H153969   0.410   3.441   4.829  0.7266 -0.1481 -0.2635
10826TIP3    H253970   0.390   3.351   4.949  1.7903  0.0111  0.0417
10827TIP3   OH253971   1.213   5.961  12.661 -0.5016 -0.2461 -0.2470
10827TIP3    H153972   1.131   5.917  12.682  0.2685 -0.2962  3.2059
10827TIP3    H253973   1.216   6.035  12.722  1.7451  0.0915 -0.7080
10828TIP3   OH253974   4.055   0.321   5.259  0.7784  0.0160 -0.5065
10828TIP3    H153975   4.090   0.320   5.348  0.4657  0.5453 -0.3795
10828TIP3    H253976   3.976   0.374   5.264 -0.4959 -1.7533 -0.6355
10829TIP3   OH253977   0.768   0.735  12.868  0.3286  0.6826 -0.6256
10829TIP3    H153978   0.780   0.751  12.961 -1.6217  4.1802 -0.7993
10829TIP3    H253979   0.734   0.646  12.863  0.7798  0.2837  1.9207
10830TIP3   OH253980   6.156   5.250  11.571 -0.0748  0.0127 -0.1369
10830TIP3    H153981   6.089   5.203  11.620  0.2506  0.0505  0.3488
10830TIP3    H253982   6.139   5.227  11.479 -1.1067  0.4666 -0.0850
10831TIP3   OH253983   6.220   3.130   5.788  0.2520  0.5568  0.3697
10831TIP3    H153984   6.254   3.171   5.867  1.9004 -0.6420  0.3216
10831TIP3    H253985   6.292   3.134   5.726 -0.8268  0.9648 -0.9255
10832TIP3   OH253986   2.815   0.382  14.791  0.5906 -0.5317  0.2857
10832TIP3    H153987   2.845   0.294  14.770 -0.2921 -1.1146  1.3387
10832TIP3    H253988   2.782   0.375  14.881 -1.3096  0.3828 -0.2833
10833TIP3   OH253989   4.522   0.209  15.817  0.7878  0.0641  0.1909
10833TIP3    H153990   4.557   0.209  15.906  2.2451 -0.5257 -0.3460
10833TIP3    H253991   4.522   0.301  15.791 -0.4200  0.3288  1.0718
10834TIP3   OH253992   3.972   3.923  16.228 -0.6161  0.0398  0.2915
10834TIP3    H153993   3.932   3.878  16.154 -0.1147 -0.7689  0.5072
10834TIP3    H253994   3.903   3.926  16.294 -0.6703 -0.3773  0.2590
10835TIP3   OH253995   0.379   4.727   0.098  0.0989  0.2423 -0.2124
10835TIP3    H153996   0.449   4.746   0.036 -0.0491 -1.8222 -1.0910
10835TIP3    H253997   0.405   4.644   0.139 -1.2365  0.0632  0.3187
10836TIP3   OH253998   4.192   4.757   0.045  0.0611 -0.5478 -0.2579
10836TIP3    H153999   4.224   4.693  -0.019 -1.4811  0.0790 -1.7154
10836TIP3    H254000   4.221   4.842   0.011  3.2902 -0.3951  2.3551
10837TIP3   OH254001   5.271   2.918   3.933  0.2069  0.3266 -0.2533
10837TIP3    H154002   5.217   2.840   3.941  0.7570 -0.1905 -1.4142
10837TIP3    H254003   5.262   2.962   4.018 -0.2454 -0.8953  0.3514
10838TIP3   OH254004   2.398   6.824  15.420  0.2524 -0.3229 -0.4320
10838TIP3    H154005   2.410   6.772  15.341  0.6858 -1.0294  0.0938
10838TIP3    H254006   2.465   6.892  15.414  1.7935 -1.6977  0.3906
10839TIP3   OH254007   3.205   5.731   2.441  0.3893  0.2972  0.5188
10839TIP3    H154008   3.197   5.800   2.506 -1.9411  0.4600  0.1467
10839TIP3    H254009   3.235   5.775   2.362  1.6971  0.3542  1.0150
10840TIP3   OH254010   1.223   4.403   4.566  0.0830 -0.1662 -0.5421
10840TIP3    H154011   1.168   4.479   4.544  0.6057  1.2418  2.5641
10840TIP3    H254012   1.195   4.377   4.653  1.3304 -2.3119 -0.7123
10841TIP3   OH254013   0.392   3.638  10.777 -0.2226  0.3294  0.5275
10841TIP3    H154014   0.474   3.687  10.787 -0.7936  1.3122  0.4935
10841TIP3    H254015   0.420   3.550  10.754  0.8617  0.3828  1.5245
10842TIP3   OH254016   4.595   5.957   3.105 -0.4837  0.5237  0.1802
10842TIP3    H154017   4.599   5.935   3.011  0.6061  0.2854  0.2693
10842TIP3    H254018   4.571   5.874   3.147 -1.7737  0.8115  0.0659
10843TIP3   OH254019   5.140   5.824   5.318  0.0723  0.0527  0.0561
10843TIP3    H154020   5.135   5.741   5.367 -0.8486  0.5654  0.8552
10843TIP3    H254021   5.132   5.798   5.226  0.1214 -0.7757  0.2761
10844TIP3   OH254022   3.290   5.782  14.048  0.7497  0.4688  0.2573
10844TIP3    H154023   3.335   5.828  13.977  3.0725  0.0707  1.3895
10844TIP3    H254024   3.304   5.689  14.030  0.4894  0.3423  0.6946
10845TIP3   OH254025   5.875   6.003   6.044 -0.1446 -0.6037  0.4076
10845TIP3    H154026   5.889   6.002   6.138  0.1950 -1.6705  0.3583
10845TIP3    H254027   5.905   6.089   6.016  1.5145 -0.9448  1.0286
10846TIP3   OH254028   4.831   4.266   3.085  0.3920  0.0622  1.0633
10846TIP3    H154029   4.769   4.339   3.091 -0.0023 -0.2266  0.6418
10846TIP3    H254030   4.775   4.189   3.075  0.7790 -0.3756  2.1407
10847TIP3   OH254031   4.794   5.794  16.599 -0.0196 -0.0987 -0.4686
10847TIP3    H154032   4.732   5.724  16.582  0.7583 -0.8424 -0.3393
10847TIP3    H254033   4.750   5.851  16.663 -0.5675 -0.6038 -0.3946
10848TIP3   OH254034   4.991   0.211   1.182  0.3923 -0.1662  0.3455
10848TIP3    H154035   4.899   0.189   1.193  0.1303 -0.4133 -2.0078
10848TIP3    H254036   5.038   0.136   1.219 -0.4133 -1.5286 -1.2998
10849TIP3   OH254037   3.691   2.876   5.396 -0.1397 -0.6430  0.2291
10849TIP3    H154038   3.641   2.941   5.446  0.5667  0.2966 -0.2455
10849TIP3    H254039   3.679   2.902   5.305 -0.5734 -1.7281 -0.0377
10850TIP3   OH254040   4.534   1.680   3.759 -0.1961 -0.0435  0.1065
10850TIP3    H154041   4.607   1.659   3.701 -1.6272 -3.9650 -0.5714
10850TIP3    H254042   4.548   1.627   3.837 -1.4158  0.4934  0.7194
10851TIP3   OH254043   5.740   5.876   0.049  0.6864 -0.1373 -0.5930
10851TIP3    H154044   5.758   5.871   0.143  2.0801  1.5075 -0.7289
10851TIP3    H254045   5.663   5.932   0.042  0.7427 -0.0383 -0.4307
10852TIP3   OH254046   6.749   5.467  13.370  0.3759  0.0592 -0.6028
10852TIP3    H154047   6.696   5.530  13.419 -0.0264 -0.9889  0.3389
10852TIP3    H254048   6.786   5.409  13.436  0.6780 -0.7559 -1.4544
10853TIP3   OH254049   1.076   3.758   5.606 -0.2087 -0.1769 -0.1494
10853TIP3    H154050   1.160   3.724   5.638 -0.2507  0.5499  0.7816
10853TIP3    H254051   1.023   3.679   5.594 -0.2321 -0.5251  1.7747
10854TIP3   OH254052   1.706   3.951   5.700 -0.2743 -0.0908  0.6083
10854TIP3    H154053   1.741   3.925   5.785 -2.2760  0.1808  1.5709
10854TIP3    H254054   1.634   4.010   5.720 -0.0058  0.9876 -1.3411
10855TIP3   OH254055   6.241   1.990  12.417  0.3948 -0.5811 -0.1503
10855TIP3    H154056   6.212   2.080  12.408 -0.0640 -0.5211  1.5923
10855TIP3    H254057   6.167   1.937  12.388  0.8733 -0.4305 -1.7345
10856TIP3   OH254058   5.400   6.631  13.848 -0.1481 -0.0688  0.2951
10856TIP3    H154059   5.401   6.713  13.897 -1.2090 -0.7328  1.4684
10856TIP3    H254060   5.373   6.657  13.760  0.3260  0.9352  0.4284
10857TIP3   OH254061   2.236   1.068  16.192 -0.1213  0.0465  0.3116
10857TIP3    H154062   2.313   1.095  16.143  0.0290 -0.0941  0.4702
10857TIP3    H254063   2.216   0.981  16.159 -0.9471  0.5674 -0.6082
10858TIP3   OH254064   5.689   2.644   3.201 -0.2480 -0.4051 -0.0833
10858TIP3    H154065   5.594   2.652   3.192 -0.2152  0.1017  0.0119
10858TIP3    H254066   5.723   2.727   3.168  0.0566  0.2692  1.8406
10859TIP3   OH254067   2.625   5.382   1.370  0.7331  0.6695 -0.0358
10859TIP3    H154068   2.601   5.386   1.462  2.1232  0.7477  0.3478
10859TIP3    H254069   2.586   5.461   1.332 -0.4303  0.2841  0.3248
10860TIP3   OH254070   0.347   3.578   3.604  0.8464  0.0571 -0.6159
10860TIP3    H154071   0.344   3.671   3.585  0.2226  0.2093  0.2084
10860TIP3    H254072   0.314   3.536   3.524  0.3988  0.5786 -0.7062
10861TIP3   OH254073   0.854   3.198   4.221 -0.1784 -0.1194  0.6249
10861TIP3    H154074   0.940   3.159   4.241 -0.8322 -0.8980  2.0571
10861TIP3    H254075   0.847   3.273   4.279 -0.6544 -0.3300  0.8453
10862TIP3   OH254076   3.489   5.337   6.835 -0.1193  0.9955  0.2094
10862TIP3    H154077   3.413   5.280   6.844  0.3725  0.2444 -0.2784
10862TIP3    H254078   3.453   5.425   6.826 -0.9390  0.5966 -0.4594
10863TIP3   OH254079   5.237   4.947  12.142  0.0423  0.6464 -0.0116
10863TIP3    H154080   5.328   4.960  12.169  0.4480 -0.6571 -0.6583
10863TIP3    H254081   5.186   4.991  12.210  1.1252  0.4832  0.9569
10864TIP3   OH254082   3.607   1.533   1.100  0.5134 -0.2792  0.5098
10864TIP3    H154083   3.691   1.489   1.115  1.6716  1.3278 -0.9270
10864TIP3    H254084   3.625   1.596   1.031 -2.0070 -0.1548 -0.1149
10865TIP3   OH254085   1.089   5.098  14.187  0.2720  0.0673  0.3665
10865TIP3    H154086   0.998   5.123  14.172 -0.1471 -1.1024  0.8303
10865TIP3    H254087   1.115   5.144  14.267  0.9644  2.4771 -1.1421
10866TIP3   OH254088   3.869   5.065  16.831  0.0081 -0.0526  0.1234
10866TIP3    H154089   3.807   5.083  16.761 -1.4224  0.1680  1.3823
10866TIP3    H254090   3.948   5.113  16.807 -0.5951  0.3451 -1.1194
10867TIP3   OH254091   2.650   2.351   5.613  0.2727 -0.1627 -0.1376
10867TIP3    H154092   2.656   2.376   5.521 -0.8260  1.4853  0.1960
10867TIP3    H254093   2.570   2.300   5.620 -1.0558  1.8570  0.2843
10868TIP3   OH254094   1.116   4.722  11.597 -0.0740  0.0245  0.2490
10868TIP3    H154095   1.107   4.802  11.648 -0.1984 -0.7141  1.4046
10868TIP3    H254096   1.116   4.652  11.661 -2.8835 -1.1558 -0.8729
10869TIP3   OH254097   6.792   0.658   3.154  0.7187  0.2207 -0.4222
10869TIP3    H154098   6.762   0.568   3.158  2.4179 -0.3558  1.1414
10869TIP3    H254099   6.871   0.655   3.100  1.7732  0.3993  1.0410
10870TIP3   OH254100   3.000   4.909   2.398 -0.2859 -0.7654 -0.2329
10870TIP3    H154101   3.083   4.952   2.377 -0.7982 -0.6818 -2.2752
10870TIP3    H254102   2.944   4.979   2.431  0.0537 -0.6022  0.0102
10871TIP3   OH254103   1.193   3.188   0.766  0.6444 -0.0642  0.3954
10871TIP3    H154104   1.173   3.124   0.698  2.1863 -0.4539  0.2745
10871TIP3    H254105   1.252   3.143   0.826  1.8787  1.2501  0.2375
10872TIP3   OH254106   4.113   2.115   0.566  0.0837 -0.2932 -0.3216
10872TIP3    H154107   4.102   2.030   0.524 -0.0687 -0.6227  0.3741
10872TIP3    H254108   4.177   2.099   0.636 -1.8917 -0.4723  1.5449
10873TIP3   OH254109   5.514   3.503  12.959  0.1649 -0.2951 -0.5903
10873TIP3    H154110   5.428   3.539  12.940  0.2755  0.0185 -0.5199
10873TIP3    H254111   5.548   3.559  13.030  1.5871  1.4549 -2.4968
10874TIP3   OH254112   0.210   5.617   4.523 -0.3847 -0.3772  0.1602
10874TIP3    H154113   0.149   5.548   4.498 -1.3094  0.2817  0.5432
10874TIP3    H254114   0.287   5.604   4.467  0.0448 -2.5386  1.1481
10875TIP3   OH254115   0.031   0.979   5.050 -0.0904 -0.3585 -0.1634
10875TIP3    H154116   0.060   0.991   5.140 -0.9602  2.1729 -0.1379
10875TIP3    H254117   0.082   0.904   5.018  1.0524 -0.6112  2.0649
10876TIP3   OH254118   3.797   4.499  14.740  0.2722 -0.3101  0.0134
10876TIP3    H154119   3.822   4.592  14.744  0.5740 -0.3324 -0.9726
10876TIP3    H254120   3.742   4.494  14.662 -0.9966 -0.6856  0.9033
10877TIP3   OH254121   2.090   4.832   1.046  0.6298 -0.1727 -0.3932
10877TIP3    H154122   2.025   4.808   0.980 -0.7831 -1.2444  1.3112
10877TIP3    H254123   2.149   4.757   1.052  0.2132 -0.4627  0.1815
10878TIP3   OH254124   3.240   5.053   6.403  0.6437 -0.6239 -0.5642
10878TIP3    H154125   3.259   5.074   6.495  1.0950 -1.1135 -0.5397
10878TIP3    H254126   3.153   5.089   6.388 -0.5416 -2.6904  0.7953
10879TIP3   OH254127   5.124   0.143   2.791  0.0448 -0.2753  0.5752
10879TIP3    H154128   5.178   0.071   2.823  0.1207 -0.4345  0.1010
10879TIP3    H254129   5.040   0.102   2.771 -0.0217 -0.1662  0.6321
10880TIP3   OH254130   5.914   4.735  14.594 -0.4748 -0.0400 -0.0394
10880TIP3    H154131   5.953   4.819  14.570 -1.2574  1.1249  2.4738
10880TIP3    H254132   5.971   4.670  14.552  0.9866  1.6822 -0.8907
10881TIP3   OH254133   0.648   1.399  15.266  0.4178  0.5283 -0.1781
10881TIP3    H154134   0.670   1.482  15.308  0.9861  1.0956 -1.5310
10881TIP3    H254135   0.723   1.380  15.209  0.2048 -0.8138 -0.0440
10882TIP3   OH254136   3.522   2.216   4.293  0.3481  0.4787  0.0012
10882TIP3    H154137   3.567   2.191   4.374  0.3987  1.8435  0.4206
10882TIP3    H254138   3.481   2.300   4.313  0.4328  0.8885 -1.4112
10883TIP3   OH254139   2.383   6.415  14.566  0.0356 -0.4037 -0.4642
10883TIP3    H154140   2.332   6.334  14.562  0.2312 -0.5427 -0.1414
10883TIP3    H254141   2.434   6.415  14.485  0.8189 -1.1217  0.0194
10884TIP3   OH254142   3.626   3.291  12.818  0.2176 -0.4777  0.1297
10884TIP3    H154143   3.641   3.287  12.913  1.0880  1.2637  0.0991
10884TIP3    H254144   3.713   3.303  12.781 -0.4397  3.0368 -0.5697
10885TIP3   OH254145   5.022   0.766   0.997  0.2455  0.2111 -0.3436
10885TIP3    H154146   5.105   0.741   0.957  1.2985  0.3824  1.6262
10885TIP3    H254147   4.989   0.686   1.037  1.8295  0.9541  2.8280
10886TIP3   OH254148   1.239   2.679   5.570 -0.3310  0.3497  1.1597
10886TIP3    H154149   1.216   2.602   5.519 -1.7236 -0.2464  2.6042
10886TIP3    H254150   1.311   2.719   5.521 -0.3550 -1.1943 -0.2461
10887TIP3   OH254151   0.314   3.789  12.237 -0.0204 -0.6815 -0.3180
10887TIP3    H154152   0.314   3.696  12.216 -0.3465 -0.6924 -0.2766
10887TIP3    H254153   0.287   3.832  12.155 -2.4575 -0.7955  0.3332
10888TIP3   OH254154   5.896   2.432  16.408  0.5140 -0.7610  0.0408
10888TIP3    H154155   5.879   2.339  16.397 -0.3315 -0.4136 -2.1745
10888TIP3    H254156   5.817   2.467  16.449 -0.2875 -0.6398 -1.5501
10889TIP3   OH254157   4.887   3.346  16.638 -0.0635 -0.1643  0.4487
10889TIP3    H154158   4.811   3.300  16.673 -0.9921  1.7755  1.0968
10889TIP3    H254159   4.852   3.400  16.568  0.8897  0.0437  0.1258
10890TIP3   OH254160   0.521   6.640   5.590  0.0987 -0.3029 -0.5642
10890TIP3    H154161   0.498   6.716   5.643  2.1110 -0.1418  0.1586
10890TIP3    H254162   0.442   6.623   5.538 -0.5656  1.9772 -0.4244
10891TIP3   OH254163   0.523   2.427  13.462  0.1275 -0.0898  0.3073
10891TIP3    H154164   0.516   2.522  13.470  2.5529 -0.0289  3.9335
10891TIP3    H254165   0.616   2.411  13.442 -0.2462 -1.7419 -0.3268
10892TIP3   OH254166   2.347   4.854  13.639 -0.2845  0.5966 -0.4092
10892TIP3    H154167   2.261   4.819  13.659  0.6938 -1.3571  0.7100
10892TIP3    H254168   2.404   4.777  13.633  1.3943  1.8155 -1.0560
10893TIP3   OH254169   1.852   5.559  11.491  0.2459 -0.2811 -0.1156
10893TIP3    H154170   1.867   5.639  11.540  1.1554 -0.4141 -0.1655
10893TIP3    H254171   1.867   5.488  11.554  2.3834 -0.4871 -0.7547
10894TIP3   OH254172   6.352   5.284   5.601 -0.4404 -0.5606  0.0344
10894TIP3    H154173   6.383   5.284   5.692  0.4401 -0.5981 -0.2567
10894TIP3    H254174   6.323   5.194   5.586  0.9901 -0.9985 -0.2328
10895TIP3   OH254175   2.259   3.660   4.054  0.3565  0.5005 -0.7231
10895TIP3    H154176   2.270   3.746   4.014  2.4661  0.2152 -0.8819
10895TIP3    H254177   2.329   3.607   4.015 -1.1959 -1.4550 -1.0227
10896TIP3   OH254178   5.518   0.625   0.303  0.3240 -0.7035 -0.1469
10896TIP3    H154179   5.576   0.622   0.226  2.3239 -1.9813  1.3023
10896TIP3    H254180   5.574   0.600   0.376 -1.5298  0.3965  1.7617
10897TIP3   OH254181   5.682   6.442   1.240  0.5378 -0.5258  0.4661
10897TIP3    H154182   5.597   6.479   1.261 -0.6092 -1.8552 -1.5637
10897TIP3    H254183   5.696   6.374   1.306 -0.4253 -0.9480  0.2403
10898TIP3   OH254184   1.648   0.311   4.652  0.1294  0.3786 -0.0223
10898TIP3    H154185   1.598   0.245   4.604  3.4937 -2.5743  0.0429
10898TIP3    H254186   1.658   0.275   4.740 -1.7898  3.3723  1.6034
10899TIP3   OH254187   5.481   1.589  14.447  0.2217  0.6947  0.1205
10899TIP3    H154188   5.509   1.678  14.469  0.4935  0.5102  0.5464
10899TIP3    H254189   5.457   1.550  14.532  2.5475 -0.4679  0.3218
10900TIP3   OH254190   1.699   4.463  15.838 -1.2481  0.5383  0.0502
10900TIP3    H154191   1.713   4.376  15.800  0.5144  0.6066  0.4462
10900TIP3    H254192   1.610   4.486  15.813 -1.2373 -0.7581 -1.3314
10901TIP3   OH254193   1.037   0.574   1.997  0.1609 -0.1790  0.1928
10901TIP3    H154194   0.950   0.610   1.982  0.4831  0.3967 -0.2934
10901TIP3    H254195   1.033   0.539   2.087 -1.2285 -2.0771 -0.5364
10902TIP3   OH254196   2.089   0.115  14.246 -0.0193  0.3735 -0.0205
10902TIP3    H154197   2.045   0.039  14.285  0.1609  1.0470  1.6155
10902TIP3    H254198   2.181   0.090  14.243  0.0185  0.4517  0.3700
10903TIP3   OH254199   3.039   6.439  14.361 -0.5331 -0.0349 -0.2968
10903TIP3    H154200   3.005   6.362  14.408 -0.5364  0.9996  1.4797
10903TIP3    H254201   3.099   6.402  14.296 -0.9773 -1.5729  0.1193
10904TIP3   OH254202   0.086   1.652  12.269  0.4643  0.0573 -0.0381
10904TIP3    H154203   0.142   1.727  12.249  0.1233  1.4213  3.4430
10904TIP3    H254204   0.145   1.590  12.314 -0.0090 -0.1320  0.3316
10905TIP3   OH254205   2.032   5.953  10.766 -0.0535 -0.2001 -0.5263
10905TIP3    H154206   2.000   5.891  10.831  2.5831  0.2582  1.3608
10905TIP3    H254207   1.954   5.978  10.716 -1.9371 -1.6979  1.4945
10906TIP3   OH254208   0.183   5.893  12.025 -0.3007 -0.0991 -0.3206
10906TIP3    H154209   0.222   5.901  11.938 -0.7458  0.0650 -0.5070
10906TIP3    H254210   0.195   5.801  12.048  0.4158  0.0041 -0.2698
10907TIP3   OH254211   6.330   0.946   2.365  0.1764 -0.0319 -0.4503
10907TIP3    H154212   6.343   0.955   2.459 -1.2614 -0.1129 -0.2361
10907TIP3    H254213   6.393   1.009   2.327  0.5513  0.2251  0.5549
10908TIP3   OH254214   6.284   6.807   4.228 -0.3606  0.5007 -0.5452
10908TIP3    H154215   6.321   6.728   4.267 -1.9843 -0.3070 -0.5725
10908TIP3    H254216   6.190   6.800   4.243 -0.4359  3.3072  1.0509
10909TIP3   OH254217   1.123   0.119  11.415  0.2264 -0.0283  0.3878
10909TIP3    H154218   1.126   0.060  11.340  0.0857  0.6277 -0.1511
10909TIP3    H254219   1.184   0.190  11.392 -1.9787  1.7371 -0.5121
10910TIP3   OH254220   6.752   2.526  12.542  0.3200  1.0407  0.4760
10910TIP3    H154221   6.721   2.592  12.604  0.7073 -0.2684  2.1459
10910TIP3    H254222   6.842   2.550  12.523  0.2829  1.3118  0.6450
10911TIP3   OH254223   1.971   3.319   3.670 -0.0296  0.1808 -0.3596
10911TIP3    H154224   1.988   3.303   3.577  0.0797  0.5813 -0.4071
10911TIP3    H254225   1.990   3.235   3.712  0.1122  0.0549 -0.6715
10912TIP3   OH254226   1.865   5.866   3.712  0.0333  0.1018 -0.1188
10912TIP3    H154227   1.926   5.796   3.734 -1.1244 -0.8179  0.2531
10912TIP3    H254228   1.919   5.945   3.708  1.4230 -0.8607 -0.9070
10913TIP3   OH254229   3.004   5.112   6.039  0.2774 -0.5863  0.0603
10913TIP3    H154230   2.967   5.197   6.014  0.2046 -0.8795 -0.8879
10913TIP3    H254231   2.989   5.105   6.133 -0.6390  0.0041 -0.0317
10914TIP3   OH254232   3.330   5.253  12.723 -0.1971  0.0276  0.4423
10914TIP3    H154233   3.317   5.344  12.698 -2.4316 -0.6866 -1.3194
10914TIP3    H254234   3.254   5.231  12.777 -0.7419 -1.2850 -0.7935
10915TIP3   OH254235   1.656   1.472  11.628  0.0189 -0.5037  0.1737
10915TIP3    H154236   1.572   1.447  11.591 -1.5872  1.3431  2.2886
10915TIP3    H254237   1.635   1.513  11.712  3.0313  0.0907  0.7886
10916TIP3   OH254238   6.217   4.031  14.126 -0.4576 -0.3281 -0.3134
10916TIP3    H154239   6.307   3.997  14.125 -0.4408 -0.3452  0.9692
10916TIP3    H254240   6.209   4.074  14.211 -2.3273 -2.0475  0.4197
10917TIP3   OH254241   4.708   3.872  15.687 -0.2013  0.3146  0.8126
10917TIP3    H154242   4.789   3.838  15.648 -1.4832  0.3349 -2.1027
10917TIP3    H254243   4.670   3.796  15.732  0.0861 -0.4459 -0.1882
10918TIP3   OH254244   3.779   4.304   2.205  0.5364  0.4288 -0.0055
10918TIP3    H154245   3.865   4.321   2.166  0.5525 -0.8322 -0.5784
10918TIP3    H254246   3.799   4.258   2.287  0.4104 -1.5849 -1.0431
10919TIP3   OH254247   1.543   6.539   5.850  0.3052  0.5292  0.0790
10919TIP3    H154248   1.519   6.448   5.831  2.6526  0.2369 -1.9690
10919TIP3    H254249   1.632   6.534   5.883  0.7262  2.1523 -0.7335
10920TIP3   OH254250   4.593   0.004   2.935 -0.4038  0.0259  0.2165
10920TIP3    H154251   4.616   0.078   2.880 -0.4873  1.3501  1.8832
10920TIP3    H254252   4.574   0.042   3.021 -0.6608 -1.9000  1.0810
10921TIP3   OH254253   0.205   5.295  11.734 -0.1917 -0.0400 -0.6226
10921TIP3    H154254   0.256   5.251  11.802 -0.0366  1.2899  0.1594
10921TIP3    H254255   0.250   5.273  11.652  1.8939  1.3420  0.0712
10922TIP3   OH254256   5.851   6.232  11.231 -0.6198  0.3540 -0.0411
10922TIP3    H154257   5.784   6.284  11.186 -0.4670  1.2200  0.6832
10922TIP3    H254258   5.841   6.256  11.323 -0.7468 -1.1767  0.3637
10923TIP3   OH254259   2.030   4.297   0.577  0.0027  0.0111 -0.0888
10923TIP3    H154260   2.052   4.313   0.485  0.4110 -1.9023 -0.3579
10923TIP3    H254261   2.108   4.258   0.615 -0.8151 -1.0347  0.5693
10924TIP3   OH254262   5.422   4.993   6.406  0.2066  0.2112  0.3407
10924TIP3    H154263   5.391   4.995   6.496  1.0766 -1.5780  0.7325
10924TIP3    H254264   5.346   4.967   6.354 -0.2072  0.9033  0.5912
10925TIP3   OH254265   2.500   4.702  16.105 -0.9897 -0.1576  0.1682
10925TIP3    H154266   2.519   4.608  16.102 -0.9235 -0.1747  0.8982
10925TIP3    H254267   2.426   4.710  16.164 -1.9121  0.1290 -0.9811
10926TIP3   OH254268   6.202   1.694   3.464  0.3802  0.2347  0.3012
10926TIP3    H154269   6.277   1.664   3.515  0.6098  0.1017 -0.1143
10926TIP3    H254270   6.126   1.664   3.514  0.5830  0.8754  1.0338
10927TIP3   OH254271   3.984   0.153   1.141 -0.0947 -0.0035 -0.3356
10927TIP3    H154272   4.047   0.225   1.140  0.6240 -0.6191 -0.7656
10927TIP3    H254273   3.922   0.176   1.210 -1.1933  2.1207 -1.9107
10928TIP3   OH254274   3.291   2.484  11.473  0.2810  0.1107 -0.3508
10928TIP3    H154275   3.263   2.555  11.531  0.4469 -0.4924  0.4841
10928TIP3    H254276   3.235   2.410  11.497 -0.3641  0.1361 -1.6888
10929TIP3   OH254277   5.663   0.618  16.983 -0.1473 -0.2773  0.5635
10929TIP3    H154278   5.609   0.551  17.024 -2.5133  0.6834 -0.8121
10929TIP3    H254279   5.615   0.644  16.905  2.0095  1.1359 -0.3967
10930TIP3   OH254280   3.528   3.376   2.839 -0.2164 -0.4927 -0.1451
10930TIP3    H154281   3.573   3.419   2.911  0.9947 -0.2603 -1.0032
10930TIP3    H254282   3.595   3.319   2.800 -0.5734  0.0606 -1.6149
10931TIP3   OH254283   1.407   2.603   1.766 -1.0905 -0.5863  0.3793
10931TIP3    H154284   1.430   2.678   1.712 -0.5801 -0.9568  0.0712
10931TIP3    H254285   1.412   2.635   1.856 -2.0885  0.0739  0.2129
10932TIP3   OH254286   1.698   3.804   2.808 -0.1849 -0.0520  0.0733
10932TIP3    H154287   1.690   3.837   2.718  0.5540 -1.1325 -0.4135
10932TIP3    H254288   1.780   3.841   2.839 -0.0570 -0.2936  0.0257
10933TIP3   OH254289   2.030   5.830  11.913  0.0483 -0.1959 -1.0991
10933TIP3    H154290   1.988   5.887  11.976  0.3311 -1.8116  0.6390
10933TIP3    H254291   2.123   5.848  11.922  0.1749 -1.1737 -0.2272
10934TIP3   OH254292   1.368   0.529  16.802  0.6962  0.2429  0.6065
10934TIP3    H154293   1.398   0.489  16.721  0.0802  0.7860  0.0898
10934TIP3    H254294   1.316   0.461  16.844 -2.1233  1.0514 -1.2725
10935TIP3   OH254295   3.053   3.536  16.354 -0.0061  0.0520  1.1117
10935TIP3    H154296   3.112   3.604  16.388  0.2774  0.6264 -0.4177
10935TIP3    H254297   3.076   3.529  16.261 -1.9733 -0.1129  0.5890
10936TIP3   OH254298   2.015   4.058  16.225 -0.2408  0.0960  0.0809
10936TIP3    H154299   2.031   3.975  16.271 -1.9149  0.3424  1.1992
10936TIP3    H254300   2.074   4.120  16.268  0.7636 -0.3994 -0.5248
10937TIP3   OH254301   6.404   6.318   3.307 -0.2550  0.1642  0.0745
10937TIP3    H154302   6.450   6.272   3.237  0.8212 -0.6460  1.2669
10937TIP3    H254303   6.473   6.363   3.356 -0.9282  0.3604  0.8681
10938TIP3   OH254304   0.575   2.225   0.355  0.3307 -0.2423  0.1878
10938TIP3    H154305   0.578   2.130   0.370 -2.1771 -0.4744 -0.2634
10938TIP3    H254306   0.627   2.262   0.426  1.7989 -1.9522  0.0769
10939TIP3   OH254307   1.341   4.418   1.657 -0.4449 -0.2641 -0.0122
10939TIP3    H154308   1.388   4.501   1.646 -2.1767  0.9587  1.1154
10939TIP3    H254309   1.249   4.442   1.649 -0.9744 -2.2102 -0.2307
10940TIP3   OH254310   4.216   0.941  11.816  0.2588 -0.3017 -0.1430
10940TIP3    H154311   4.269   0.944  11.896 -0.1757 -0.7173  0.1682
10940TIP3    H254312   4.278   0.922  11.746  0.8036  1.0410 -0.0598
10941TIP3   OH254313   1.579   2.639   4.737 -1.1278  0.2539 -0.4275
10941TIP3    H154314   1.653   2.694   4.712 -0.6215  0.6318  1.6865
10941TIP3    H254315   1.606   2.550   4.715 -0.5879  0.5187 -0.8513
10942TIP3   OH254316   3.443   5.300  15.181 -0.2742 -0.2032  0.2008
10942TIP3    H154317   3.524   5.343  15.209 -0.3188 -0.1742  0.2839
10942TIP3    H254318   3.373   5.361  15.204 -0.3693 -0.4742  0.6529
10943TIP3   OH254319   4.313   3.881  13.204  0.0667 -0.6829 -0.0445
10943TIP3    H154320   4.334   3.845  13.290 -0.9116 -0.2733  0.3845
10943TIP3    H254321   4.218   3.887  13.203  0.0360 -1.0469 -1.3153
10944TIP3   OH254322   1.432   0.471  13.098  0.1131 -0.0738  0.0580
10944TIP3    H154323   1.473   0.534  13.040  2.1635 -0.9304  0.4798
10944TIP3    H254324   1.437   0.388  13.051  2.0535 -0.8369  1.4888
10945TIP3   OH254325   0.156   0.414   0.748  0.1644  0.7081  0.0393
10945TIP3    H154326   0.069   0.388   0.717  0.6343  0.4023 -1.0988
10945TIP3    H254327   0.139   0.469   0.824 -1.0285  0.6922 -0.1885
10946TIP3   OH254328   0.695   2.298  15.407 -0.1435  0.1274  0.2934
10946TIP3    H154329   0.700   2.390  15.381 -0.7536 -0.1097 -0.7390
10946TIP3    H254330   0.775   2.283  15.457  1.5828  0.4272 -2.1900
10947TIP3   OH254331   3.665   2.248  11.152  0.3333 -0.2864 -0.6780
10947TIP3    H154332   3.647   2.201  11.070 -1.0696  1.0790 -1.2167
10947TIP3    H254333   3.630   2.191  11.220 -1.4140 -0.0874 -1.3279
10948TIP3   OH254334   1.679   1.829  13.353  0.5093  0.3964 -0.2892
10948TIP3    H154335   1.600   1.785  13.386  0.4856  0.9260  0.3850
10948TIP3    H254336   1.659   1.848  13.261 -0.1172  0.4531 -0.1499
10949TIP3   OH254337   4.063   1.150   2.795  0.1762 -0.0198 -0.2177
10949TIP3    H154338   3.972   1.149   2.765  0.1243 -1.1768 -0.0696
10949TIP3    H254339   4.114   1.119   2.720  0.7208  2.5533 -1.0116
10950TIP3   OH254340   5.647   4.081   3.864  0.0139 -0.0506 -0.4073
10950TIP3    H154341   5.576   4.076   3.801  1.5146 -3.2219 -2.1247
10950TIP3    H254342   5.718   4.127   3.818  0.2023  0.0750  0.0025
10951TIP3   OH254343   6.031   1.784  11.944  0.0485 -0.3878 -0.3610
10951TIP3    H154344   6.044   1.709  11.887 -2.4776 -1.0162 -0.2354
10951TIP3    H254345   5.996   1.853  11.887  1.1919  0.3274 -0.2453
10952TIP3   OH254346   4.034   0.458  14.057 -0.3705 -0.7684  0.7604
10952TIP3    H154347   4.021   0.423  14.145 -0.5112 -0.5694  0.8188
10952TIP3    H254348   4.121   0.427  14.031 -0.2028 -0.5742  1.0876
10953TIP3   OH254349   1.520   2.901   3.883 -0.0403  0.2086 -0.1008
10953TIP3    H154350   1.588   2.949   3.834 -1.1650  2.8806  0.7321
10953TIP3    H254351   1.508   2.820   3.834  1.1094  1.3190 -2.4384
10954TIP3   OH254352   0.674   4.839  12.321  0.0684  0.0002 -0.3253
10954TIP3    H154353   0.587   4.799  12.332  0.2534  0.0489  1.6947
10954TIP3    H254354   0.735   4.769  12.346  0.5560  0.3585 -0.5075
10955TIP3   OH254355   3.765   6.335   3.688  0.1886 -0.6645 -0.3230
10955TIP3    H154356   3.674   6.358   3.701  0.5016  0.5584 -0.2094
10955TIP3    H254357   3.784   6.271   3.757 -0.4531 -0.5715 -0.0603
10956TIP3   OH254358   6.779   6.090   4.146 -0.0073  0.2961  1.0053
10956TIP3    H154359   6.816   6.004   4.167 -1.2083 -1.1880 -2.1997
10956TIP3    H254360   6.852   6.151   4.152  1.3092 -1.2805  1.6000
10957TIP3   OH254361   2.193   3.782  15.126 -0.2232  0.3009 -0.1252
10957TIP3    H154362   2.126   3.738  15.178 -1.4025  0.2146 -1.6613
10957TIP3    H254363   2.250   3.712  15.095  0.5340  0.3596  1.0498
10958TIP3   OH254364   0.668   0.163   3.095 -0.6098  0.4306 -0.4140
10958TIP3    H154365   0.712   0.173   3.180 -0.7241 -0.0456 -0.2971
10958TIP3    H254366   0.740   0.160   3.032 -0.5293  0.9327 -0.3538
10959TIP3   OH254367   1.874   5.719   1.944  0.6596 -0.5302  0.0149
10959TIP3    H154368   1.965   5.706   1.916  0.5225 -0.5849 -0.4193
10959TIP3    H254369   1.865   5.814   1.951  0.1559 -0.3801 -2.0473
10960TIP3   OH254370   4.585   6.794   2.592 -0.4546  0.2464 -0.6695
10960TIP3    H154371   4.581   6.852   2.516  0.6156  1.6182  0.2665
10960TIP3    H254372   4.662   6.740   2.578  1.9856  2.9656  0.9888
10961TIP3   OH254373   4.525   3.341  11.071 -0.2924 -0.2235 -0.3439
10961TIP3    H154374   4.494   3.415  11.123 -0.7929 -0.8130  0.2017
10961TIP3    H254375   4.502   3.364  10.981 -2.2295 -0.5736  0.0177
10962TIP3   OH254376   5.686   2.916   4.522 -0.5403 -0.8074  0.0722
10962TIP3    H154377   5.762   2.882   4.570 -1.0786  0.4078  1.9199
10962TIP3    H254378   5.647   2.980   4.582 -1.3974  0.6778 -1.9449
10963TIP3   OH254379   3.218   3.140   4.367  0.2725 -0.4374 -0.2966
10963TIP3    H154380   3.282   3.186   4.312  0.1277  0.0395 -0.0640
10963TIP3    H254381   3.144   3.200   4.374 -0.4039 -1.1649 -0.9380
10964TIP3   OH254382   4.279   4.828  12.333  0.1432  0.0366 -0.0890
10964TIP3    H154383   4.260   4.735  12.347  2.6355 -0.6354 -0.7250
10964TIP3    H254384   4.345   4.849  12.400  0.6813  0.9406 -0.8820
10965TIP3   OH254385   2.028   5.062   4.787 -0.5769  0.2270  0.0611
10965TIP3    H154386   2.035   5.005   4.864 -1.9454  0.9924  0.7928
10965TIP3    H254387   2.119   5.077   4.761 -0.1600 -2.0895 -0.0402
10966TIP3   OH254388   1.286   2.961   3.643  0.2912  0.1917 -0.5021
10966TIP3    H154389   1.312   2.871   3.624  0.5703  0.1367  0.1420
10966TIP3    H254390   1.213   2.978   3.582 -1.4159 -1.2912  1.0156
10967TIP3   OH254391   2.611   3.387   2.439 -0.4556  0.6028  0.3960
10967TIP3    H154392   2.668   3.405   2.514 -0.1723  0.0675  0.3195
10967TIP3    H254393   2.530   3.434   2.458  0.1131  1.6264  0.3672
10968TIP3   OH254394   0.072   2.852  12.744  0.3220 -0.2083  0.1818
10968TIP3    H154395   0.103   2.763  12.760 -0.7684 -0.6177  0.1213
10968TIP3    H254396   0.084   2.897  12.828 -0.3912 -0.8121  0.6204
10969TIP3   OH254397   0.508   5.827   5.214  0.3022 -0.0984 -0.0246
10969TIP3    H154398   0.572   5.808   5.146 -0.0965  2.8258 -1.3388
10969TIP3    H254399   0.428   5.849   5.166 -0.8211 -0.6542  1.4999
10970TIP3   OH254400   5.683   3.260   2.614 -0.4783  0.2333 -0.7058
10970TIP3    H154401   5.716   3.199   2.549  0.4182  0.3623 -0.3834
10970TIP3    H254402   5.736   3.244   2.692 -1.7472 -0.1476  0.1166
10971TIP3   OH254403   3.911   1.046  11.250 -0.2235  0.0933  0.3242
10971TIP3    H154404   3.993   1.014  11.211  0.4250  0.5721  1.2542
10971TIP3    H254405   3.858   1.072  11.175 -0.0978 -1.5169 -0.3678
10972TIP3   OH254406   6.234   3.731   2.233 -0.1689 -0.2905  0.0621
10972TIP3    H154407   6.209   3.812   2.190 -1.1386  1.0582  2.8703
10972TIP3    H254408   6.152   3.699   2.272  0.1656 -2.7250 -1.0582
10973TIP3   OH254409   5.248   1.691  12.560 -0.4629  0.5183  0.4950
10973TIP3    H154410   5.246   1.595  12.562 -1.0570  0.5190  0.1643
10973TIP3    H254411   5.341   1.713  12.566 -0.3499 -0.0634  1.0767
10974TIP3   OH254412   0.308   4.004  17.009  0.0269  0.2954  0.1315
10974TIP3    H154413   0.268   3.981  17.093 -0.6461 -2.7322 -0.9050
10974TIP3    H254414   0.236   4.036  16.956 -0.1570 -0.6033 -0.1883
10975TIP3   OH254415   5.241   4.742   1.005 -0.2397  0.3555  0.4073
10975TIP3    H154416   5.294   4.781   1.075  0.0855 -0.7155  0.7773
10975TIP3    H254417   5.244   4.806   0.934  1.8443  0.1903  0.2877
10976TIP3   OH254418   6.178   3.486  15.692  0.1202  0.2213  0.6546
10976TIP3    H154419   6.225   3.543  15.631  2.6977  0.5263  2.7230
10976TIP3    H254420   6.237   3.411  15.705 -1.5812 -1.1541  0.7339
10977TIP3   OH254421   2.055   3.406   1.608 -0.0548  0.5330  0.6455
10977TIP3    H154422   2.148   3.382   1.608 -0.5333 -1.5193  0.0777
10977TIP3    H254423   2.029   3.405   1.700  0.3882  0.7069  0.7744
10978TIP3   OH254424   0.865   1.998  14.713 -0.0995 -0.2011 -0.0565
10978TIP3    H154425   0.873   1.939  14.638  3.9770  1.5883 -1.3208
10978TIP3    H254426   0.953   2.000  14.752 -1.4359  0.9149  3.2927
10979TIP3   OH254427   3.335   0.556  17.187  0.1499  0.3300  0.1669
10979TIP3    H154428   3.324   0.561  17.092  1.0310  1.9841  0.1210
10979TIP3    H254429   3.347   0.463  17.205  0.2106  0.0216 -1.3690
10980TIP3   OH254430   6.288   3.229  11.456 -0.2458  0.5078  0.0946
10980TIP3    H154431   6.307   3.146  11.412  2.0767  0.6243  0.7366
10980TIP3    H254432   6.309   3.296  11.390 -0.1066  0.6184  0.2503
10981TIP3   OH254433   4.965   2.833   2.845  0.3404 -0.1858  0.1028
10981TIP3    H154434   4.932   2.760   2.792 -0.2402 -0.9076  1.4082
10981TIP3    H254435   5.050   2.802   2.877  1.5543  0.9661 -1.8027
10982TIP3   OH254436   0.255   2.174   3.529 -0.1643  0.2590 -0.1179
10982TIP3    H154437   0.163   2.185   3.552  0.3649  1.1992  1.8141
10982TIP3    H254438   0.266   2.221   3.447 -1.4013  0.0841 -0.4018
10983TIP3   OH254439   5.882   2.981   4.311  0.9260  0.4644 -0.1330
10983TIP3    H154440   5.867   2.912   4.376  0.9966  0.9973  0.4612
10983TIP3    H254441   5.862   2.940   4.227 -0.6478  0.1998  0.3415
10984TIP3   OH254442   4.631   0.168  14.002 -0.2951  0.8808 -0.2647
10984TIP3    H154443   4.599   0.229  13.936 -0.9348  2.0804  1.0907
10984TIP3    H254444   4.676   0.099  13.953 -2.8832  0.3853 -2.1105
10985TIP3   OH254445   1.726   4.433   2.507  0.5116  0.0125 -0.2963
10985TIP3    H154446   1.756   4.484   2.432  1.6525 -1.4288 -0.8876
10985TIP3    H254447   1.785   4.459   2.579  0.3892  0.3160 -0.3072
10986TIP3   OH254448   3.800   3.943   3.076 -0.9224  0.7005 -0.0860
10986TIP3    H154449   3.818   4.016   3.135  0.6561  1.0096 -0.8916
10986TIP3    H254450   3.881   3.892   3.075 -1.2897  0.1008 -1.1348
10987TIP3   OH254451   4.785   1.416  16.489  0.2878 -0.4011  0.8385
10987TIP3    H154452   4.751   1.506  16.486 -0.6775 -0.7706  0.5865
10987TIP3    H254453   4.827   1.405  16.404 -1.5366 -0.9229 -0.0367
10988TIP3   OH254454   0.229   0.008   3.244 -0.3724  0.2992 -0.7096
10988TIP3    H154455   0.171  -0.049   3.193  0.5234 -0.3160 -1.0561
10988TIP3    H254456   0.276  -0.052   3.302  0.0242  0.7823 -0.5267
10989TIP3   OH254457   4.548   4.550  13.944 -0.8213  0.2923  0.1498
10989TIP3    H154458   4.465   4.593  13.966 -0.5877  1.7691 -1.6176
10989TIP3    H254459   4.528   4.499  13.865 -0.3185 -0.3017  0.4004
10990TIP3   OH254460   0.619   2.242  12.338  0.1256  0.2825 -0.1067
10990TIP3    H154461   0.695   2.233  12.394 -0.0412 -3.4127 -0.1648
10990TIP3    H254462   0.544   2.223  12.395 -0.3762  0.1586 -0.7819
10991TIP3   OH254463   0.427   1.515  13.328 -0.4711 -0.0262 -0.2300
10991TIP3    H154464   0.466   1.543  13.411  1.4249  0.2469 -1.1833
10991TIP3    H254465   0.423   1.419  13.335 -0.8553  0.0270  0.3852
10992TIP3   OH254466   2.619   0.756   2.340 -0.8589  0.4560  0.3817
10992TIP3    H154467   2.557   0.808   2.391 -2.6874 -1.0000 -0.2285
10992TIP3    H254468   2.590   0.765   2.249 -1.2572 -1.5374  0.2539
10993TIP3   OH254469   5.404   3.761  15.200  0.1026  0.2216  0.4943
10993TIP3    H154470   5.436   3.778  15.289  0.8571  0.2767  0.2219
10993TIP3    H254471   5.442   3.676  15.177 -0.4000  0.0277  0.3601
10994TIP3   OH254472   0.278   5.263  16.177  0.1649 -0.2578  0.2955
10994TIP3    H154473   0.251   5.249  16.086 -0.5620 -1.2534  0.6422
10994TIP3    H254474   0.264   5.178  16.219 -0.8426  0.5589  1.6652
10995TIP3   OH254475   5.742   2.592  12.172 -0.8535  0.5039 -0.1303
10995TIP3    H154476   5.786   2.625  12.250  0.3249  0.4581 -0.7438
10995TIP3    H254477   5.775   2.647  12.101  1.4061 -2.0640 -1.2386
10996TIP3   OH254478   3.894   1.646   4.901 -0.4847  0.3442 -0.0381
10996TIP3    H154479   3.957   1.718   4.902  0.4797 -0.4575  0.8955
10996TIP3    H254480   3.880   1.627   4.808  1.0130  0.2713 -0.2803
10997TIP3   OH254481   3.025   3.938   2.515  0.7092  0.5766 -0.1526
10997TIP3    H154482   3.104   3.885   2.514  0.2680 -0.1115  0.6235
10997TIP3    H254483   2.993   3.935   2.425  1.3083  0.4849 -0.3666
10998TIP3   OH254484   3.608   2.101  10.666  0.0434  0.3406 -0.0961
10998TIP3    H154485   3.572   2.176  10.619  1.0674  0.0966 -1.3160
10998TIP3    H254486   3.700   2.122  10.679  0.1722 -0.3812  0.2174
10999TIP3   OH254487   0.482   1.649  11.584  0.5001 -0.2751 -0.0153
10999TIP3    H154488   0.569   1.677  11.614 -0.1302  2.1622 -0.2576
10999TIP3    H254489   0.498   1.609  11.498  1.3658  0.1556 -0.0669
11000TIP3   OH254490   1.885   0.238   2.768  0.4684  0.1717  0.4903
11000TIP3    H154491   1.916   0.283   2.846  0.7408  1.9912 -0.5997
11000TIP3    H254492   1.940   0.272   2.697  0.7125 -1.9484 -0.4195
11001TIP3   OH254493   4.281   4.794  11.760 -0.6642 -0.4462 -0.4030
11001TIP3    H154494   4.200   4.826  11.721 -0.2607  1.0335 -0.1142
11001TIP3    H254495   4.336   4.771  11.685 -1.1622 -0.9589 -0.6116
11002TIP3   OH254496   2.904   6.702   5.169  0.0859 -0.1461  0.0462
11002TIP3    H154497   2.997   6.706   5.147  0.0542 -1.7470 -0.5200
11002TIP3    H254498   2.884   6.608   5.174 -1.7366  0.1397 -0.9174
11003TIP3   OH254499   4.578   4.471  16.327 -0.0210  0.3078  0.0580
11003TIP3    H154500   4.568   4.376  16.333  0.4640  0.2548  0.0486
11003TIP3    H254501   4.627   4.486  16.246  0.4194  0.5241  0.3577
11004TIP3   OH254502   4.236   1.031   2.237 -0.3316  0.0089 -0.1051
11004TIP3    H154503   4.163   1.043   2.176  0.4262 -1.4924 -1.4026
11004TIP3    H254504   4.246   0.936   2.244  0.6778  0.1741  1.0479
11005TIP3   OH254505   1.504   6.652   0.908  0.1299  0.2231 -0.0395
11005TIP3    H154506   1.575   6.688   0.855  0.5352  1.0516  1.0386
11005TIP3    H254507   1.531   6.666   0.999 -0.7810 -0.7034  0.4056
11006TIP3   OH254508   3.248   6.631  13.957  0.3848  0.3633  0.3407
11006TIP3    H154509   3.301   6.583  14.021  0.4002 -0.2182 -0.0915
11006TIP3    H254510   3.262   6.723  13.978  0.7278  0.1903  0.8982
11007TIP3   OH254511   5.521   6.262   5.564 -0.4762  0.3712  0.8439
11007TIP3    H154512   5.498   6.262   5.657 -0.1560 -1.2162  0.9511
11007TIP3    H254513   5.444   6.226   5.521 -0.7683  1.4546  0.4317
11008TIP3   OH254514   2.510   0.557  13.005 -0.0413  0.4366 -0.4004
11008TIP3    H154515   2.586   0.614  13.018  1.3857 -1.1293 -1.4859
11008TIP3    H254516   2.506   0.544  12.910 -1.5749  0.3462 -0.3384
11009TIP3   OH254517   2.029   5.745   5.593  0.2737 -0.0574 -0.2104
11009TIP3    H154518   1.957   5.760   5.531 -0.7571 -0.8218  0.7516
11009TIP3    H254519   2.052   5.833   5.624 -0.2060  0.2069 -0.5769
11010TIP3   OH254520   2.847   3.913  16.217  0.9220 -0.1994  0.1304
11010TIP3    H154521   2.911   3.930  16.286 -0.5500  0.5701  1.3838
11010TIP3    H254522   2.857   3.821  16.196  1.6025 -0.3853  1.1990
11011TIP3   OH254523   0.113   2.172   2.379  0.3385 -0.4853 -0.5698
11011TIP3    H154524   0.198   2.145   2.345 -0.2173 -2.0362 -0.8143
11011TIP3    H254525   0.098   2.258   2.341  2.0942  0.1311  0.0453
11012TIP3   OH254526   6.639   1.577   4.864 -0.6096  0.9801  0.0108
11012TIP3    H154527   6.601   1.520   4.798 -2.1167  2.4486 -0.4606
11012TIP3    H254528   6.698   1.521   4.914 -1.9992 -0.9430 -0.4323
11013TIP3   OH254529   4.432   1.106  16.080 -0.0374  0.1298 -0.5664
11013TIP3    H154530   4.338   1.091  16.078  0.2603 -2.0011 -1.4999
11013TIP3    H254531   4.468   1.047  16.014  2.1132 -0.5658  1.0600
11014TIP3   OH254532   5.485   1.563   0.326 -0.2112  0.3574  0.2183
11014TIP3    H154533   5.535   1.518   0.394 -0.7029 -0.9716 -0.2685
11014TIP3    H254534   5.399   1.577   0.365 -0.3282  0.0760  0.0658
11015TIP3   OH254535   6.179   1.472   2.150  0.1434 -0.4817 -0.1199
11015TIP3    H154536   6.116   1.454   2.080  0.6954 -0.8384 -0.5425
11015TIP3    H254537   6.225   1.551   2.120 -2.0488  1.5783  1.5713
11016TIP3   OH254538   2.910   3.212  12.240 -0.0536  0.7407  0.4159
11016TIP3    H154539   2.949   3.300  12.237  1.0690  0.2681  0.8198
11016TIP3    H254540   2.915   3.187  12.333  0.3392 -0.0553  0.1882
11017TIP3   OH254541   6.785   5.839   1.361  0.0088  0.0128 -0.0076
11017TIP3    H154542   6.798   5.932   1.375  0.7506 -0.2992  1.6312
11017TIP3    H254543   6.852   5.815   1.297 -0.9158  0.7826 -1.3028
11018TIP3   OH254544   6.380   5.412   4.026 -0.3015  0.1753  0.3362
11018TIP3    H154545   6.302   5.357   4.014  0.2171 -0.5545  0.1931
11018TIP3    H254546   6.375   5.478   3.957 -1.0565  0.4542  0.6533
11019TIP3   OH254547   6.011   4.014   4.487  0.2425  0.0440 -0.2009
11019TIP3    H154548   5.920   4.042   4.497  0.9273  3.0968 -1.2305
11019TIP3    H254549   6.013   3.965   4.405 -0.2033  1.7102 -1.2599
11020TIP3   OH254550   1.275   3.580  11.234  0.3663 -0.2159 -0.2489
11020TIP3    H154551   1.223   3.637  11.292  1.8512  1.0018 -0.0560
11020TIP3    H254552   1.278   3.628  11.151  0.7385 -0.5317 -0.4187
11021TIP3   OH254553   0.871   3.134  15.643 -0.3508  0.1807  0.3636
11021TIP3    H154554   0.905   3.060  15.694  0.0230  0.3387  0.3517
11021TIP3    H254555   0.832   3.192  15.709  1.7799  1.2857  0.7287
11022TIP3   OH254556   0.085   4.688  11.162  0.1896 -0.3049  0.3097
11022TIP3    H154557   0.041   4.678  11.078  0.0346  1.1434  0.1879
11022TIP3    H254558   0.026   4.645  11.225  0.4762 -1.6905 -0.3367
11023TIP3   OH254559   1.611   6.457   1.850 -0.2067 -0.0573  0.4466
11023TIP3    H154560   1.576   6.374   1.885 -1.5219  0.8400  1.3681
11023TIP3    H254561   1.577   6.524   1.910  0.6024  1.1832 -0.4425
11024TIP3   OH254562   4.209   3.567  17.025 -0.1117 -0.6621 -0.3457
11024TIP3    H154563   4.181   3.579  16.934  0.4423 -0.2085 -0.4607
11024TIP3    H254564   4.249   3.480  17.026 -0.7734 -0.9725 -0.3643
11025TIP3   OH254565   3.412   3.588  15.253 -0.2526  0.3790 -0.0694
11025TIP3    H154566   3.436   3.631  15.335 -1.3015  0.3792  0.2541
11025TIP3    H254567   3.378   3.503  15.280 -0.2142  0.2111 -0.5417
11026TIP3   OH254568   5.671   3.909   4.090 -0.0438 -0.1053  0.3134
11026TIP3    H154569   5.659   3.972   4.019  1.9648 -1.8292 -1.6684
11026TIP3    H254570   5.584   3.870   4.103 -1.0534  2.1323  0.7852
11027TIP3   OH254571   2.325   5.665  11.551 -0.4174  0.0206 -0.2827
11027TIP3    H154572   2.283   5.643  11.634 -0.9298  1.1441 -0.2172
11027TIP3    H254573   2.254   5.701  11.498 -0.1528 -0.9271 -1.3154
11028TIP3   OH254574   1.721   2.294   3.905  0.5556  0.0252 -0.2010
11028TIP3    H154575   1.790   2.238   3.871  0.7214 -0.3594  0.7508
11028TIP3    H254576   1.761   2.381   3.910  1.2933 -0.3580  1.1893
11029TIP3   OH254577   1.021   1.309   0.059  0.4624  0.2542 -0.0769
11029TIP3    H154578   1.022   1.384   0.118  0.8549  0.8078 -0.7612
11029TIP3    H254579   1.109   1.271   0.068  0.9829  1.1170 -1.2374
11030TIP3   OH254580   1.886   1.095   4.426 -0.1012  0.2070 -0.1965
11030TIP3    H154581   1.889   1.179   4.473 -0.3210 -0.1780  0.5209
11030TIP3    H254582   1.953   1.103   4.358 -0.3001  1.0659 -0.3116
11031TIP3   OH254583   6.538   6.090  14.337 -0.1561 -0.2411  0.6167
11031TIP3    H154584   6.525   6.152  14.408 -0.7315  0.1999  0.1330
11031TIP3    H254585   6.596   6.135  14.275 -2.9891  1.1251 -1.2556
11032TIP3   OH254586   6.566   3.376   2.395  0.6305 -0.0823  0.1074
11032TIP3    H154587   6.645   3.410   2.352 -0.0903 -0.5120 -1.6295
11032TIP3    H254588   6.501   3.370   2.326 -0.2432 -1.9357  1.0161
11033TIP3   OH254589   0.143   5.005   0.656 -0.2968 -0.3677  0.2910
11033TIP3    H154590   0.073   4.963   0.606 -1.4279  0.8766  0.7799
11033TIP3    H254591   0.166   5.082   0.604 -1.0186  0.5682  1.3142
11034TIP3   OH254592   1.407   4.218  16.994 -0.0518  0.3581 -0.4304
11034TIP3    H154593   1.448   4.195  16.910 -0.7108 -0.9002 -0.4278
11034TIP3    H254594   1.477   4.207  17.058 -0.4937 -2.5585 -0.3201
11035TIP3   OH254595   6.318   0.330   5.787 -0.8040  0.1150  0.2885
11035TIP3    H154596   6.371   0.406   5.811 -0.5386  0.3230 -0.8830
11035TIP3    H254597   6.283   0.298   5.870  0.0521  0.7955  0.9366
11036TIP3   OH254598   4.394   3.125   2.333 -0.4637  0.2342 -0.0352
11036TIP3    H154599   4.304   3.101   2.354 -0.7511  1.1126 -0.1872
11036TIP3    H254600   4.394   3.137   2.238 -0.3637  0.8709  0.0357
11037TIP3   OH254601   1.370   5.222  16.042 -0.1211  0.4338 -0.0677
11037TIP3    H154602   1.341   5.310  16.066 -1.7264 -0.4844  1.5635
11037TIP3    H254603   1.398   5.183  16.125  0.5354 -0.6219 -0.7677
11038TIP3   OH254604   2.691   4.364   2.702 -0.0950  0.2362 -0.4057
11038TIP3    H154605   2.748   4.302   2.657  0.7647 -0.4422  1.5158
11038TIP3    H254606   2.634   4.309   2.756 -0.4588  1.0392  0.0484
11039TIP3   OH254607   1.511   3.587   3.725  0.0226 -0.2578  0.6600
11039TIP3    H154608   1.579   3.616   3.785  0.6774  0.6711 -0.4757
11039TIP3    H254609   1.542   3.614   3.638 -1.1392 -1.0610 -0.0501
11040TIP3   OH254610   4.706   3.692   5.988  0.0485  0.0523  0.0083
11040TIP3    H154611   4.688   3.774   6.034  1.1011  0.9478 -1.1086
11040TIP3    H254612   4.753   3.639   6.052 -0.3487  0.4368  0.6364
11041TIP3   OH254613   6.474   6.699   2.236 -0.0384 -0.4724  0.1231
11041TIP3    H154614   6.570   6.699   2.241 -0.0774 -0.0329  1.1609
11041TIP3    H254615   6.454   6.763   2.168  0.4107 -0.6139 -0.1465
11042TIP3   OH254616   1.692   1.351   0.027 -0.2133 -0.4436 -0.0622
11042TIP3    H154617   1.657   1.267  -0.003  2.8690 -0.7502 -3.5571
11042TIP3    H254618   1.662   1.414  -0.038 -2.0290  1.1893  2.2167
11043TIP3   OH254619   1.627   5.551  12.627  0.0996  0.3500  0.1178
11043TIP3    H154620   1.617   5.632  12.677  1.7084  0.1683  0.7990
11043TIP3    H254621   1.710   5.514  12.658  0.6493 -0.2844 -1.9814
11044TIP3   OH254622   2.551   2.360  13.165 -0.3277 -0.1343  0.1646
11044TIP3    H154623   2.469   2.337  13.209 -0.2751  0.3968  0.5477
11044TIP3    H254624   2.524   2.412  13.089 -0.3561 -0.1162  0.1868
11045TIP3   OH254625   1.461   0.209   3.314 -0.4166 -0.7039 -0.1314
11045TIP3    H154626   1.510   0.252   3.244 -1.9628  3.3218  0.9731
11045TIP3    H254627   1.372   0.201   3.278 -0.3352 -2.5153 -0.0295
11046TIP3   OH254628   3.253   2.412  13.220  0.1919 -0.0945 -0.3491
11046TIP3    H154629   3.202   2.448  13.147 -0.7828  0.5086  0.5975
11046TIP3    H254630   3.344   2.425  13.194 -0.1259  1.7363 -0.7036
11047TIP3   OH254631   6.418   0.035  13.253  0.7950 -0.1456 -0.0714
11047TIP3    H154632   6.475   0.107  13.228  0.9262 -0.7618 -1.6446
11047TIP3    H254633   6.330   0.066  13.234  0.8569 -0.4210 -0.8211
11048TIP3   OH254634   6.282   3.225  16.370  0.7006  0.1755 -0.0138
11048TIP3    H154635   6.332   3.144  16.355  1.0496  0.0390  1.7446
11048TIP3    H254636   6.217   3.225  16.300  1.6815 -0.8278 -0.9810
11049TIP3   OH254637   5.801   6.173  16.525 -0.1918 -0.0435  0.0275
11049TIP3    H154638   5.770   6.258  16.557 -0.7238 -0.1341 -0.2331
11049TIP3    H254639   5.878   6.194  16.472  0.7370  0.0995  1.4031
11050TIP3   OH254640   1.481   6.602   5.609  0.1801 -0.1346 -0.2618
11050TIP3    H154641   1.519   6.573   5.692 -0.6848  0.3373  0.3134
11050TIP3    H254642   1.524   6.547   5.543  2.3685  0.8233  0.2590
11051TIP3   OH254643   1.661   2.364  12.957  0.3279  0.0880 -0.2533
11051TIP3    H154644   1.616   2.301  12.900 -0.5233  0.6032 -0.1731
11051TIP3    H254645   1.696   2.311  13.028 -0.7230 -0.2604  0.0201
11052TIP3   OH254646   1.558   5.357   3.314  0.3521 -0.1861  0.3588
11052TIP3    H154647   1.608   5.375   3.234 -0.2824  0.0564  0.0116
11052TIP3    H254648   1.601   5.280   3.352  0.2314 -0.7263 -0.5767
11053TIP3   OH254649   5.419   5.173  15.539  0.1274  0.2345  0.4153
11053TIP3    H154650   5.336   5.134  15.567  1.1605 -2.6460 -0.2772
11053TIP3    H254651   5.402   5.206  15.451 -0.2084 -0.6578  0.1409
11054TIP3   OH254652   2.789   6.661   5.561  0.1730 -0.6266 -0.1458
11054TIP3    H154653   2.844   6.694   5.490 -1.4161 -1.6316 -1.9345
11054TIP3    H254654   2.700   6.684   5.535 -0.5770 -2.3114  0.7741
11055TIP3   OH254655   0.526   3.831  14.623  0.1868 -0.0919 -0.2676
11055TIP3    H154656   0.485   3.765  14.568 -0.7700  0.8016 -0.6678
11055TIP3    H254657   0.467   3.907  14.617  0.6076  0.3720  1.1659
11056TIP3   OH254658   1.704   6.454  11.799 -0.8473  0.2757  0.1355
11056TIP3    H154659   1.648   6.392  11.845 -1.8750  1.0652 -0.0319
11056TIP3    H254660   1.660   6.538  11.807 -0.4914  0.6363 -1.3320
11057TIP3   OH254661   4.524   2.329  13.126 -0.2036 -0.2997  0.2410
11057TIP3    H154662   4.446   2.279  13.150 -1.8237  2.3190  0.9605
11057TIP3    H254663   4.549   2.375  13.206  0.0680  1.3455 -0.7237
11058TIP3   OH254664   5.263   2.355  17.152 -0.3653  0.1638 -0.1584
11058TIP3    H154665   5.255   2.312  17.067 -0.9278  0.6074 -0.3346
11058TIP3    H254666   5.358   2.360  17.167 -0.2718 -0.2548 -0.5837
11059TIP3   OH254667   4.624   6.757   3.381 -0.3222  0.7664 -0.6110
11059TIP3    H154668   4.565   6.820   3.340 -0.6961  0.5467 -0.4114
11059TIP3    H254669   4.642   6.692   3.312 -1.1606  0.2514 -0.3531
11060TIP3   OH254670   4.457   5.466  11.080 -0.0251  0.3276 -0.3804
11060TIP3    H154671   4.550   5.483  11.066  0.7048 -1.2144  2.0361
11060TIP3    H254672   4.416   5.552  11.084  1.7006  1.1380  0.7872
11061TIP3   OH254673   2.279   0.656  11.272 -0.3387 -0.5955 -0.6200
11061TIP3    H154674   2.265   0.728  11.211 -1.4103  1.3007  1.7071
11061TIP3    H254675   2.373   0.659  11.290 -0.2303 -0.3485 -1.2034
11062TIP3   OH254676   5.249   4.132  12.310  0.6029 -0.1327  0.0362
11062TIP3    H154677   5.201   4.058  12.273  0.6643  0.4089 -1.1639
11062TIP3    H254678   5.341   4.114  12.288  0.6329  0.2248 -0.1377
11063TIP3   OH254679   3.195   3.795   4.237  0.1906  0.1968  0.1293
11063TIP3    H154680   3.127   3.784   4.170  0.0254  0.5320  0.2411
11063TIP3    H254681   3.267   3.840   4.191  0.7886 -1.1170 -0.2785
11064TIP3   OH254682   4.308   4.981  11.988 -0.1305  0.0152  0.0421
11064TIP3    H154683   4.280   4.950  11.902  1.1790 -2.2645  0.3579
11064TIP3    H254684   4.387   5.032  11.971 -0.7759  0.9438 -0.2312
11065TIP3   OH254685   2.007   0.164  12.430 -0.5161 -0.2882  0.4951
11065TIP3    H154686   1.987   0.176  12.337  4.5310 -1.9989 -1.1867
11065TIP3    H254687   2.000   0.252  12.467 -1.2917  0.7457 -1.8598
11066TIP3   OH254688   4.285   1.838  10.777  0.4028 -0.0621  0.0207
11066TIP3    H154689   4.229   1.763  10.795  0.5325  0.2439  1.9241
11066TIP3    H254690   4.263   1.901  10.846 -1.1211  2.5122 -2.5739
11067TIP3   OH254691   3.002   5.822   0.706 -0.0727 -0.7495  0.4532
11067TIP3    H154692   3.062   5.816   0.632 -0.4498 -1.8627  0.2118
11067TIP3    H254693   2.987   5.915   0.718  0.4943 -0.5282 -0.4645
11068TIP3   OH254694   5.728   0.561   2.949 -0.3227 -0.3216 -0.2933
11068TIP3    H154695   5.783   0.559   2.871 -0.0079 -1.2054 -0.0650
11068TIP3    H254696   5.790   0.561   3.022 -0.6192 -0.4811 -0.0402
11069TIP3   OH254697   1.601   2.146   4.946 -0.1721  0.5111  0.2454
11069TIP3    H154698   1.574   2.061   4.912  0.5753  0.0037  0.8940
11069TIP3    H254699   1.606   2.202   4.869 -0.9902  0.0580 -0.1469
11070TIP3   OH254700   4.602   3.766  15.206  0.5850  0.8207 -0.4837
11070TIP3    H154701   4.517   3.739  15.171  1.7484 -0.7833 -2.2509
11070TIP3    H254702   4.663   3.753  15.134  2.2553  2.6375  0.4985
11071TIP3   OH254703   6.533   3.167   4.260 -0.9211 -0.4682 -0.3131
11071TIP3    H154704   6.482   3.242   4.228 -0.8727 -0.5039 -0.4753
11071TIP3    H254705   6.558   3.192   4.349  1.4413  0.9246 -1.2827
11072TIP3   OH254706   0.151   1.019   5.756 -0.1734 -0.2586  0.1240
11072TIP3    H154707   0.230   0.979   5.792 -0.4932 -1.2211 -0.2122
11072TIP3    H254708   0.084   1.002   5.822 -0.6331 -1.5427 -0.6289
11073TIP3   OH254709   2.527   0.528   1.596 -0.4574  0.0761 -0.7404
11073TIP3    H154710   2.564   0.610   1.629  1.4555 -0.3652 -1.6715
11073TIP3    H254711   2.472   0.554   1.523  0.4557  0.5140 -1.2839
11074TIP3   OH254712   6.630   6.510   3.788  0.4990  0.1746 -0.2166
11074TIP3    H154713   6.721   6.530   3.767  0.8181 -1.5450 -0.6682
11074TIP3    H254714   6.636   6.442   3.856 -0.4602  0.5508  0.2584
11075TIP3   OH254715   5.734   5.928  11.554  0.2155  0.0847  0.3772
11075TIP3    H154716   5.668   5.908  11.620 -0.7743  0.3590 -0.4899
11075TIP3    H254717   5.793   5.853  11.556  0.4539  0.2849  1.8394
11076TIP3   OH254718   2.607   1.268   5.263 -0.1599 -0.1901 -0.5476
11076TIP3    H154719   2.694   1.277   5.300 -0.1374 -1.1042 -0.3507
11076TIP3    H254720   2.602   1.177   5.234 -0.9976 -0.1206 -0.6673
11077TIP3   OH254721   3.087   1.467  14.189 -0.1200 -0.1715  0.9917
11077TIP3    H154722   2.996   1.439  14.187  0.1988 -1.2261  0.8138
11077TIP3    H254723   3.104   1.502  14.101 -0.4917  0.5013  1.1846
11078TIP3   OH254724   4.753   5.868  13.511  0.3164 -0.9384 -0.1230
11078TIP3    H154725   4.758   5.960  13.539  0.8617 -0.4616 -1.6756
11078TIP3    H254726   4.716   5.872  13.423  0.0179 -2.2584 -0.0806
11079TIP3   OH254727   5.358   4.430  11.170 -0.1033 -0.4905  0.4902
11079TIP3    H154728   5.385   4.519  11.196 -0.3440 -0.6088  1.1549
11079TIP3    H254729   5.427   4.374  11.205  0.8664 -0.4557 -1.2375
11080TIP3   OH254730   2.790   3.231  14.724 -0.6398 -0.6318 -0.0782
11080TIP3    H154731   2.864   3.217  14.666  1.4127  1.2607  1.8720
11080TIP3    H254732   2.724   3.275  14.670 -0.1097 -1.7250 -1.6839
11081TIP3   OH254733   2.142   4.633  13.599 -0.0264 -0.0299  0.4971
11081TIP3    H154734   2.050   4.631  13.575  0.0404  0.5530  0.1723
11081TIP3    H254735   2.174   4.545  13.581  0.0649  0.3968 -1.7562
11082TIP3   OH254736   3.018   4.051   0.664 -0.0480  0.2378 -0.7564
11082TIP3    H154737   2.925   4.068   0.654 -0.4625 -1.7037 -0.6425
11082TIP3    H254738   3.038   4.078   0.753  0.3443  3.8511 -1.7819
11083TIP3   OH254739   4.662   1.093  11.385 -0.5458  0.0360 -0.0594
11083TIP3    H154740   4.667   1.092  11.481  1.8724  1.0593 -0.0900
11083TIP3    H254741   4.621   1.009  11.362  0.6670 -1.1573  1.8228
11084TIP3   OH254742   2.666   5.292  11.479 -0.7260 -0.0977  0.1825
11084TIP3    H154743   2.761   5.308  11.483 -0.2166 -2.1276 -1.5581
11084TIP3    H254744   2.627   5.363  11.530  1.6448  1.7087 -0.3464
11085TIP3   OH254745   6.738   6.587  14.058  0.2133 -0.2730  0.1216
11085TIP3    H154746   6.790   6.567  14.136 -1.4814 -0.9317  1.1569
11085TIP3    H254747   6.801   6.587  13.986  2.1194  1.9960  1.6655
11086TIP3   OH254748   5.233   0.129   0.112 -0.2577  0.1103 -0.4988
11086TIP3    H154749   5.207   0.052   0.062 -0.1602 -0.3703  0.1807
11086TIP3    H254750   5.217   0.106   0.203  1.0630  0.3747 -0.1712
11087TIP3   OH254751   3.759   4.118   6.408  0.2537 -0.4130  0.5272
11087TIP3    H154752   3.729   4.036   6.368  0.5283 -0.4996  0.4988
11087TIP3    H254753   3.731   4.112   6.499 -2.1657  0.6437 -0.0597
11088TIP3   OH254754   0.070   6.231  15.570  0.5184  0.1415  0.4278
11088TIP3    H154755   0.019   6.167  15.621 -1.5410  1.5594  0.2713
11088TIP3    H254756   0.099   6.182  15.493 -2.5994 -0.2844 -0.6321
11089TIP3   OH254757   2.969   5.511  13.638  0.0814 -0.6095 -0.1380
11089TIP3    H154758   2.941   5.449  13.570 -0.8834 -1.1218  0.6907
11089TIP3    H254759   3.034   5.463  13.689  0.1007 -0.5652 -0.1212
11090TIP3   OH254760   3.073   2.575   0.553  0.1990  0.5853  0.2353
11090TIP3    H154761   3.064   2.630   0.631 -1.5460  0.4321  0.1758
11090TIP3    H254762   3.013   2.614   0.489 -1.3250 -1.5322  0.2961
11091TIP3   OH254763   6.349   3.844   4.315  0.3430 -0.0105 -0.1388
11091TIP3    H154764   6.310   3.778   4.258 -3.0663  1.7650 -0.1399
11091TIP3    H254765   6.291   3.846   4.392  2.0930  0.9300  1.2394
11092TIP3   OH254766   5.387   2.142   3.762  0.0951  0.0948 -0.1229
11092TIP3    H154767   5.453   2.084   3.799  0.1550  0.0469 -0.3046
11092TIP3    H254768   5.342   2.088   3.696 -2.0684 -0.8603  1.9506
11093TIP3   OH254769   0.183   1.372  13.752 -0.5311  0.2592 -0.4345
11093TIP3    H154770   0.277   1.369  13.768 -0.7631 -2.3830  0.8964
11093TIP3    H254771   0.147   1.417  13.828 -0.2278  4.2599 -2.3992
11094TIP3   OH254772   2.490   6.782  13.271 -0.1609 -0.5685 -0.1587
11094TIP3    H154773   2.465   6.848  13.335  1.5284  1.4546 -1.4849
11094TIP3    H254774   2.581   6.761  13.292 -0.1971 -1.3532 -0.7326
11095TIP3   OH254775   2.331   3.086   4.168  0.0470 -0.1673  0.4617
11095TIP3    H154776   2.262   3.147   4.196 -0.2495  0.6076 -1.7779
11095TIP3    H254777   2.384   3.136   4.106  0.2438 -1.9567 -0.8803
11096TIP3   OH254778   0.372   6.480  11.082  0.1576 -0.1453 -0.0393
11096TIP3    H154779   0.390   6.558  11.030  1.2225 -0.2067  0.2013
11096TIP3    H254780   0.377   6.510  11.173 -2.7559  0.1930  0.0991
11097TIP3   OH254781   5.077   2.620   1.083 -0.5880  0.4443  0.4081
11097TIP3    H154782   4.991   2.582   1.067  0.1762 -1.1742 -0.1002
11097TIP3    H254783   5.076   2.702   1.034 -1.6764  0.2383  0.0465
11098TIP3   OH254784   0.973   0.213   5.705  0.1642 -0.4177 -0.1503
11098TIP3    H154785   1.033   0.287   5.694  0.1063 -0.4694 -0.8490
11098TIP3    H254786   0.937   0.224   5.793  0.9639 -0.2132  0.1588
11099TIP3   OH254787   2.103   3.334  14.032  0.6203 -0.3540  0.3670
11099TIP3    H154788   2.126   3.248  13.994  0.8812 -0.3839  0.5891
11099TIP3    H254789   2.168   3.394  13.994  1.2168 -0.4769  1.1652
11100TIP3   OH254790   3.600   3.501   3.061 -0.1910  0.2386 -0.1075
11100TIP3    H154791   3.597   3.440   3.135  1.5595 -0.5347 -0.6215
11100TIP3    H254792   3.576   3.585   3.099 -0.6130 -0.3778  1.0602
11101TIP3   OH254793   5.954   0.192   5.780  0.0947  0.3564 -0.7766
11101TIP3    H154794   6.011   0.203   5.855  2.2573  0.0965 -2.2908
11101TIP3    H254795   5.999   0.237   5.708 -2.5564  1.8412 -1.6720
11102TIP3   OH254796   0.564   0.476   5.352 -0.3159  0.0483  0.0449
11102TIP3    H154797   0.478   0.484   5.393 -1.7044 -0.7887 -2.5392
11102TIP3    H254798   0.620   0.536   5.403 -1.6320 -1.4201  3.5482
11103TIP3   OH254799   5.161   4.133  15.602 -0.0258  0.0373 -0.5042
11103TIP3    H154800   5.163   4.137  15.698 -1.8011  1.7946 -0.4840
11103TIP3    H254801   5.223   4.200  15.574 -1.9833  1.9682 -0.4853
11104TIP3   OH254802   0.869   1.101  15.438 -0.3157  0.4848  0.1153
11104TIP3    H154803   0.874   1.140  15.525  0.4357  0.9746 -0.1428
11104TIP3    H254804   0.820   1.020  15.451  0.4258  0.1797  1.1356
11105TIP3   OH254805   6.493   6.718   3.878  0.2137  0.5606  0.9240
11105TIP3    H154806   6.528   6.635   3.846 -0.0588  1.2254 -1.2756
11105TIP3    H254807   6.570   6.764   3.913  0.6470  0.0153  0.7030
11106TIP3   OH254808   2.339   3.294  15.060 -0.7822  0.1889  0.2840
11106TIP3    H154809   2.383   3.241  15.126  1.0849  1.1194 -0.1492
11106TIP3    H254810   2.377   3.264  14.977 -1.9177  0.1510 -0.2398
11107TIP3   OH254811   3.718   1.379   3.931 -0.8020  0.2455  0.1877
11107TIP3    H154812   3.750   1.289   3.919 -0.0395  0.2918  1.6767
11107TIP3    H254813   3.716   1.391   4.026  1.9162  2.7662  0.0552
11108TIP3   OH254814   4.849   4.433   0.271 -0.1779  0.4497 -0.4916
11108TIP3    H154815   4.824   4.347   0.304  1.5494 -1.4806 -3.6935
11108TIP3    H254816   4.931   4.453   0.315 -0.3424  0.2508 -0.0891
11109TIP3   OH254817   1.698   3.001   1.719 -0.0926  0.3226  0.3077
11109TIP3    H154818   1.656   3.059   1.782  0.2912 -0.1380  0.9993
11109TIP3    H254819   1.769   2.960   1.768 -0.5245 -0.9305 -0.0927
11110TIP3   OH254820   0.502   4.081   3.984  0.0240 -0.0039 -0.2923
11110TIP3    H154821   0.468   4.170   3.988 -0.3526 -0.1422 -0.3856
11110TIP3    H254822   0.590   4.087   4.020 -1.0197 -0.1363  2.5214
11111TIP3   OH254823   3.662   1.220   2.810 -0.1857  0.0952 -0.1394
11111TIP3    H154824   3.620   1.160   2.749 -0.3215  0.5644 -0.5148
11111TIP3    H254825   3.596   1.286   2.828  0.8075  1.6945 -1.8998
11112TIP3   OH254826   5.050   1.190   6.063 -0.4319 -0.0791  0.6960
11112TIP3    H154827   4.970   1.213   6.016 -1.8460 -0.3094  2.8268
11112TIP3    H254828   5.088   1.118   6.013  0.1741  1.9777 -2.0527
11113TIP3   OH254829   6.085   5.820   3.661 -0.4772 -0.3450 -0.1574
11113TIP3    H154830   5.994   5.848   3.657 -0.8525 -1.3261  0.9392
11113TIP3    H254831   6.131   5.878   3.601 -1.8597  0.0194 -0.8920
11114TIP3   OH254832   2.088   4.305   4.160  0.1554 -0.3374 -0.3261
11114TIP3    H154833   2.056   4.215   4.160  0.0625 -0.3313  1.2506
11114TIP3    H254834   2.167   4.303   4.214  1.1703  0.2146 -1.7139
11115TIP3   OH254835   5.231   1.719  14.522  0.0694 -0.5545 -0.4706
11115TIP3    H154836   5.282   1.654  14.571  0.0684  0.1895  0.5417
11115TIP3    H254837   5.176   1.667  14.464  1.1919 -1.4108 -0.8080
11116TIP3   OH254838   5.661   3.035  14.774  0.0143  0.1821 -0.5049
11116TIP3    H154839   5.675   3.043  14.679  0.3541  2.2525 -0.3231
11116TIP3    H254840   5.668   3.125  14.807 -2.7227 -0.1128  1.1635
11117TIP3   OH254841   3.017   2.644   1.919 -0.5942  0.1181 -0.4611
11117TIP3    H154842   3.103   2.678   1.945 -0.4468 -2.6126  3.5372
11117TIP3    H254843   3.025   2.630   1.825  1.6846  4.0268 -1.0825
11118TIP3   OH254844   3.593   3.777  15.273  1.0155 -0.1521 -0.6022
11118TIP3    H154845   3.543   3.705  15.235  0.4414 -1.0631  1.7380
11118TIP3    H254846   3.533   3.820  15.333  2.2569  0.3666  0.3222
11119TIP3   OH254847   3.148   3.326  14.170 -0.4780  0.4771 -0.2495
11119TIP3    H154848   3.062   3.347  14.135 -0.3968  1.0366 -0.1198
11119TIP3    H254849   3.210   3.374  14.114 -0.1409 -1.0580 -1.2523
11120TIP3   OH254850   6.362   4.767   3.203 -0.5683  0.2984 -0.4559
11120TIP3    H154851   6.415   4.760   3.123 -1.1382 -0.3920 -0.7836
11120TIP3    H254852   6.414   4.823   3.261 -0.3644  1.2178 -1.4868
11121TIP3   OH254853   4.650   1.227   2.562  0.2599  0.3915 -0.0691
11121TIP3    H154854   4.584   1.220   2.494  0.3146  1.0926 -0.2014
11121TIP3    H254855   4.732   1.244   2.516  0.3004  0.8525  0.1580
11122TIP3   OH254856   1.661   5.715   2.628  0.5013  0.0080 -0.2328
11122TIP3    H154857   1.578   5.758   2.606  1.0997  0.8213 -0.9193
11122TIP3    H254858   1.728   5.780   2.609  1.2542 -0.2819  1.2531
11123TIP3   OH254859   3.534   3.870   2.256  0.0438 -0.1169  0.2627
11123TIP3    H154860   3.485   3.909   2.329  0.8404  1.3041  0.0718
11123TIP3    H254861   3.624   3.899   2.269  0.4687 -1.0233 -0.5119
11124TIP3   OH254862   1.157   5.211  12.169 -0.4377 -0.1923  0.1121
11124TIP3    H154863   1.199   5.251  12.245 -0.8656 -1.1825  0.8905
11124TIP3    H254864   1.110   5.283  12.127  1.6769  0.8577 -0.5593
11125TIP3   OH254865   1.615   3.175   5.385  0.0241  0.6911 -0.1983
11125TIP3    H154866   1.606   3.091   5.339  1.2903  0.8691 -0.8229
11125TIP3    H254867   1.687   3.160   5.447 -2.4674  0.0436  2.7742
11126TIP3   OH254868   3.902   5.093   2.048 -0.6223  0.3180 -0.2109
11126TIP3    H154869   3.900   5.024   2.115  1.3710  0.2334 -0.1795
11126TIP3    H254870   3.887   5.174   2.097 -1.5061  0.0566 -0.0297
11127TIP3   OH254871   6.013   3.744  15.487 -0.3752 -0.1578  0.6439
11127TIP3    H154872   6.012   3.809  15.558  0.2339  0.7151 -0.1245
11127TIP3    H254873   6.105   3.731  15.467 -0.5609  0.6174 -0.8754
11128TIP3   OH254874   5.360   4.274  11.678 -0.8031  0.0621  0.0579
11128TIP3    H154875   5.449   4.238  11.684 -0.4972  0.8718  0.5036
11128TIP3    H254876   5.356   4.314  11.591 -0.6111  0.3191  0.1650
11129TIP3   OH254877   4.858   1.724  11.631  0.0112  0.1358  0.5860
11129TIP3    H154878   4.886   1.754  11.718 -1.0465  2.2764  0.2597
11129TIP3    H254879   4.939   1.725  11.579  0.5622 -0.6587  1.4020
11130TIP3   OH254880   1.352   4.829  15.816 -0.3164 -0.1334 -0.0986
11130TIP3    H154881   1.305   4.748  15.838 -1.2484  0.5677  0.5663
11130TIP3    H254882   1.442   4.813  15.844  0.4477 -2.2918 -3.2414
11131TIP3   OH254883   3.931   0.100  14.545 -0.5272  0.1282  0.1689
11131TIP3    H154884   3.909   0.050  14.466 -0.6946  1.7002 -0.8281
11131TIP3    H254885   3.859   0.162  14.555 -0.5465 -0.0979  1.6305
11132TIP3   OH254886   5.979   5.487   6.375 -0.0584  0.0572  0.2286
11132TIP3    H154887   5.958   5.580   6.377  0.2954  0.1674 -0.5959
11132TIP3    H254888   5.895   5.443   6.388 -0.0689  0.4763  1.7677
11133TIP3   OH254889   6.390   6.284  15.854  0.4339 -0.1154  0.1934
11133TIP3    H154890   6.317   6.345  15.863 -0.5770 -1.4185  1.1500
11133TIP3    H254891   6.452   6.311  15.921 -0.2322 -0.3982  0.9498
11134TIP3   OH254892   5.365   6.336   0.059  0.4700  0.4378  0.3536
11134TIP3    H154893   5.305   6.404   0.088 -0.3720 -0.0937 -0.1144
11134TIP3    H254894   5.362   6.271   0.129  0.8457  0.6117  0.5358
11135TIP3   OH254895   0.736   2.051   5.810 -0.4944 -0.7223 -0.3503
11135TIP3    H154896   0.704   1.963   5.828  0.2012 -0.7169  0.9943
11135TIP3    H254897   0.685   2.107   5.868 -0.6574 -0.2803 -0.9153
11136TIP3   OH254898   4.219   4.543   4.928  0.1614 -0.7699 -0.7294
11136TIP3    H154899   4.127   4.557   4.950  0.7484 -0.4760  1.8244
11136TIP3    H254900   4.225   4.449   4.909 -0.7148 -0.7273 -1.2637
11137TIP3   OH254901   4.620   6.200   6.413 -0.0708 -0.3173  0.0568
11137TIP3    H154902   4.636   6.191   6.507  0.9322 -2.6448 -0.2479
11137TIP3    H254903   4.549   6.139   6.395  0.4545 -0.6946 -0.8293
11138TIP3   OH254904   4.077   1.376  14.308  0.2095 -0.1351  0.2004
11138TIP3    H154905   4.153   1.435  14.312  0.3431 -0.2638 -0.3159
11138TIP3    H254906   4.099   1.305  14.368  0.7838 -0.4872 -0.4091
11139TIP3   OH254907   0.972   1.925  12.489  0.3511  0.4258 -0.2679
11139TIP3    H154908   0.960   2.018  12.505  0.6314  0.3602  0.3804
11139TIP3    H254909   0.985   1.887  12.576 -0.1079 -0.2695 -0.4895
11140TIP3   OH254910   2.766   3.896   5.548 -0.0267  0.1272 -0.3931
11140TIP3    H154911   2.711   3.974   5.555  0.0531  0.2104 -0.6828
11140TIP3    H254912   2.776   3.866   5.638  0.5048  0.8454 -0.1967
11141TIP3   OH254913   0.280   3.681   4.578 -0.3252  0.4222  0.7830
11141TIP3    H154914   0.190   3.690   4.548 -0.2626 -0.2719  0.3601
11141TIP3    H254915   0.312   3.601   4.535  0.0651 -0.0912  1.9724
11142TIP3   OH254916   5.170   5.519  11.883  0.3996  0.4034 -0.4646
11142TIP3    H154917   5.262   5.542  11.886  1.0310 -1.9968  0.9102
11142TIP3    H254918   5.161   5.444  11.943 -2.6313  1.1971  0.2871
11143TIP3   OH254919   3.604   1.725   6.621 -0.2284  0.4586  0.2148
11143TIP3    H154920   3.623   1.791   6.554 -0.3232  1.0879  0.7919
11143TIP3    H254921   3.690   1.703   6.658 -0.3931  2.1029  1.7081
11144TIP3   OH254922   3.614   3.311   5.573 -0.3545 -0.5219  0.3672
11144TIP3    H154923   3.599   3.322   5.667  0.1408  0.1302  0.3728
11144TIP3    H254924   3.531   3.337   5.532 -1.2131 -2.5203  0.6919
11145TIP3   OH254925   1.891   4.019   0.633  0.2456 -0.2488  0.0428
11145TIP3    H154926   1.801   4.022   0.600  0.8405 -0.4764 -1.7032
11145TIP3    H254927   1.921   4.110   0.630  0.1513 -0.2055  0.4018
11146TIP3   OH254928   5.014   0.349   0.359 -0.2161 -0.4830  0.2947
11146TIP3    H154929   5.069   0.353   0.281  2.0458 -0.6176  1.7651
11146TIP3    H254930   4.932   0.392   0.334 -0.0817 -1.7059 -2.4884
11147TIP3   OH254931   6.770   5.058   4.894 -0.3645  0.0314 -0.6291
11147TIP3    H154932   6.738   4.968   4.895 -0.1712 -0.0511  0.7256
11147TIP3    H254933   6.696   5.109   4.929  0.1656  0.1342  0.3779
11148TIP3   OH254934   1.582   4.105   3.015 -0.0967  0.1235  0.4017
11148TIP3    H154935   1.495   4.082   2.984 -1.0044  3.1690  0.3789
11148TIP3    H254936   1.567   4.147   3.100  1.5580 -0.8464  1.2217
11149TIP3   OH254937   3.218   5.381   5.034  0.3491  0.1289 -0.7830
11149TIP3    H154938   3.301   5.420   5.006  1.9792 -0.7012  2.4478
11149TIP3    H254939   3.205   5.413   5.123 -1.1175 -2.2412 -0.0477
11150TIP3   OH254940   6.756   4.897   1.066 -0.5211  0.2283 -0.2675
11150TIP3    H154941   6.717   4.914   1.152 -1.7402 -0.7841 -0.5952
11150TIP3    H254942   6.816   4.970   1.053  0.9448 -0.4370  2.1573
11151TIP3   OH254943   3.090   2.300   5.582 -0.0824 -0.4629  0.4146
11151TIP3    H154944   3.056   2.263   5.500 -1.1557  0.5448  0.3779
11151TIP3    H254945   3.086   2.228   5.644  0.5449 -1.1838 -0.3536
11152TIP3   OH254946   3.013   2.955  13.351  0.5379 -0.1883  0.1371
11152TIP3    H154947   2.981   2.866  13.364  2.1045 -0.5841  1.8243
11152TIP3    H254948   3.096   2.943  13.305  1.0969  0.3193  0.9854
11153TIP3   OH254949   6.700   3.671  14.247  0.6791 -0.1853 -0.1274
11153TIP3    H154950   6.728   3.641  14.160  0.9598  0.2492 -0.1881
11153TIP3    H254951   6.758   3.627  14.308  2.1162  1.3893 -0.2956
11154TIP3   OH254952   3.559   6.765   2.292  0.1493  0.3213  0.4159
11154TIP3    H154953   3.527   6.720   2.214  1.4033  2.3216 -1.3881
11154TIP3    H254954   3.609   6.699   2.340 -1.6092 -1.2552  0.1862
11155TIP3   OH254955   6.632   2.364  10.297 -0.4238 -0.0224 -0.1325
11155TIP3    H154956   6.709   2.407  10.261  0.8735  0.7500  3.1690
11155TIP3    H254957   6.648   2.271  10.281 -1.1010  0.3004 -3.3979
11156TIP3   OH254958   3.598   5.271  12.866 -0.2463 -0.0790  0.0161
11156TIP3    H154959   3.512   5.297  12.832 -0.2133  0.0301  0.0172
11156TIP3    H254960   3.660   5.306  12.802 -0.2161 -0.3966 -0.1350
11157TIP3   OH254961   2.674   4.471   4.242  0.1844  0.2631 -0.2213
11157TIP3    H154962   2.695   4.418   4.318 -0.1591  0.1180 -0.2258
11157TIP3    H254963   2.686   4.562   4.272  1.3864  0.1782 -0.3986
11158TIP3   OH254964   0.964   6.640  11.715 -0.4123  0.5402  0.0067
11158TIP3    H154965   0.929   6.614  11.630  0.2180  1.9647 -0.7111
11158TIP3    H254966   0.934   6.730  11.727 -0.3123  0.4355  1.2066
11159TIP3   OH254967   4.450   3.346   1.236 -0.6298 -0.2191  0.3508
11159TIP3    H154968   4.443   3.251   1.248 -0.6018 -0.0571  1.8341
11159TIP3    H254969   4.497   3.376   1.314  1.4143  0.7691 -1.1872
11160TIP3   OH254970   2.000   6.232  15.979  0.1821  0.3581 -0.5830
11160TIP3    H154971   2.060   6.173  15.933  1.5168  1.8193 -0.8284
11160TIP3    H254972   1.925   6.178  16.002  0.1868 -0.8122 -3.0605
11161TIP3   OH254973   5.353   6.526   5.725  0.0755 -0.2442  0.4293
11161TIP3    H154974   5.371   6.435   5.751  1.7072 -0.0189  0.1679
11161TIP3    H254975   5.439   6.568   5.721 -0.3781  0.6206 -2.0612
11162TIP3   OH254976   0.620   0.295  15.741 -0.0241  0.0213  0.2263
11162TIP3    H154977   0.659   0.240  15.809 -0.9087  1.6381  2.1412
11162TIP3    H254978   0.675   0.374  15.739 -0.1385  0.0924 -0.8050
11163TIP3   OH254979   5.864   0.985   5.003 -0.3364 -0.4444  0.0030
11163TIP3    H154980   5.782   1.011   5.045 -1.2876 -1.9173 -0.8831
11163TIP3    H254981   5.910   0.935   5.070  0.3445  1.2121  0.8437
11164TIP3   OH254982   6.666   4.619  13.986 -0.0083 -0.0157  0.5793
11164TIP3    H154983   6.699   4.706  14.008 -1.8007  0.7837  0.3118
11164TIP3    H254984   6.697   4.604  13.896 -1.2901  1.2456 -0.1228
11165TIP3   OH254985   6.718   5.103   1.452 -0.5235 -0.1581  0.3061
11165TIP3    H154986   6.797   5.131   1.406 -2.3828  1.5525 -2.2090
11165TIP3    H254987   6.705   5.170   1.519  0.4621 -0.8159  1.1791
11166TIP3   OH254988   0.494   6.734  11.124  0.3889 -0.0982  0.4964
11166TIP3    H154989   0.513   6.747  11.031  1.2708 -0.2852  0.6449
11166TIP3    H254990   0.520   6.816  11.166 -1.3562  0.5508  0.4136
11167TIP3   OH254991   3.449   0.929  12.784 -0.0704  0.5370 -0.2185
11167TIP3    H154992   3.468   0.905  12.693 -0.1265 -0.5321  0.0367
11167TIP3    H254993   3.535   0.935  12.825 -0.1001 -0.9674  0.1235
11168TIP3   OH254994   5.036   0.922   0.757  0.4021  0.0887  0.0396
11168TIP3    H154995   5.059   0.996   0.814  0.2663  0.0914  0.0909
11168TIP3    H254996   5.014   0.851   0.818  0.2042  0.1071 -0.0102
11169TIP3   OH254997   4.489   5.023   3.542  0.1486 -0.7130  0.3412
11169TIP3    H154998   4.448   4.947   3.583  0.2427 -1.6337 -1.1700
11169TIP3    H254999   4.487   5.003   3.448 -1.5896  2.0225 -0.3181
11170TIP3   OH255000   6.414   4.762  13.990  0.1111 -0.0950  0.1711
11170TIP3    H155001   6.336   4.721  14.027 -0.5265  0.5455 -0.4220
11170TIP3    H255002   6.473   4.689  13.971 -0.1364 -0.5461  1.0839
11171TIP3   OH255003   1.435   2.561  14.699  0.1653  0.1928 -0.5695
11171TIP3    H155004   1.357   2.567  14.644 -1.4280  3.4562  1.7551
11171TIP3    H255005   1.416   2.490  14.760 -1.0496  0.9537 -0.0321
11172TIP3   OH255006   1.614   2.731   0.536 -0.4779 -0.1280 -0.2370
11172TIP3    H155007   1.624   2.658   0.597  0.0753  0.7802  0.8092
11172TIP3    H255008   1.531   2.714   0.491 -1.0792 -0.6668  1.0183
11173TIP3   OH255009   5.580   5.299  11.511 -0.2385  0.2448 -0.1878
11173TIP3    H155010   5.537   5.325  11.593 -2.0408 -0.8098 -0.7306
11173TIP3    H255011   5.562   5.205  11.503  1.8744 -0.1758 -0.6950
11174TIP3   OH255012   3.330   5.984  15.155  0.6721 -0.7385 -0.1653
11174TIP3    H155013   3.420   5.952  15.148  1.0321 -0.0269  0.9295
11174TIP3    H255014   3.311   6.022  15.069  1.9422  0.3831  0.0078
11175TIP3   OH255015   4.263   5.534  13.369 -0.4906  0.1440  0.1662
11175TIP3    H155016   4.228   5.580  13.292 -0.3141  0.5894  0.3507
11175TIP3    H255017   4.297   5.452  13.334 -0.7209  0.1945 -0.1812
11176TIP3   OH255018   3.131   0.939  13.917  0.0679  0.3697 -0.3602
11176TIP3    H155019   3.184   0.860  13.909  0.4764  0.6964 -1.0510
11176TIP3    H255020   3.046   0.914  13.882 -0.0653 -0.0032  0.2290
11177TIP3   OH255021   5.000   3.060   3.950  0.4411 -0.0432 -0.4949
11177TIP3    H155022   5.088   3.064   3.988 -0.2121  0.7957  1.0367
11177TIP3    H255023   4.943   3.037   4.024 -0.7257  0.3047 -1.2585
11178TIP3   OH255024   5.466   5.759   0.625 -0.5026 -0.0112  0.1384
11178TIP3    H155025   5.556   5.747   0.658 -0.0136  0.3839 -1.0218
11178TIP3    H255026   5.450   5.681   0.572 -0.2268  0.6885 -0.9935
11179TIP3   OH255027   5.887   1.825   0.676  0.0482 -0.0931 -0.1786
11179TIP3    H155028   5.800   1.800   0.644 -0.1122 -1.3672  1.1549
11179TIP3    H255029   5.918   1.748   0.723  1.9184  0.3438 -0.6215
11180TIP3   OH255030   3.700   0.483   1.760  0.2126  0.4297  0.1672
11180TIP3    H155031   3.684   0.390   1.741 -1.8232  0.5408  1.0711
11180TIP3    H255032   3.704   0.525   1.674  1.3318 -0.4865 -0.2625
11181TIP3   OH255033   2.533   4.900   0.843 -0.3973 -0.1142  0.1575
11181TIP3    H155034   2.554   4.888   0.935 -1.9615 -0.3621  0.5118
11181TIP3    H255035   2.459   4.962   0.843  0.1039  0.5180 -0.9785
11182TIP3   OH255036   0.036   1.230   2.542  0.5473  0.0861  0.0619
11182TIP3    H155037   0.093   1.193   2.475 -0.4930 -0.2862 -0.6431
11182TIP3    H255038  -0.030   1.162   2.558  0.6519  0.2545  1.3121
11183TIP3   OH255039   0.354   6.518  13.431 -0.2983  0.2089  0.0893
11183TIP3    H155040   0.448   6.518  13.450 -0.5349  0.4482  1.3048
11183TIP3    H255041   0.348   6.549  13.341  0.8282 -0.4454 -0.2267
11184TIP3   OH255042   3.100   4.100  14.059 -0.6594 -0.4232  0.5282
11184TIP3    H155043   3.073   4.030  14.118 -1.0737 -1.5619 -0.9508
11184TIP3    H255044   3.129   4.055  13.980  1.9011  0.9629  0.5942
11185TIP3   OH255045   4.736   4.157  12.341 -0.1062 -0.8425 -0.1287
11185TIP3    H155046   4.666   4.155  12.406  0.6859  0.2619  0.7932
11185TIP3    H255047   4.815   4.134  12.390  0.4854 -0.0993 -0.7099
11186TIP3   OH255048   6.433   5.936  16.411 -0.0175 -0.3223 -0.1985
11186TIP3    H155049   6.379   5.867  16.450 -2.0516  2.0381  1.4737
11186TIP3    H255050   6.501   5.952  16.476 -0.6466  0.4662  0.2771
11187TIP3   OH255051   2.790   2.968   1.298 -0.3845  0.1888 -0.0491
11187TIP3    H155052   2.774   2.916   1.219 -0.1825  0.3230 -0.1810
11187TIP3    H255053   2.812   3.055   1.265 -0.6428  0.3363  0.1701
11188TIP3   OH255054   4.942   4.772   2.813 -0.6664 -0.2029  0.4564
11188TIP3    H155055   4.990   4.801   2.735  1.7567 -0.8437  1.6183
11188TIP3    H255056   4.915   4.682   2.793 -1.1036  0.0392 -0.0707
11189TIP3   OH255057   4.380   1.369   0.795  0.2232  0.2047 -0.3879
11189TIP3    H155058   4.431   1.378   0.875  0.5969 -0.2536 -0.5693
11189TIP3    H255059   4.425   1.300   0.745  0.2320  0.7710 -1.1807
11190TIP3   OH255060   3.907   6.428  15.759 -0.4019  0.2710 -0.0784
11190TIP3    H155061   3.996   6.461  15.749  0.0212 -0.4202  1.2032
11190TIP3    H255062   3.884   6.395  15.672  0.2335  1.2704 -0.6500
11191TIP3   OH255063   2.060   5.974   5.743  0.1356  0.2404 -0.0140
11191TIP3    H155064   1.995   5.927   5.794  0.8931 -0.8647 -0.0346
11191TIP3    H255065   2.050   6.066   5.768 -1.0756  0.0126  0.3539
11192TIP3   OH255066   1.427   0.726   5.264  0.3348 -0.7864 -0.0894
11192TIP3    H155067   1.352   0.728   5.323  1.3375 -0.4208  1.2080
11192TIP3    H255068   1.446   0.632   5.253  2.0261 -0.8795  2.7120
11193TIP3   OH255069   4.920   6.436   5.582 -0.5893 -0.3139 -0.0941
11193TIP3    H155070   4.871   6.425   5.500 -0.5335  0.5433 -0.2550
11193TIP3    H255071   4.878   6.376   5.644 -0.9356 -0.6176 -0.6152
11194TIP3   OH255072   5.956   4.695   4.053 -0.1772  0.3904  0.4544
11194TIP3    H155073   5.939   4.757   3.983 -0.6953  0.8475  0.9823
11194TIP3    H255074   5.960   4.610   4.009 -0.3497  0.6898 -0.1477
11195TIP3   OH255075   3.250   0.758  13.479 -0.6653 -0.1753 -0.0287
11195TIP3    H155076   3.190   0.684  13.490  0.3870 -1.0704 -0.1227
11195TIP3    H255077   3.319   0.742  13.544 -0.3112  0.6064 -0.2044
11196TIP3   OH255078   3.527   1.226   4.571 -0.6453 -0.0717  0.1544
11196TIP3    H155079   3.508   1.247   4.480 -0.1026  0.1894  0.0933
11196TIP3    H255080   3.616   1.191   4.569 -0.6449 -0.0962  0.5802
11197TIP3   OH255081   1.621   6.269   3.775  0.1170  0.1864  0.5195
11197TIP3    H155082   1.676   6.200   3.812  0.5235 -0.3251 -0.9594
11197TIP3    H255083   1.638   6.345   3.830 -0.1370 -0.7938  2.0296
11198TIP3   OH255084   3.885   2.062  16.543  0.4874  0.1676  0.2577
11198TIP3    H155085   3.972   2.059  16.503  0.4108 -1.4671  0.1338
11198TIP3    H255086   3.825   2.071  16.469  0.5182  0.4493  0.2688
11199TIP3   OH255087   3.344   0.365   3.177 -0.2556 -0.0953 -0.1270
11199TIP3    H155088   3.404   0.397   3.111  0.5938 -0.1587  0.5994
11199TIP3    H255089   3.278   0.316   3.128 -0.0294  0.4251 -0.9780
11200TIP3   OH255090   3.765   0.974   5.124  0.3962  0.1927 -0.1419
11200TIP3    H155091   3.834   1.017   5.174 -0.5759  2.2258 -0.4118
11200TIP3    H255092   3.734   1.042   5.064 -2.8476 -0.0439  1.0262
11201TIP3   OH255093   1.765   1.328   5.474  0.1408 -0.3779  0.0558
11201TIP3    H155094   1.673   1.331   5.447 -0.2172 -1.4724  1.0597
11201TIP3    H255095   1.771   1.393   5.545  0.0261 -0.6151  0.2860
11202TIP3   OH255096   4.833   2.315  16.779  0.3597 -0.4228  0.4177
11202TIP3    H155097   4.859   2.307  16.871 -1.9249 -1.4647  1.0385
11202TIP3    H255098   4.845   2.226  16.744 -0.2787 -0.4079  0.1556
11203TIP3   OH255099   3.469   1.220  10.528  0.8927  0.1477  0.0093
11203TIP3    H155100   3.466   1.183  10.616 -3.1319 -0.8459 -0.3763
11203TIP3    H255101   3.482   1.144  10.470  0.4310  0.3609 -0.3843
11204TIP3   OH255102   3.882   2.864  15.756  0.4099 -0.8628 -0.0248
11204TIP3    H155103   3.856   2.905  15.839 -0.1496  0.0885 -0.6474
11204TIP3    H255104   3.854   2.773  15.764 -0.8467 -0.4672  0.3277
11205TIP3   OH255105   2.987   0.500  11.491 -0.5291  0.7928  0.2348
11205TIP3    H155106   2.932   0.430  11.456  0.1445  0.3801 -0.0092
11205TIP3    H255107   3.028   0.540  11.414  0.9746 -0.1326  0.5064
11206TIP3   OH255108   4.555   4.156   0.046  0.2833 -0.3867  0.3666
11206TIP3    H155109   4.586   4.127   0.132  2.1834 -2.2764 -0.8271
11206TIP3    H255110   4.475   4.105   0.030  0.7592 -1.1672  0.4248
11207TIP3   OH255111   2.593   0.812  13.145  0.5449 -0.2905 -0.4173
11207TIP3    H155112   2.498   0.811  13.148  0.5613 -1.0185 -0.0092
11207TIP3    H255113   2.619   0.879  13.208  0.3911 -2.8957  2.6338
11208TIP3   OH255114   1.405   1.737  13.051  0.3100  0.4109 -0.9772
11208TIP3    H155115   1.423   1.771  12.963 -0.5076  1.5652 -0.7227
11208TIP3    H255116   1.310   1.737  13.059  0.3192 -1.1204 -0.6174
11209TIP3   OH255117   5.045   0.594   0.470  0.1675 -0.4834 -0.0196
11209TIP3    H155118   4.986   0.632   0.404 -0.3415 -1.9526 -0.4508
11209TIP3    H255119   5.064   0.506   0.437  1.3147 -0.6206  0.9392
11210TIP3   OH255120   0.876   2.913   0.959 -0.4584 -0.1627  0.5582
11210TIP3    H155121   0.797   2.964   0.945 -1.2487 -1.8295 -1.7634
11210TIP3    H255122   0.846   2.831   0.997  0.4839  0.1027  1.9468
11211TIP3   OH255123   3.907   2.855  14.916 -0.2667 -0.2196  0.0688
11211TIP3    H155124   3.862   2.850  14.832 -1.2170  0.6489  0.5092
11211TIP3    H255125   3.837   2.861  14.981  0.4420  1.4705  0.7480
11212TIP3   OH255126   6.549   3.022  13.456 -0.3328  0.3121 -0.0582
11212TIP3    H155127   6.496   3.102  13.456  0.7292  1.0394 -0.9281
11212TIP3    H255128   6.639   3.052  13.440  0.2439 -0.9665  0.5860
11213TIP3   OH255129   0.091   5.464   1.709 -0.1533  0.7833 -0.2560
11213TIP3    H155130  -0.000   5.449   1.686 -0.0476  0.9376 -0.7725
11213TIP3    H255131   0.137   5.385   1.681 -0.1853  0.5270  0.3783
11214TIP3   OH255132   1.969   1.990  16.703 -0.2910 -0.2701 -0.0054
11214TIP3    H155133   1.933   1.938  16.775 -1.8388 -0.5677 -0.9509
11214TIP3    H255134   2.043   1.939  16.671  0.8804  0.2136  1.8034
11215TIP3   OH255135   5.560   0.182   0.824 -0.2424 -0.4264  0.2470
11215TIP3    H155136   5.593   0.210   0.739 -0.3472 -1.2580 -0.0840
11215TIP3    H255137   5.620   0.220   0.887  0.3465 -0.5145 -0.2523
11216TIP3   OH255138   2.532   0.527   0.420  0.5481  0.0747  0.6427
11216TIP3    H155139   2.476   0.481   0.482  1.6528 -0.9274  0.9268
11216TIP3    H255140   2.580   0.591   0.474 -1.7138  2.3895  0.1073
11217TIP3   OH255141   1.086   0.758   4.299 -0.9916  0.2658 -0.4696
11217TIP3    H155142   1.012   0.809   4.333 -1.1296 -0.0660 -0.2702
11217TIP3    H255143   1.153   0.824   4.278 -2.2866  0.8696 -3.1663
11218TIP3   OH255144   5.097   2.410  12.638 -0.0895  0.6066  0.3695
11218TIP3    H155145   5.099   2.486  12.580 -0.9480  2.2743  2.3677
11218TIP3    H255146   5.189   2.386  12.649  0.1521  0.9146 -0.8149
11219TIP3   OH255147   2.803   5.616  17.102 -0.2378  0.2543 -0.3571
11219TIP3    H155148   2.715   5.651  17.093 -1.2291 -1.0833  2.8430
11219TIP3    H255149   2.849   5.680  17.156  0.4541  0.4372 -1.1438
11220TIP3   OH255150   0.650   4.595   3.694  0.5842 -0.3127  0.2583
11220TIP3    H155151   0.593   4.666   3.665  3.2937  0.7325 -3.1052
11220TIP3    H255152   0.624   4.520   3.641  1.1055 -0.3663  0.0791
11221TIP3   OH255153   4.869   1.943   1.709  0.7048  0.0525  0.1998
11221TIP3    H155154   4.803   1.978   1.649  0.1990  0.3529  0.9281
11221TIP3    H255155   4.856   1.992   1.790  0.6823 -1.0882  0.9016
11222TIP3   OH255156   3.149   5.086   3.771  0.4806 -0.4473  0.8342
11222TIP3    H155157   3.115   5.173   3.790 -0.4090 -0.9223  1.5087
11222TIP3    H255158   3.177   5.090   3.680 -2.5008 -0.3384 -0.1726
11223TIP3   OH255159   3.399   6.614  15.015  0.2622  0.2918 -0.5490
11223TIP3    H155160   3.332   6.545  15.008  1.0318 -0.3751 -1.7049
11223TIP3    H255161   3.385   6.652  15.101 -1.9483  0.5259 -0.9481
11224TIP3   OH255162   1.914   2.349  11.270 -0.0525 -0.1315 -0.3252
11224TIP3    H155163   1.919   2.444  11.270 -1.7412  0.0063  0.7246
11224TIP3    H255164   1.821   2.329  11.254  0.0947 -1.5487  0.3347
11225TIP3   OH255165   5.276   4.460  15.874 -0.3271  0.4835 -0.3629
11225TIP3    H155166   5.254   4.543  15.915 -0.5252  0.0761  0.3851
11225TIP3    H255167   5.351   4.479  15.818 -0.5293  1.2090 -0.3881
11226TIP3   OH255168   0.440   0.626  10.331 -0.2643 -0.6440 -0.2665
11226TIP3    H155169   0.377   0.693  10.305 -0.5720  0.0578  2.1250
11226TIP3    H255170   0.499   0.619  10.255  0.0366  2.6366 -0.4942
11227TIP3   OH255171   2.270   2.774  11.799 -1.2733  0.2205 -0.0009
11227TIP3    H155172   2.303   2.693  11.837 -0.8935  0.7640  0.8726
11227TIP3    H255173   2.177   2.758  11.784 -1.5087  0.0894  1.4891
11228TIP3   OH255174   3.002   5.687  14.724 -0.2953 -0.6111  0.3366
11228TIP3    H155175   3.021   5.714  14.634  0.1756  2.0183  1.1204
11228TIP3    H255176   3.042   5.601  14.733 -0.2660 -0.8823 -1.9213
11229TIP3   OH255177   2.127   3.144   1.386  0.1300  0.1797  0.5129
11229TIP3    H155178   2.084   3.228   1.371 -0.4607  0.2841  2.4712
11229TIP3    H255179   2.059   3.088   1.424  1.2915 -0.1482  2.2154
11230TIP3   OH255180   2.374   3.738   2.671 -0.1492  0.2063  0.4066
11230TIP3    H155181   2.294   3.694   2.701 -1.1417  0.8183 -1.1372
11230TIP3    H255182   2.445   3.695   2.717 -1.3306 -0.8457  1.3126
11231TIP3   OH255183   2.387   6.549  14.305  0.1044  0.0200 -0.5175
11231TIP3    H155184   2.307   6.499  14.288  1.4784 -2.6897  0.4100
11231TIP3    H255185   2.438   6.538  14.225  1.3313 -2.0863  0.4710
11232TIP3   OH255186   4.241   2.993   0.979  0.3856 -0.3216 -0.5425
11232TIP3    H155187   4.205   2.907   1.003  0.2261 -0.2597 -0.5587
11232TIP3    H255188   4.190   3.020   0.903  0.0280  0.0561 -0.1754
11233TIP3   OH255189   4.671   6.037   1.628 -0.1294  0.1913  0.1408
11233TIP3    H155190   4.687   5.985   1.707 -1.5269 -1.2950 -0.5023
11233TIP3    H255191   4.622   6.113   1.658 -1.3284 -0.7469  0.6299
11234TIP3   OH255192   3.351   3.269  11.483 -0.2159 -0.1790  0.0277
11234TIP3    H155193   3.408   3.256  11.407  0.2696 -1.5377  0.5930
11234TIP3    H255194   3.272   3.309  11.447  1.3745  2.6228 -0.6570
11235TIP3   OH255195   3.561   2.539   1.168 -0.1432  0.3183  0.5551
11235TIP3    H155196   3.549   2.447   1.191  1.8945 -0.4110 -1.0116
11235TIP3    H255197   3.542   2.586   1.249 -1.0981 -1.4703  1.4395
11236TIP3   OH255198   1.043   6.299  15.229 -0.2322  0.2692  0.2607
11236TIP3    H155199   0.991   6.222  15.251  1.3388 -1.4590 -1.6112
11236TIP3    H255200   1.111   6.302  15.296  0.7581 -1.1275 -0.6160
11237TIP3   OH255201   4.623   6.581   1.349 -0.3557  0.2120 -0.3383
11237TIP3    H155202   4.666   6.641   1.409 -2.3054  1.0804  0.2710
11237TIP3    H255203   4.647   6.613   1.262 -1.2210  1.8174 -0.0247
11238TIP3   OH255204   5.784   4.765   5.163 -0.1728  0.0888  0.2293
11238TIP3    H155205   5.723   4.698   5.130  0.0663 -0.8143  1.5311
11238TIP3    H255206   5.866   4.718   5.174  0.2386  0.8272  0.3560
11239TIP3   OH255207   2.943   4.468   2.046 -0.4070 -0.8859  0.6430
11239TIP3    H155208   2.976   4.532   1.983  1.1042 -0.8734  1.4046
11239TIP3    H255209   3.020   4.443   2.098 -1.3857 -1.7327  1.7452
11240TIP3   OH255210   1.199   1.031  12.517 -0.5088  0.3515  0.1104
11240TIP3    H155211   1.196   1.029  12.612 -1.5724 -1.6984  0.0914
11240TIP3    H255212   1.291   1.011  12.496 -0.1937  1.1490  0.6816
11241TIP3   OH255213   1.767   0.525  14.588 -0.1673  0.0501 -0.2114
11241TIP3    H155214   1.815   0.500  14.510 -0.7740 -0.5534 -0.4058
11241TIP3    H255215   1.679   0.491  14.574 -0.5252  0.7293  0.3380
11242TIP3   OH255216   5.544   5.045   5.724 -0.9027 -0.3224 -0.3431
11242TIP3    H155217   5.624   5.070   5.678 -0.9688  0.2749 -0.1488
11242TIP3    H255218   5.557   4.953   5.747  1.6712  0.7242  3.5215
11243TIP3   OH255219   1.112   0.729  14.715 -0.2713  0.5122 -0.0413
11243TIP3    H155220   1.021   0.742  14.689  0.0060 -1.2855 -2.1700
11243TIP3    H255221   1.153   0.686  14.640  1.7833 -0.8491  1.7426
11244TIP3   OH255222   6.060   0.101  14.257  0.2318 -0.1507 -0.6373
11244TIP3    H155223   6.010   0.028  14.294  0.3587 -0.2334 -0.6285
11244TIP3    H255224   6.087   0.153  14.333 -2.3315  1.5568 -0.7579
11245TIP3   OH255225   2.934   5.200  16.162 -0.3259  0.2752 -0.0887
11245TIP3    H155226   2.914   5.190  16.255  0.7675 -0.9207  0.0426
11245TIP3    H255227   2.964   5.290  16.152  0.2783  0.1783  0.8492
11246TIP3   OH255228   6.471   1.366  11.405 -0.0598  0.2506 -0.1895
11246TIP3    H155229   6.537   1.300  11.389 -0.6389 -0.0688 -1.3866
11246TIP3    H255230   6.495   1.439  11.348 -0.3749  0.3892 -0.1492
11247TIP3   OH255231   5.241   4.576   4.227 -0.0483  0.1115 -0.0945
11247TIP3    H155232   5.310   4.642   4.234  0.5487 -0.4224 -0.7665
11247TIP3    H255233   5.173   4.618   4.173  0.4277  0.1144 -0.7075
11248TIP3   OH255234   1.240   3.114  14.744 -0.0930  0.1647 -0.7432
11248TIP3    H155235   1.211   3.204  14.758 -2.2256 -0.3791 -1.3963
11248TIP3    H255236   1.322   3.108  14.793 -0.4388  2.1563  0.1733
11249TIP3   OH255237   5.211   3.812  16.722 -0.9038  0.4757 -0.9590
11249TIP3    H155238   5.150   3.839  16.653 -1.0517  1.8167 -0.3179
11249TIP3    H255239   5.205   3.716  16.723 -1.2627  0.4593 -2.4675
11250TIP3   OH255240   5.734   2.154  14.935  0.6079  0.4098  0.7354
11250TIP3    H155241   5.646   2.119  14.916  0.8760 -0.3989  0.9504
11250TIP3    H255242   5.718   2.231  14.988  0.0878 -1.1308  2.9373
11251TIP3   OH255243   3.986   5.492  13.426  0.4871 -0.3754 -0.0758
11251TIP3    H155244   3.951   5.576  13.397  1.4109  0.0341 -0.0525
11251TIP3    H255245   4.018   5.451  13.346  0.4095 -0.5265 -0.0293
11252TIP3   OH255246   1.387   3.954   2.860  0.2219  0.3939 -0.2053
11252TIP3    H155247   1.356   3.934   2.772  0.8509 -1.4113 -0.0605
11252TIP3    H255248   1.417   3.870   2.895  1.5921  1.3653  1.0993
11253TIP3   OH255249   3.405   5.423   5.707  0.2837 -0.1587  0.2880
11253TIP3    H155250   3.355   5.383   5.778 -2.9981  1.6610 -0.7987
11253TIP3    H255251   3.387   5.368   5.631 -1.5627  1.3986 -0.4726
11254TIP3   OH255252   0.369   2.856  10.298 -0.2821 -0.1494 -0.3678
11254TIP3    H155253   0.389   2.825  10.386  0.0116 -0.9337 -0.6941
11254TIP3    H255254   0.399   2.946  10.296 -0.6617  0.0029  0.4583
11255TIP3   OH255255   0.955   5.679   4.428  0.3980  0.2313 -0.1952
11255TIP3    H155256   0.908   5.754   4.392 -0.7918 -0.3558  0.1085
11255TIP3    H255257   1.046   5.692   4.399  0.9602  3.4424  2.3658
11256TIP3   OH255258   0.179   1.590  10.732  0.2865 -0.0343 -0.0863
11256TIP3    H155259   0.123   1.641  10.672  0.7131  0.5396 -0.0110
11256TIP3    H255260   0.217   1.522  10.676  1.8971  1.4315 -0.8634
11257TIP3   OH255261   1.234   4.209   3.970  0.2839 -0.2493  0.2956
11257TIP3    H155262   1.264   4.129   4.012 -1.7764  0.2731  3.0486
11257TIP3    H255263   1.161   4.181   3.914  1.0309 -0.5578 -0.5375
11258TIP3   OH255264   2.836   4.697  15.453  0.2783 -0.2772  0.2666
11258TIP3    H155265   2.861   4.740  15.372 -0.5829 -0.0867  0.0954
11258TIP3    H255266   2.793   4.616  15.425  2.6559 -1.7450  0.5922
11259TIP3   OH255267   3.842   2.705  13.065 -0.2243  0.5027  0.0829
11259TIP3    H155268   3.781   2.709  13.139 -1.4355  1.7923 -0.9120
11259TIP3    H255269   3.814   2.777  13.008  1.4252  0.2863 -1.0558
11260TIP3   OH255270   6.329   2.028   5.072 -0.7242 -0.2838  0.2014
11260TIP3    H155271   6.313   1.992   5.159  0.4483  0.1666  0.6323
11260TIP3    H255272   6.245   2.063   5.044 -1.2173 -0.8349  0.9658
11261TIP3   OH255273   1.516   6.237   1.970 -0.2187 -0.0232  0.0392
11261TIP3    H155274   1.446   6.205   1.914 -0.5804 -3.2620  2.0592
11261TIP3    H255275   1.479   6.237   2.058  1.4010  1.2790  0.7930
11262TIP3   OH255276   4.025   4.633  15.349 -0.8140 -0.0913 -0.2003
11262TIP3    H155277   4.105   4.587  15.374 -0.9856 -0.4056 -0.2143
11262TIP3    H255278   3.988   4.580  15.277 -3.1032 -2.2707  2.3501
11263TIP3   OH255279   2.309   5.484  15.990 -0.4141  0.3723 -0.0399
11263TIP3    H155280   2.310   5.479  15.895 -1.4199  1.0427 -0.1138
11263TIP3    H255281   2.400   5.496  16.015 -0.1321  0.0979 -0.9128
11264TIP3   OH255282   6.356   4.339  14.103  0.1765  0.5708  0.3456
11264TIP3    H155283   6.326   4.332  14.193 -1.0382  0.7379 -0.0276
11264TIP3    H255284   6.291   4.395  14.060 -0.9619 -1.8967 -1.3548
11265TIP3   OH255285   5.531   1.647   5.573  0.2181 -0.0699 -0.4041
11265TIP3    H155286   5.478   1.570   5.552  0.8123 -0.7545  0.5360
11265TIP3    H255287   5.511   1.666   5.665  0.8232  0.2865 -0.3423
11266TIP3   OH255288   6.817   5.665  16.504 -0.3067 -0.1987  0.2616
11266TIP3    H155289   6.899   5.712  16.486  0.1182 -1.3029 -0.8161
11266TIP3    H255290   6.758   5.692  16.433  0.0319 -1.4525 -0.5315
11267TIP3   OH255291   0.136   0.289  17.133 -0.6508 -0.0766 -0.9985
11267TIP3    H155292   0.197   0.227  17.174  0.3050  2.7893  2.4207
11267TIP3    H255293   0.057   0.284  17.185 -0.9748  0.7658 -1.3867
11268TIP3   OH255294   5.853   0.707   0.302  0.7981 -0.5274  0.7198
11268TIP3    H155295   5.861   0.613   0.318 -1.3217 -0.9357 -0.3490
11268TIP3    H255296   5.787   0.715   0.233 -1.3462  1.8607  2.8255
11269TIP3   OH255297   1.175   2.655   3.139 -0.0696 -0.5404 -0.2791
11269TIP3    H155298   1.224   2.677   3.218  1.3179 -2.1430 -0.6332
11269TIP3    H255299   1.207   2.568   3.114 -0.7888 -0.2671 -2.3608
11270TIP3   OH255300   4.034   5.310  11.783 -0.0855 -0.2846 -0.3582
11270TIP3    H155301   4.014   5.402  11.797 -1.3537 -0.2810 -1.9364
11270TIP3    H255302   4.128   5.303  11.798  0.0379  1.2551 -0.2492
11271TIP3   OH255303   2.967   1.000   0.918 -0.5768 -0.4142 -0.0494
11271TIP3    H155304   3.012   1.084   0.925 -0.2090 -0.6154  0.0498
11271TIP3    H255305   3.018   0.941   0.973 -0.0811 -1.0053 -1.1020
11272TIP3   OH255306   4.280   6.794  15.627 -0.0064  0.0856  0.1302
11272TIP3    H155307   4.293   6.888  15.632 -0.8785  0.2354 -0.2315
11272TIP3    H255308   4.356   6.762  15.579  0.0200  0.6832 -0.2370
11273TIP3   OH255309   1.280   2.869  13.124 -0.3362  0.4651 -0.0495
11273TIP3    H155310   1.283   2.792  13.181  0.3350  1.3521  1.1635
11273TIP3    H255311   1.240   2.838  13.043 -1.1759 -0.8838  0.8459
11274TIP3   OH255312   4.513   0.288  14.209  0.7875 -0.2432 -0.1144
11274TIP3    H155313   4.564   0.264  14.286  0.1198 -1.1705  0.0479
11274TIP3    H255314   4.558   0.245  14.136 -0.3431 -1.9771  0.1615
11275TIP3   OH255315   4.205   6.405  15.676  0.2792 -0.1272  0.2039
11275TIP3    H155316   4.189   6.315  15.647  1.9424  0.0543 -1.5172
11275TIP3    H255317   4.259   6.395  15.755 -1.2060 -0.6161  1.1944
11276TIP3   OH255318   2.394   6.161   5.428  0.3259 -1.1300 -0.3040
11276TIP3    H155319   2.307   6.195   5.406  1.2374 -0.9816 -4.5235
11276TIP3    H255320   2.384   6.065   5.425  0.3874 -1.1131 -1.4008
11277TIP3   OH255321   6.277   1.374  13.893 -1.1705 -0.0521 -0.4023
11277TIP3    H155322   6.265   1.416  13.978 -4.4364 -1.8242  0.1804
11277TIP3    H255323   6.288   1.447  13.832  1.6229  1.2607  1.4682
11278TIP3   OH255324   6.191   6.387   3.117  0.0816  0.0730 -0.3894
11278TIP3    H155325   6.281   6.375   3.147 -0.4146 -1.0135  0.7999
11278TIP3    H255326   6.138   6.375   3.196 -1.1387  0.2891 -1.1407
11279TIP3   OH255327   0.221   3.789  14.365 -0.3057 -0.1848 -0.0239
11279TIP3    H155328   0.174   3.755  14.289  0.9417 -0.2905 -0.7810
11279TIP3    H255329   0.303   3.740  14.366 -0.6357 -0.7975  1.9064
11280TIP3   OH255330   1.739   2.953  16.041  0.4516  0.6204  0.4768
11280TIP3    H155331   1.690   2.892  16.096 -1.1864 -1.8041 -3.2574
11280TIP3    H255332   1.685   3.032  16.039 -0.5192 -0.0172  0.7401
11281TIP3   OH255333   1.843   1.525   5.174  0.0891 -0.4537  0.5117
11281TIP3    H155334   1.842   1.431   5.156  0.8184 -0.1776 -1.0890
11281TIP3    H255335   1.841   1.566   5.088 -2.7036  1.0709  1.1889
11282TIP3   OH255336   5.995   4.678   1.570  0.1539 -0.4695 -0.0960
11282TIP3    H155337   5.931   4.703   1.504  1.7674 -0.2572 -1.6884
11282TIP3    H255338   6.055   4.619   1.523  1.3111 -0.3777  1.1935
11283TIP3   OH255339   0.401   4.992   2.389 -0.1505 -0.0753 -0.1003
11283TIP3    H155340   0.492   4.987   2.418 -0.3160  0.3998  0.5378
11283TIP3    H255341   0.365   5.068   2.436 -1.0109 -0.5622  0.0540
11284TIP3   OH255342   5.420   2.281  16.863 -0.5812 -0.1401  0.3768
11284TIP3    H155343   5.400   2.196  16.823  1.3539 -0.3039 -0.3543
11284TIP3    H255344   5.489   2.262  16.926 -0.5921  0.8065  0.6916
11285TIP3   OH255345   1.488   5.417  14.952 -0.2604  0.5270  0.1650
11285TIP3    H155346   1.406   5.465  14.965 -0.0120  0.7759  0.8890
11285TIP3    H255347   1.550   5.483  14.919 -0.3755  0.3132 -0.4983
11286TIP3   OH255348   3.041   1.222   3.748 -0.5031  0.2717  0.4652
11286TIP3    H155349   3.037   1.260   3.661 -0.3449 -2.3951 -0.8186
11286TIP3    H255350   3.057   1.296   3.806 -0.3787  2.1117 -1.7764
11287TIP3   OH255351   3.014   4.737   0.082  0.5064 -0.0965 -0.0844
11287TIP3    H155352   3.069   4.762   0.008  0.7636 -0.1931  0.0716
11287TIP3    H255353   2.985   4.820   0.119  0.2254 -0.0498 -0.4043
11288TIP3   OH255354   4.884   1.631  14.120 -0.3643  0.0853  0.1524
11288TIP3    H155355   4.801   1.595  14.152 -0.3341  1.7346  2.2829
11288TIP3    H255356   4.858   1.701  14.061 -0.7136  2.8561  3.3297
11289TIP3   OH255357   4.125   4.610  11.092 -0.4037  0.0794  0.4750
11289TIP3    H155358   4.138   4.684  11.034 -0.0774  1.2748  2.0155
11289TIP3    H255359   4.171   4.538  11.050 -0.8166  0.6949 -1.0971
11290TIP3   OH255360   4.045   3.278   3.488 -0.2326  0.7715  0.0410
11290TIP3    H155361   4.112   3.288   3.556 -0.4608  1.5196  0.1688
11290TIP3    H255362   4.002   3.363   3.484 -1.1709  0.3165 -0.0479
11291TIP3   OH255363   1.178   6.725  13.567 -0.1549 -0.3518  0.1618
11291TIP3    H155364   1.153   6.750  13.478 -0.8149  0.0726  0.4586
11291TIP3    H255365   1.242   6.791  13.593 -1.0061  0.3523  0.5060
11292TIP3   OH255366   4.976   5.167  11.874 -0.2322 -0.6290 -0.3844
11292TIP3    H155367   5.036   5.092  11.866 -0.2216 -0.6192 -0.3967
11292TIP3    H255368   4.964   5.197  11.784  1.6529  0.8922 -0.1832
11293TIP3   OH255369   1.935   0.156  17.080  0.0996 -0.4982 -0.0083
11293TIP3    H155370   1.999   0.146  17.150  0.0078 -0.4505  0.0833
11293TIP3    H255371   1.984   0.197  17.009  0.2459 -0.7468 -0.0517
11294TIP3   OH255372   5.971   3.861   4.870  0.3332 -0.2130  0.2967
11294TIP3    H155373   5.895   3.911   4.841  1.7790  2.4455  0.7641
11294TIP3    H255374   5.936   3.799   4.934 -1.5648  0.1303 -0.3360
11295TIP3   OH255375   0.604   2.114  10.432 -0.1533  0.2684 -0.3049
11295TIP3    H155376   0.654   2.119  10.513 -0.1325 -0.2492 -0.2849
11295TIP3    H255377   0.658   2.061  10.373 -0.7319 -0.3928 -0.2431
11296TIP3   OH255378   6.472   0.052   2.003  0.2589  0.2106 -0.1070
11296TIP3    H155379   6.474  -0.005   1.927  2.0097  0.5728 -0.3672
11296TIP3    H255380   6.564   0.069   2.024 -0.1594  0.0449  2.1526
11297TIP3   OH255381   0.635   3.512  16.422 -0.4466 -0.2149 -0.2435
11297TIP3    H155382   0.727   3.506  16.447 -0.3490 -3.0093 -0.9274
11297TIP3    H255383   0.587   3.497  16.504 -0.5469  4.3673  0.8273
11298TIP3   OH255384   4.970   0.128  10.855  0.2988 -0.1442  0.3539
11298TIP3    H155385   4.894   0.070  10.851  0.2585 -0.2126  1.7161
11298TIP3    H255386   4.941   0.209  10.815 -0.3818 -0.2965  0.5362
11299TIP3   OH255387   6.033   3.698  14.581  0.0418 -0.0577  0.2575
11299TIP3    H155388   5.995   3.613  14.556 -0.5889  0.5167 -0.7786
11299TIP3    H255389   6.071   3.732  14.500 -1.0267  1.3157  0.2920
11300TIP3   OH255390   6.648   0.399   4.004 -0.0099  0.6360  0.2187
11300TIP3    H155391   6.697   0.462   4.056  0.1504  0.4161  0.3374
11300TIP3    H255392   6.645   0.320   4.059 -0.5918  0.6857  0.2576
11301TIP3   OH255393   0.517   1.584   3.175  0.1108  0.1317  0.3492
11301TIP3    H155394   0.610   1.578   3.200  1.0274  1.2096 -2.4353
11301TIP3    H255395   0.491   1.673   3.199  0.3026  0.3820 -0.3530
11302TIP3   OH255396   5.838   3.794  15.884  0.3618  0.4155  0.3139
11302TIP3    H155397   5.875   3.772  15.970  0.8366  0.8388  0.2173
11302TIP3    H255398   5.912   3.825  15.833  0.2805 -0.7741 -0.5812
11303TIP3   OH255399   5.565   3.676  14.745 -0.1564 -0.5144  0.2050
11303TIP3    H155400   5.613   3.643  14.669  0.7343  1.3124 -0.0692
11303TIP3    H255401   5.576   3.771  14.741 -1.3457 -0.2785  1.7971
11304TIP3   OH255402   0.739   5.294   2.908 -0.8645  0.3468  0.3787
11304TIP3    H155403   0.769   5.205   2.892  2.1304  1.1268  1.1328
11304TIP3    H255404   0.750   5.339   2.824  0.3701  0.6790  0.7007
11305TIP3   OH255405   4.315   0.373  16.973 -0.2872  0.1511 -0.0215
11305TIP3    H155406   4.410   0.364  16.986 -0.2469  0.4330 -0.1012
11305TIP3    H255407   4.280   0.377  17.062 -0.3840 -1.3810  0.0359
11306TIP3   OH255408   1.621   2.713  13.231  0.9108 -0.3769  0.4830
11306TIP3    H155409   1.601   2.633  13.279  0.7675  0.2978  1.5952
11306TIP3    H255410   1.594   2.695  13.141 -1.1257 -0.8339  1.1478
11307TIP3   OH255411   4.556   4.583  15.335  0.2257 -0.5215  0.1457
11307TIP3    H155412   4.646   4.558  15.319  0.8590  1.4048  0.3852
11307TIP3    H255413   4.504   4.526  15.278  1.5206 -2.0425  0.4223
11308TIP3   OH255414   2.909   0.973   3.845  0.2599  0.1099 -0.7025
11308TIP3    H155415   2.990   1.023   3.856  2.4792 -3.2459 -0.1395
11308TIP3    H255416   2.840   1.039   3.837  2.7052  3.1651  1.2391
11309TIP3   OH255417   5.777   0.395  15.531  0.0478 -0.5008 -0.1877
11309TIP3    H155418   5.745   0.305  15.534 -2.2379  0.2683  0.4886
11309TIP3    H255419   5.817   0.403  15.445  0.5184 -2.2119 -0.1669
11310TIP3   OH255420   2.295   4.092  16.310  0.1064 -0.1453 -0.3116
11310TIP3    H155421   2.338   4.121  16.230  2.2985  0.7622  1.1091
11310TIP3    H255422   2.330   4.148  16.379 -0.7441 -1.6849  1.4935
11311TIP3   OH255423   1.175   4.192   2.755 -0.3602  0.4203  0.2697
11311TIP3    H155424   1.262   4.228   2.740 -0.9383  1.9759  0.4223
11311TIP3    H255425   1.173   4.173   2.849 -0.0384 -0.0555  0.1832
11312TIP3   OH255426   1.288   1.165   0.393  0.2715  0.0604  0.4084
11312TIP3    H155427   1.347   1.106   0.441 -0.2603 -0.7572  0.0760
11312TIP3    H255428   1.297   1.249   0.437  0.7360 -0.3730  1.1561
11313TIP3   OH255429   5.591   1.594   2.683  1.0820  0.6054 -0.8640
11313TIP3    H155430   5.555   1.551   2.761  0.0915  1.0559 -1.0560
11313TIP3    H255431   5.683   1.569   2.683  0.8907 -0.1838 -0.0759
11314TIP3   OH255432   3.151   6.293   5.755  0.2419 -0.3396  0.1711
11314TIP3    H155433   3.148   6.199   5.739 -0.1800 -0.1266 -1.1998
11314TIP3    H255434   3.231   6.322   5.712 -0.6784  0.1927 -1.2902
11315TIP3   OH255435   3.023   1.483   4.236 -0.3681 -0.0290 -0.0056
11315TIP3    H155436   3.011   1.399   4.192 -0.9042 -0.7171  1.4006
11315TIP3    H255437   2.994   1.548   4.172 -2.6261 -1.0918 -0.1378
11316TIP3   OH255438   5.686   5.885  14.569  0.0124  0.4573  0.1598
11316TIP3    H155439   5.767   5.849  14.604 -1.3522 -1.3214  1.7075
11316TIP3    H255440   5.688   5.863  14.476 -0.5233 -3.4589  0.9245
11317TIP3   OH255441   2.191   6.695   1.069 -0.7634  0.5047 -0.0134
11317TIP3    H155442   2.121   6.684   1.004 -0.7336  2.4101 -0.4369
11317TIP3    H255443   2.145   6.714   1.151 -0.7566  1.0514 -0.1354
11318TIP3   OH255444   2.488   0.401  13.564 -0.5045 -1.0247 -0.2746
11318TIP3    H155445   2.505   0.468  13.498 -0.7796 -0.1975  0.4754
11318TIP3    H255446   2.406   0.428  13.605  0.3364 -0.7712  1.3146
11319TIP3   OH255447   1.143   2.001   2.710  0.1421  0.0640  0.0323
11319TIP3    H155448   1.073   2.066   2.718 -1.5165 -1.7123  0.6257
11319TIP3    H255449   1.140   1.973   2.619 -1.4395 -1.5548  0.5293
11320TIP3   OH255450   2.959   0.730   5.227 -0.5758 -0.0646  0.3337
11320TIP3    H155451   3.013   0.655   5.202 -0.3767  0.4629 -0.8863
11320TIP3    H255452   2.887   0.730   5.164 -0.4704  0.8856  0.2100
11321TIP3   OH255453   2.608   0.504  14.477  0.0033 -0.3825 -0.5234
11321TIP3    H155454   2.550   0.438  14.515  2.1057 -1.1251  1.6417
11321TIP3    H255455   2.670   0.524  14.546  2.0880  0.6958 -2.5730
11322TIP3   OH255456   3.214   3.810  12.064  0.0171  0.0586  0.2390
11322TIP3    H155457   3.253   3.892  12.033 -0.3662  0.0403 -0.3014
11322TIP3    H255458   3.218   3.751  11.988  0.9421 -0.6705  0.8153
11323TIP3   OH255459   6.815   3.686  15.794 -0.4261 -0.4000 -0.3452
11323TIP3    H155460   6.816   3.590  15.801 -0.6323 -0.3520  0.4441
11323TIP3    H255461   6.726   3.711  15.819  0.0149  0.0807  0.8154
11324TIP3   OH255462   0.515   6.800   2.426 -0.2805 -0.6062 -0.1163
11324TIP3    H155463   0.495   6.714   2.391  0.7798 -1.2026  0.6834
11324TIP3    H255464   0.567   6.842   2.357 -1.1623 -0.4218 -0.6855
11325TIP3   OH255465   3.093   1.623   0.203 -0.3665 -0.4689 -0.2724
11325TIP3    H155466   3.169   1.654   0.253  0.8190  1.4429 -3.0525
11325TIP3    H255467   3.017   1.659   0.250  0.6260  0.5292  0.6159
11326TIP3   OH255468   1.530   5.977  13.696  0.3448  0.0734  0.3234
11326TIP3    H155469   1.549   5.937  13.612  0.5462  1.1203 -0.1446
11326TIP3    H255470   1.435   5.988  13.696 -0.0955 -2.7934  1.5858
11327TIP3   OH255471   6.806   5.787   4.169 -0.1218  0.3762  0.0810
11327TIP3    H155472   6.782   5.694   4.168 -1.5116  0.7026  1.1008
11327TIP3    H255473   6.867   5.796   4.242 -0.9807  0.4775  0.8021
11328TIP3   OH255474   4.454   5.330  13.727 -0.4799  0.2547  0.5218
11328TIP3    H155475   4.453   5.285  13.812  0.9293 -0.5663  0.1369
11328TIP3    H255476   4.388   5.398  13.735  0.7230  1.2674  2.8675
11329TIP3   OH255477   0.042   0.318   6.194  0.6521 -0.4379 -0.1643
11329TIP3    H155478  -0.043   0.283   6.169  1.0962 -3.1218  1.7347
11329TIP3    H255479   0.031   0.349   6.284  1.6915 -0.9706  0.1655
11330TIP3   OH255480   5.228   5.377   0.265 -0.2362 -0.2486 -0.2021
11330TIP3    H155481   5.140   5.363   0.299 -0.5143 -0.6093 -1.0604
11330TIP3    H255482   5.215   5.404   0.174  0.4033  2.6546  0.4742
11331TIP3   OH255483   6.211   4.734  14.766 -0.2478  0.4657  0.7113
11331TIP3    H155484   6.142   4.800  14.766 -1.3526 -0.6414 -0.0649
11331TIP3    H255485   6.203   4.689  14.850  0.2638  1.0572  1.0837
11332TIP3   OH255486   0.495   5.519   5.677 -0.3617  0.7904 -0.2411
11332TIP3    H155487   0.494   5.601   5.726  2.4554  0.8236 -0.1045
11332TIP3    H255488   0.454   5.456   5.736 -0.5120  1.6263  0.5712
11333TIP3   OH255489   4.049   4.295  14.594  0.6723 -0.0124 -0.7581
11333TIP3    H155490   3.963   4.293  14.552  0.9196  1.4899 -1.3666
11333TIP3    H255491   4.050   4.217  14.650 -0.6372 -0.6691 -1.6102
11334TIP3   OH255492   4.998   5.979   1.431 -0.4690 -0.6315 -1.0713
11334TIP3    H155493   5.004   6.042   1.502  1.2126 -0.4111 -1.3634
11334TIP3    H255494   4.904   5.966   1.417 -0.8985 -1.9273  2.2337
11335TIP3   OH255495   4.362   3.078   0.538  0.6905 -0.1303  0.2403
11335TIP3    H155496   4.368   3.136   0.462 -1.2737  1.8441  1.4674
11335TIP3    H255497   4.449   3.080   0.577  0.5750  2.5966  0.5591
11336TIP3   OH255498   5.880   4.900   5.754 -0.2450  0.2322 -0.0602
11336TIP3    H155499   5.863   4.826   5.697  1.3862 -0.5879  0.4641
11336TIP3    H255500   5.876   4.977   5.697  0.7382 -0.5123 -1.1568
11337TIP3   OH255501   2.872   5.785  14.955  0.8546  0.6826  0.0813
11337TIP3    H155502   2.928   5.743  15.020  0.7214  2.0178  1.1240
11337TIP3    H255503   2.918   5.775  14.872  1.6679  0.0492  0.5975
11338TIP3   OH255504   2.067   2.262   3.631 -0.7839 -0.2353 -0.8703
11338TIP3    H155505   2.160   2.262   3.652 -1.0995 -1.5302  0.7551
11338TIP3    H255506   2.025   2.230   3.710 -2.8117  2.0742 -0.8980
11339TIP3   OH255507   5.485   2.552  16.024  0.3911  0.3681  0.3806
11339TIP3    H155508   5.540   2.491  16.073  1.9349  0.5098 -1.0802
11339TIP3    H255509   5.449   2.611  16.090 -1.3572 -2.1958  1.8778
11340TIP3   OH255510   1.690   6.019   6.759  0.0994 -0.0679  0.1609
11340TIP3    H155511   1.665   5.940   6.806  0.4282  0.1234  0.6627
11340TIP3    H255512   1.619   6.081   6.776 -1.8422 -1.2198 -2.8335
11341TIP3   OH255513   6.255   1.534  12.343  0.0335  0.3568 -0.3397
11341TIP3    H155514   6.239   1.615  12.294  0.4169  0.5079 -0.2118
11341TIP3    H255515   6.196   1.470  12.302 -1.6532  1.1312  0.7355
11342TIP3   OH255516   0.416   5.597  10.648 -0.0108  0.3231  0.2097
11342TIP3    H155517   0.496   5.563  10.609 -0.3523  0.4696 -0.6468
11342TIP3    H255518   0.352   5.595  10.576 -1.1085 -0.9157  1.1815
11343TIP3   OH255519   6.762   5.023   0.106  0.1599 -0.2795  0.3887
11343TIP3    H155520   6.824   4.966   0.061  1.3424 -1.1443  2.9144
11343TIP3    H255521   6.810   5.105   0.117  0.1878 -0.3524  0.8038
11344TIP3   OH255522   2.888   1.591   3.405 -0.0250 -0.2870  0.4165
11344TIP3    H155523   2.965   1.557   3.360 -1.8868 -1.4737 -2.1757
11344TIP3    H255524   2.922   1.643   3.478  3.1970 -0.0058 -1.1489
11345TIP3   OH255525   2.277   2.464   1.256 -0.3807  0.0682  0.5270
11345TIP3    H155526   2.355   2.484   1.308 -0.3806 -1.2381  1.0775
11345TIP3    H255527   2.283   2.370   1.239 -2.1139 -0.1820  1.0593
11346TIP3   OH255528   0.504   6.412   1.693 -0.2315 -0.6323  0.1890
11346TIP3    H155529   0.452   6.356   1.636 -0.8910  0.2560 -0.1190
11346TIP3    H255530   0.447   6.429   1.768  0.5621 -1.6514  1.0492
11347TIP3   OH255531   1.052   6.589  16.539  0.3090  0.4003 -0.1499
11347TIP3    H155532   0.991   6.623  16.603 -0.6387 -0.0151 -0.8007
11347TIP3    H255533   1.071   6.663  16.481  2.1892  1.1362  1.3181
11348TIP3   OH255534   0.290   1.775  13.970 -0.2609 -0.0371 -0.4723
11348TIP3    H155535   0.333   1.860  13.978  0.6841 -0.3933 -1.4979
11348TIP3    H255536   0.200   1.796  13.945 -0.1736  0.6679 -0.2179
11349TIP3   OH255537   3.288   5.547   1.718 -0.1693  0.2234 -0.6675
11349TIP3    H155538   3.311   5.462   1.755  0.4895  0.6717 -0.0145
11349TIP3    H255539   3.200   5.564   1.753  0.9532  1.2567  1.9444
11350TIP3   OH255540   2.025   0.250   5.051  0.0002 -0.2498  0.0352
11350TIP3    H155541   2.081   0.296   5.113  0.3202  0.6878 -0.9144
11350TIP3    H255542   1.989   0.176   5.101  0.5513  0.2458  1.2029
11351TIP3   OH255543   1.657   5.825   4.807  0.0803  0.1916 -0.0473
11351TIP3    H155544   1.740   5.799   4.766  1.1885  3.5820 -0.2937
11351TIP3    H255545   1.669   5.802   4.899  0.2846 -1.4696 -0.4500
11352TIP3   OH255546   1.679   6.441   2.586  0.2711 -0.4345 -0.3062
11352TIP3    H155547   1.768   6.460   2.614  0.9000 -1.7171 -1.3895
11352TIP3    H255548   1.627   6.514   2.623  1.7763  0.4829  0.0875
11353TIP3   OH255549   1.631   0.522  15.177  1.0805 -0.4809  0.2624
11353TIP3    H155550   1.627   0.575  15.256 -0.9753  0.8804 -0.6766
11353TIP3    H255551   1.550   0.542  15.130  2.8193 -0.1561 -2.8743
11354TIP3   OH255552   2.585   5.804   3.427 -0.0627  0.3751 -0.7704
11354TIP3    H155553   2.523   5.781   3.497  2.5121  0.1466  1.5709
11354TIP3    H255554   2.607   5.896   3.444  1.2445  0.0654 -0.6874
11355TIP3   OH255555   3.199   0.937   1.298  0.2577  0.4829  0.5229
11355TIP3    H155556   3.276   0.902   1.343  1.7213  0.0616 -2.0474
11355TIP3    H255557   3.226   1.024   1.269 -0.6225  0.7491  0.4858
11356TIP3   OH255558   3.982   5.509   0.399  0.0853 -0.1793 -0.4030
11356TIP3    H155559   3.890   5.497   0.375  0.3056 -1.4954 -0.6650
11356TIP3    H255560   4.000   5.438   0.461  0.8247  0.3019 -0.0517
11357TIP3   OH255561   0.935   2.106  12.069  0.6198  0.3339  0.1782
11357TIP3    H155562   0.894   2.126  12.153  0.9135 -0.6895  0.5804
11357TIP3    H255563   0.932   2.188  12.021 -0.3960  0.7011  0.8298
11358TIP3   OH255564   3.786   0.726  10.749  0.0222 -0.1710 -0.4941
11358TIP3    H155565   3.716   0.668  10.779 -1.3461  1.9063  0.5302
11358TIP3    H255566   3.752   0.815  10.763  3.3902  0.9920  1.4313
11359TIP3   OH255567   5.435   4.344   3.327 -0.4285 -0.1011  0.3426
11359TIP3    H155568   5.490   4.400   3.272 -2.1190  1.2701 -0.0594
11359TIP3    H255569   5.436   4.259   3.284  0.6938  0.1170 -0.1019
11360TIP3   OH255570   6.331   3.198   3.556 -0.0399  0.0489  0.2172
11360TIP3    H155571   6.250   3.151   3.577  0.4365 -0.6386  0.5595
11360TIP3    H255572   6.376   3.208   3.640 -0.2768  1.4140  0.1995
11361TIP3   OH255573   0.775   1.869  15.429 -0.0134 -0.4905 -0.4153
11361TIP3    H155574   0.847   1.932  15.429 -0.0781 -0.2946 -3.0263
11361TIP3    H255575   0.696   1.922  15.433 -0.0464 -0.5198 -0.6796
11362TIP3   OH255576   6.815   3.771  15.441 -0.3784 -0.2737  0.2958
11362TIP3    H155577   6.870   3.846  15.463 -0.2811 -0.0997 -0.5000
11362TIP3    H255578   6.728   3.808  15.427 -0.6088 -0.4871  1.1096
11363TIP3   OH255579   4.407   5.015  14.340  0.0049 -0.0068  0.4124
11363TIP3    H155580   4.327   4.963  14.351  0.4766 -0.5140  1.5801
11363TIP3    H255581   4.376   5.101  14.312 -0.9497 -0.2009  0.8307
11364TIP3   OH255582   1.784   1.255  15.411 -0.0944 -0.1098  0.2516
11364TIP3    H155583   1.762   1.166  15.383 -0.6790  0.0535  0.1747
11364TIP3    H255584   1.832   1.243  15.493 -0.8509 -0.4705  0.6572
11365TIP3   OH255585   5.334   0.023   3.402 -0.0738 -0.2391 -0.3164
11365TIP3    H155586   5.396  -0.040   3.439  0.3934 -0.6029 -1.6405
11365TIP3    H255587   5.332   0.002   3.308 -1.3334  0.5234 -0.4811
11366TIP3   OH255588   4.297   2.156   3.732 -0.3842 -0.0142 -0.3757
11366TIP3    H155589   4.326   2.065   3.727  1.8705  0.6508 -0.4900
11366TIP3    H255590   4.323   2.194   3.648  2.3703  1.6509  1.0964
11367TIP3   OH255591   5.691   4.110  12.722 -0.2248 -0.3149 -0.0971
11367TIP3    H155592   5.597   4.096  12.707 -0.2817 -0.8310  0.7332
11367TIP3    H255593   5.713   4.052  12.794  0.4844  0.6688  0.5045
11368TIP3   OH255594   6.801   3.401   4.102 -0.4440 -0.0984 -0.3610
11368TIP3    H155595   6.852   3.453   4.164 -3.4825  1.8412  0.7081
11368TIP3    H255596   6.788   3.458   4.026 -0.8343 -0.6462 -0.7165
11369TIP3   OH255597   6.049   0.879  14.472  0.5433  0.0146 -0.2579
11369TIP3    H155598   6.011   0.862  14.558 -0.9135  1.5842 -0.5482
11369TIP3    H255599   6.136   0.913  14.490  0.8058 -1.0161  0.5201
11370TIP3   OH255600   5.701   2.864  10.978 -0.3377  0.0025 -0.5445
11370TIP3    H155601   5.663   2.882  11.064 -1.5652  1.9747 -1.4212
11370TIP3    H255602   5.785   2.909  10.979  0.0903 -0.7751 -0.0865
11371TIP3   OH255603   5.884   2.225  15.814  0.1084  0.3121 -0.3783
11371TIP3    H155604   5.958   2.182  15.770 -0.0264  0.5889 -0.8878
11371TIP3    H255605   5.840   2.273  15.744  1.2796  2.7250  0.4289
11372TIP3   OH255606   6.666   5.002  14.317 -1.0612 -0.6566 -0.2034
11372TIP3    H155607   6.596   5.066  14.310 -0.6983 -0.2281  0.0408
11372TIP3    H255608   6.745   5.050  14.293 -0.6194 -0.7000  1.0819
11373TIP3   OH255609   3.313   0.197  10.706  0.8155 -0.7088  0.6594
11373TIP3    H155610   3.339   0.216  10.797  0.3338  0.4427  0.5682
11373TIP3    H255611   3.381   0.239  10.653 -0.1551  0.6517  0.4568
11374TIP3   OH255612   1.227   3.931   0.572 -0.2872 -0.0472 -0.4252
11374TIP3    H155613   1.316   3.938   0.537  0.0613  0.0908  0.4683
11374TIP3    H255614   1.175   3.988   0.516  0.4292  0.8964 -0.1588
11375TIP3   OH255615   4.904   4.256  14.648 -0.0278 -0.3862 -0.6017
11375TIP3    H155616   4.940   4.342  14.624  2.0657 -1.1866 -0.5516
11375TIP3    H255617   4.918   4.202  14.571 -1.9099 -0.5764 -0.8595
11376TIP3   OH255618   4.756   6.017   3.344 -0.3649  0.0821  0.0364
11376TIP3    H155619   4.678   6.024   3.290  0.7325  2.3372 -1.4161
11376TIP3    H255620   4.754   6.095   3.400  1.6409  1.1539 -1.2624
11377TIP3   OH255621   3.602   0.587   2.291  0.5235  0.0909 -0.0368
11377TIP3    H155622   3.603   0.671   2.244  1.1683  0.1671  0.0966
11377TIP3    H255623   3.594   0.521   2.222 -0.2601  0.2741 -0.1224
11378TIP3   OH255624   0.870   2.099  14.452 -0.7978 -0.2614  0.3128
11378TIP3    H155625   0.813   2.031  14.415  0.0201 -1.2925  0.8741
11378TIP3    H255626   0.856   2.094  14.546  0.6286 -0.9681  0.5253
11379TIP3   OH255627   4.362   4.109  16.207 -0.2040  0.0760 -0.3807
11379TIP3    H155628   4.433   4.164  16.240  1.2643 -0.4938 -2.3437
11379TIP3    H255629   4.396   4.075  16.124 -2.4455 -0.9667 -0.9368
11380TIP3   OH255630   3.254   4.304   1.323 -0.3740  0.2579 -0.0098
11380TIP3    H155631   3.308   4.382   1.304  0.7885 -0.1936  1.2388
11380TIP3    H255632   3.262   4.250   1.245  0.4982  0.4963 -0.1048
11381TIP3   OH255633   5.169   6.135  12.864 -0.5596 -0.0349 -0.0167
11381TIP3    H155634   5.127   6.050  12.876 -0.3143 -0.1195  0.2401
11381TIP3    H255635   5.096   6.197  12.864 -0.5880  0.0027  2.1257
11382TIP3   OH255636   2.055   1.493   4.261 -0.9187  0.0029  0.3549
11382TIP3    H155637   2.103   1.459   4.336  0.4043  0.6446 -0.1680
11382TIP3    H255638   2.099   1.456   4.185 -1.4754  0.3334 -0.1358
11383TIP3   OH255639   6.203   6.450   2.075 -0.1398 -0.3191  0.1747
11383TIP3    H155640   6.112   6.421   2.066 -0.0689 -1.3266  2.1410
11383TIP3    H255641   6.237   6.450   1.985 -2.5943  2.0351 -0.8903
11384TIP3   OH255642   2.628   5.092  16.398 -0.2397  0.3898 -0.0845
11384TIP3    H155643   2.533   5.094  16.408 -0.1970 -1.0286  0.9005
11384TIP3    H255644   2.645   5.020  16.338  0.2937 -0.9892  1.6352
11385TIP3   OH255645   1.674   0.087  17.198 -0.0654 -0.6811 -0.3095
11385TIP3    H155646   1.764   0.118  17.190 -0.3922  0.0266 -1.6487
11385TIP3    H255647   1.663   0.068  17.291  1.3604 -0.4809 -0.0765
11386TIP3   OH255648   3.032   3.430   2.710 -0.2669 -0.1334 -0.0274
11386TIP3    H155649   3.008   3.512   2.754 -1.2435 -0.6264  0.3729
11386TIP3    H255650   3.108   3.398   2.759  0.5020  0.8135 -0.5487
11387TIP3   OH255651   4.098   6.182  13.735  0.0539 -0.0406 -0.3072
11387TIP3    H155652   4.123   6.090  13.738  3.1758  0.5951 -2.2332
11387TIP3    H255653   4.144   6.222  13.809 -1.6808 -0.0307  0.8220
11388TIP3   OH255654   5.047   1.248  14.206  0.0351  0.3090  0.5987
11388TIP3    H155655   5.115   1.313  14.190  0.9795 -0.8630 -0.3472
11388TIP3    H255656   5.091   1.179  14.256 -0.7267 -0.0128  0.8400
11389TIP3   OH255657   4.064   3.397   1.010  0.1415  0.1075 -0.6744
11389TIP3    H155658   4.000   3.332   1.041  1.0609  0.1634  1.5433
11389TIP3    H255659   4.036   3.417   0.921 -1.7436 -1.3473 -0.4878
11390TIP3   OH255660   3.300   3.548   6.181 -0.0853 -0.7309 -0.2531
11390TIP3    H155661   3.218   3.582   6.217  1.1458  0.4742  1.6192
11390TIP3    H255662   3.367   3.611   6.210  1.8499 -2.9984  0.5415
11391TIP3   OH255663   2.195   4.451  14.009  0.4738 -0.2341 -0.0902
11391TIP3    H155664   2.272   4.409  13.971 -0.9307 -1.7037 -1.4688
11391TIP3    H255665   2.213   4.545  14.003  1.8499 -0.5433 -1.0461
11392TIP3   OH255666   2.308   1.235  11.175 -0.8799  0.0104  0.1501
11392TIP3    H155667   2.252   1.215  11.100 -1.2934 -0.2829  0.5289
11392TIP3    H255668   2.342   1.150  11.204 -1.2474  0.0428  0.6948
11393TIP3   OH255669   2.873   4.583  16.511  0.0520  0.2662 -0.1028
11393TIP3    H155670   2.798   4.567  16.568  0.2044  0.4842  0.1615
11393TIP3    H255671   2.836   4.591  16.423 -0.2943  0.9748  0.1096
11394TIP3   OH255672   0.814   2.731  12.193  0.2717  0.2389  0.0317
11394TIP3    H155673   0.882   2.679  12.151  0.0419 -0.9759  1.1062
11394TIP3    H255674   0.768   2.774  12.121  0.1749 -1.4299 -0.9400
11395TIP3   OH255675   6.104   5.054  16.249 -0.4243 -0.6506  0.0443
11395TIP3    H155676   6.196   5.055  16.276 -0.4358  1.4497  0.1571
11395TIP3    H255677   6.099   4.985  16.183  1.1341 -1.0656  0.3276
11396TIP3   OH255678   3.169   3.983  11.043  0.2925 -0.8990  0.3184
11396TIP3    H155679   3.176   4.072  11.078 -0.4763 -1.4122  1.8298
11396TIP3    H255680   3.183   3.926  11.118 -0.3508 -2.0585 -0.4084
11397TIP3   OH255681   6.349   1.965  13.725  0.7122 -0.1469 -0.3252
11397TIP3    H155682   6.367   1.895  13.662 -1.8929 -1.2603  0.0458
11397TIP3    H255683   6.294   2.027  13.677 -1.0919 -0.8793  0.6800
11398TIP3   OH255684   4.275   1.442  17.002  1.0590 -0.1195  0.2342
11398TIP3    H155685   4.335   1.512  16.976  1.5814 -0.9121 -0.7976
11398TIP3    H255686   4.207   1.443  16.934  1.8472 -1.5164 -0.6310
11399TIP3   OH255687   2.000   2.910   0.027 -0.0483 -0.6018  0.6393
11399TIP3    H155688   1.936   2.943   0.090 -0.8433  0.2748 -0.5863
11399TIP3    H255689   1.971   2.820   0.010 -0.4711 -0.4853  0.7148
11400TIP3   OH255690   5.120   0.565   4.506 -0.6146  0.1732  0.3493
11400TIP3    H155691   5.052   0.606   4.559 -0.3484  1.1739 -0.0656
11400TIP3    H255692   5.075   0.541   4.424 -0.9136 -0.9511  0.8153
11401TIP3   OH255693   2.062   6.450   1.234  0.1579 -0.0529  0.2219
11401TIP3    H155694   2.052   6.412   1.147 -0.6735 -0.2460  0.3989
11401TIP3    H255695   1.990   6.414   1.285  0.3583  0.4328  0.8608
11402TIP3   OH255696   2.011   1.324   0.570 -0.3045 -0.5070 -0.1402
11402TIP3    H155697   2.021   1.250   0.511  0.6489 -2.0519  1.8570
11402TIP3    H255698   1.953   1.293   0.639 -1.5590  1.3195 -0.3159
11403TIP3   OH255699   0.519   3.085   3.632 -0.0134 -0.3478  0.3587
11403TIP3    H155700   0.592   3.047   3.681  0.1286  0.5446  0.8744
11403TIP3    H255701   0.553   3.100   3.544  1.0484  1.7095  1.0447
11404TIP3   OH255702   2.665   2.623  11.965 -0.0901 -0.4843 -0.6099
11404TIP3    H155703   2.726   2.647  12.035 -1.5238  0.2848  0.4355
11404TIP3    H255704   2.716   2.566  11.908  1.5756  0.0489  0.2529
11405TIP3   OH255705   2.269   6.218   1.379  0.1254 -0.0681  0.8325
11405TIP3    H155706   2.191   6.209   1.325 -0.9249  0.4958  2.1979
11405TIP3    H255707   2.340   6.236   1.317 -0.9300  0.0161 -0.3793
11406TIP3   OH255708   3.821   4.255  11.139  0.2644  0.1810  0.1237
11406TIP3    H155709   3.820   4.163  11.115  1.6118  0.5372 -1.5044
11406TIP3    H255710   3.753   4.264  11.206 -0.4031 -1.8247 -0.2388
11407TIP3   OH255711   3.081   1.674   1.082 -0.4056  0.0864 -0.1060
11407TIP3    H155712   3.029   1.722   1.018 -1.1317 -2.5755 -1.6989
11407TIP3    H255713   3.031   1.681   1.163  0.0535  2.7498  0.0341
11408TIP3   OH255714   4.955   4.604   0.552  0.0310  0.0146  0.2425
11408TIP3    H155715   5.010   4.532   0.521 -0.2406  0.2890 -0.9350
11408TIP3    H255716   4.953   4.665   0.478  0.0128  1.0892  1.1159
11409TIP3   OH255717   6.454   4.217   4.717 -0.0436  0.7298  0.0740
11409TIP3    H155718   6.365   4.239   4.747  0.7708  2.8873  1.1420
11409TIP3    H255719   6.477   4.289   4.658  1.1640  0.4284  0.1575
11410TIP3   OH255720   1.694   5.062  15.880 -0.1394 -0.0225 -0.4361
11410TIP3    H155721   1.771   5.066  15.937 -0.6476 -1.8554  0.4455
11410TIP3    H255722   1.676   4.969  15.870 -3.0200  0.3388  0.4907
11411TIP3   OH255723   6.394   4.968   5.456 -0.5086  0.2870 -0.1777
11411TIP3    H155724   6.455   5.012   5.515 -0.1261 -0.1930 -0.2133
11411TIP3    H255725   6.440   4.963   5.372 -1.1047  1.1006 -0.5701
11412TIP3   OH255726   6.745   6.207  15.872 -0.2258  0.0045 -0.6125
11412TIP3    H155727   6.828   6.165  15.891 -0.7822  0.2522  3.0833
11412TIP3    H255728   6.766   6.275  15.808  1.9626 -1.3174 -1.3812
11413TIP3   OH255729   2.817   5.663   3.576 -0.1748  0.5668 -0.4826
11413TIP3    H155730   2.877   5.617   3.517  0.3092  0.8528 -0.2195
11413TIP3    H255731   2.739   5.679   3.523  0.0201  0.2806 -0.8594
11414TIP3   OH255732   3.836   6.000   2.598  0.0698 -0.2364  0.3382
11414TIP3    H155733   3.802   5.917   2.564 -0.4053 -0.0748  0.4171
11414TIP3    H255734   3.785   6.067   2.553  1.4218  0.0719 -0.8067
11415TIP3   OH255735   6.111   1.966   5.498  0.2156  0.0272  0.9322
11415TIP3    H155736   6.188   1.923   5.536 -0.1463 -0.8663  0.6929
11415TIP3    H255737   6.119   1.951   5.404  0.1006  0.5295  0.8372
11416TIP3   OH255738   1.212   6.572   5.679  0.2407 -0.5679  0.4171
11416TIP3    H155739   1.193   6.493   5.729 -0.8806 -0.2873  0.4642
11416TIP3    H255740   1.303   6.562   5.651  0.4655 -1.3416  1.3817
11417TIP3   OH255741   6.310   4.127  15.549 -0.1978 -0.0752 -0.0914
11417TIP3    H155742   6.334   4.210  15.507  2.3746 -1.6375 -2.0003
11417TIP3    H255743   6.256   4.082  15.483  0.7094 -0.9956 -0.2289
11418TIP3   OH255744   3.799   0.824   2.011  0.3624  0.2715  0.0447
11418TIP3    H155745   3.823   0.731   2.010  2.4151  0.6759  1.9825
11418TIP3    H255746   3.796   0.849   1.919  0.5573 -1.5229 -0.4938
11419TIP3   OH255747   5.852   6.394  10.677  0.5343 -0.2186 -0.2827
11419TIP3    H155748   5.813   6.482  10.684  0.2286 -0.4438  0.9900
11419TIP3    H255749   5.928   6.406  10.620  0.0271  0.7120 -0.7913
11420TIP3   OH255750   3.821   0.780  13.155  0.1937  0.6881 -0.6116
11420TIP3    H155751   3.794   0.757  13.244 -0.0032 -0.0983 -0.8643
11420TIP3    H255752   3.909   0.743  13.147 -0.8629 -1.8294 -1.6785
11421TIP3   OH255753   0.707   2.403  13.687  0.4651 -0.2769  0.5632
11421TIP3    H155754   0.707   2.308  13.680  1.2957 -0.2787  0.5056
11421TIP3    H255755   0.617   2.425  13.714  0.2485 -1.0633  0.5090
11422TIP3   OH255756   6.167   1.666  15.205  0.3701  0.4812  0.4781
11422TIP3    H155757   6.191   1.757  15.189 -1.1884  0.7961 -0.3381
11422TIP3    H255758   6.119   1.668  15.288 -0.9162  0.6840 -0.2391
11423TIP3   OH255759   1.078   2.043  13.454  0.1606  0.0041 -0.2628
11423TIP3    H155760   1.110   1.979  13.517  1.4198  1.7956  1.0360
11423TIP3    H255761   0.985   2.026  13.446  0.6708 -2.9387 -1.1903
11424TIP3   OH255762   4.506   2.632   5.178  0.5339 -0.2812 -0.5651
11424TIP3    H155763   4.482   2.678   5.258  0.8154 -1.0420 -0.0302
11424TIP3    H255764   4.427   2.633   5.125 -0.1617 -1.2008  0.4242
11425TIP3   OH255765   3.122   2.782   3.544  0.2808  0.0887 -0.2749
11425TIP3    H155766   3.119   2.761   3.451  1.2083  0.0012 -0.2889
11425TIP3    H255767   3.138   2.877   3.547 -2.0312  0.5335 -0.2001
11426TIP3   OH255768   5.014   1.977   5.076 -0.1655  0.5112 -0.2593
11426TIP3    H155769   5.104   2.010   5.066 -0.1438  0.7074  0.4952
11426TIP3    H255770   5.018   1.922   5.154 -0.3229 -0.8830 -1.2170
11427TIP3   OH255771   4.746   2.322   2.228 -0.4623 -0.1732  0.4150
11427TIP3    H155772   4.657   2.333   2.260  0.2676  0.0038  2.5389
11427TIP3    H255773   4.800   2.315   2.307  1.3612 -0.7431 -0.7980
11428TIP3   OH255774   0.774   4.604   0.126  0.0489  0.0230  0.1849
11428TIP3    H155775   0.761   4.527   0.182 -0.1935  1.3954  2.1288
11428TIP3    H255776   0.855   4.643   0.159 -0.3178  1.0919 -0.1721
11429TIP3   OH255777   0.183   0.447  15.683 -0.0426 -0.6516 -0.9443
11429TIP3    H155778   0.133   0.377  15.642  2.3410 -2.3176 -1.2119
11429TIP3    H255779   0.238   0.482  15.612  1.2613 -0.8837 -0.0918
11430TIP3   OH255780   1.459   4.066  16.171 -0.1738 -0.4230  0.0344
11430TIP3    H155781   1.507   4.067  16.088  2.2976 -0.5765  1.3643
11430TIP3    H255782   1.457   4.157  16.199 -3.5137  0.1018 -1.4108
11431TIP3   OH255783   5.671   4.620  14.325 -0.0427 -0.0832 -0.7054
11431TIP3    H155784   5.674   4.673  14.245  0.6941  1.1085  0.0798
11431TIP3    H255785   5.691   4.682  14.395 -0.5148 -1.1397  0.3941
11432TIP3   OH255786   3.118   5.182  16.534 -0.0926 -0.1495  0.2364
11432TIP3    H155787   3.179   5.249  16.504 -0.2060 -0.8743 -1.7681
11432TIP3    H255788   3.066   5.225  16.602  1.6700  0.9073  0.9832
11433TIP3   OH255789   2.023   2.744  13.617 -0.5045 -0.4936  0.3933
11433TIP3    H155790   2.052   2.657  13.644  0.4077 -0.4992 -0.5428
11433TIP3    H255791   1.944   2.728  13.566 -0.1666 -0.8124 -0.0376
11434TIP3   OH255792   3.926   5.928  12.154 -0.6016  0.6546  0.3843
11434TIP3    H155793   3.980   5.851  12.135 -0.5885  0.8525 -0.4511
11434TIP3    H255794   3.924   5.975  12.071 -2.3134  0.4926  0.3096
11435TIP3   OH255795   2.281   0.312   4.164  0.0883 -0.1854 -0.2452
11435TIP3    H155796   2.318   0.310   4.075  0.4515 -2.6840 -0.0962
11435TIP3    H255797   2.192   0.278   4.154 -0.3378  0.7603  0.1896
11436TIP3   OH255798   2.458   6.658   2.012  0.5785 -0.0606  0.6756
11436TIP3    H155799   2.463   6.724   1.943  0.7941  1.4246  2.0531
11436TIP3    H255800   2.383   6.603   1.987  0.7406  0.3559 -0.7908
11437TIP3   OH255801   4.775   2.045   2.401 -0.4902  0.1403  0.4048
11437TIP3    H155802   4.836   2.119   2.404  0.3723 -0.5050 -0.5290
11437TIP3    H255803   4.831   1.968   2.393 -1.3680 -0.3267 -2.8364
11438TIP3   OH255804   1.705   6.018   5.096  0.2021  0.1285  0.1607
11438TIP3    H155805   1.621   6.017   5.141 -0.1486 -0.2198 -0.4945
11438TIP3    H255806   1.735   5.927   5.100 -1.1783 -0.5660 -2.7656
11439TIP3   OH255807   6.160   2.917   1.842 -0.4565  0.0815  0.1118
11439TIP3    H155808   6.163   2.924   1.746 -0.1465 -1.1229  0.0109
11439TIP3    H255809   6.209   2.993   1.873  1.5331 -0.7631 -0.7740
11440TIP3   OH255810   0.104   0.926  12.675  0.4207 -0.4086 -0.2754
11440TIP3    H155811   0.178   0.969  12.632  0.3598  0.3029  0.3259
11440TIP3    H255812   0.030   0.945  12.618  0.6207 -0.7939 -0.6744
11441TIP3   OH255813   6.470   3.799  12.060 -0.4665 -0.1335 -0.5107
11441TIP3    H155814   6.401   3.777  11.997  0.2747  0.7649 -1.6830
11441TIP3    H255815   6.551   3.790  12.010  0.1067  1.3500  0.0889
11442TIP3   OH255816   6.804   1.048   4.337 -0.1569  0.4239  0.0905
11442TIP3    H155817   6.794   1.032   4.243 -2.8934  1.1383  0.1986
11442TIP3    H255818   6.794   1.143   4.347  0.9446  0.4650  1.0466
11443TIP3   OH255819   1.033   2.301  11.543  0.2948  0.6000  0.2804
11443TIP3    H155820   1.090   2.225  11.555  0.6791  0.4693 -1.9612
11443TIP3    H255821   0.959   2.269  11.492  0.4529  1.7171 -0.6895
11444TIP3   OH255822   1.894   0.767   2.105 -0.0323  0.6814  0.2088
11444TIP3    H155823   1.803   0.748   2.127  0.1775 -0.8885 -0.1982
11444TIP3    H255824   1.889   0.809   2.019 -0.4620  2.1124  0.8953
11445TIP3   OH255825   5.890   2.927  15.043  0.3859  0.0652  0.0623
11445TIP3    H155826   5.868   2.922  15.136  0.3966  2.2803  0.2288
11445TIP3    H255827   5.872   3.018  15.019  0.2331 -0.4920 -2.1532
11446TIP3   OH255828   0.016   2.509   5.522  0.0936 -0.2111  0.9717
11446TIP3    H155829  -0.050   2.446   5.552  1.0209 -1.1544  1.0791
11446TIP3    H255830  -0.034   2.575   5.475 -0.6086 -2.9654 -2.5333
11447TIP3   OH255831   3.832   1.341  12.429 -0.1556  0.2356 -0.4205
11447TIP3    H155832   3.864   1.429  12.453 -0.2632  0.2356 -0.2749
11447TIP3    H255833   3.891   1.312  12.360 -0.0522  0.3796 -0.3927
11448TIP3   OH255834   5.632   1.994   4.149  0.1347  0.4417 -0.2868
11448TIP3    H155835   5.575   1.991   4.225  1.4307  0.8806  0.7259
11448TIP3    H255836   5.682   1.912   4.152  0.1608  0.4349 -0.7084
11449TIP3   OH255837   6.601   0.536  13.355 -0.4737  0.3031 -0.1068
11449TIP3    H155838   6.554   0.608  13.312 -1.3607 -0.7634 -1.0004
11449TIP3    H255839   6.582   0.547  13.448 -0.8966  1.0168 -0.2719
11450TIP3   OH255840   4.360   0.887   3.594 -0.1354 -0.4416  0.1516
11450TIP3    H155841   4.424   0.957   3.603 -0.7017 -0.1317  2.3740
11450TIP3    H255842   4.285   0.929   3.552  0.5884 -0.4718 -1.2100
11451TIP3   OH255843   1.052   1.874   3.216  0.0486  0.5357 -0.2625
11451TIP3    H155844   1.105   1.922   3.152  0.2238  0.7775  0.0585
11451TIP3    H255845   1.114   1.851   3.285 -0.0932  0.0757 -0.2901
11452TIP3   OH255846   4.227   0.666  13.072 -0.3644 -0.1785 -0.4786
11452TIP3    H155847   4.182   0.732  13.125  0.1094 -0.3890  0.1950
11452TIP3    H255848   4.312   0.656  13.114 -1.2087 -2.8250  0.7908
11453TIP3   OH255849   5.781   0.914  15.550  0.3056  0.8008 -0.6347
11453TIP3    H155850   5.826   0.832  15.570 -1.2480 -0.0157 -0.3623
11453TIP3    H255851   5.780   0.918  15.455 -0.2000  0.1555 -0.6608
11454TIP3   OH255852   5.758   4.270  16.405 -0.1643 -0.1991  0.0107
11454TIP3    H155853   5.829   4.329  16.378  0.4167 -1.7065 -2.0471
11454TIP3    H255854   5.797   4.215  16.472  0.1035  0.0523  0.0646
11455TIP3   OH255855   4.869   5.686  11.435 -0.3797 -0.7297  0.4461
11455TIP3    H155856   4.792   5.638  11.467 -0.0518 -1.0737  0.7295
11455TIP3    H255857   4.876   5.660  11.343 -0.3549 -1.0337  0.5308
11456TIP3   OH255858   0.334   3.175   4.431  0.4051  0.1440  0.7086
11456TIP3    H155859   0.240   3.187   4.419  0.3235 -0.8971  0.2627
11456TIP3    H255860   0.341   3.110   4.501  0.8015  0.3802  0.8917
11457TIP3   OH255861   1.328   4.280  15.186  0.6773 -0.0125 -0.7229
11457TIP3    H155862   1.337   4.356  15.129 -1.3437 -0.9185 -2.3996
11457TIP3    H255863   1.233   4.269  15.196  0.8530 -2.8548 -1.3442
11458TIP3   OH255864   1.991   0.628  17.059 -0.2813  0.4501  0.2937
11458TIP3    H155865   1.940   0.683  17.000  0.8578 -0.1483 -1.3145
11458TIP3    H255866   1.931   0.558  17.085 -1.3514  1.7097  1.3450
11459TIP3   OH255867   5.231   0.644   3.403  0.5193  0.0822  0.5900
11459TIP3    H155868   5.232   0.718   3.464  0.3410  0.9709 -0.4533
11459TIP3    H255869   5.322   0.634   3.375  0.2788  1.1315 -0.6688
11460TIP3   OH255870   6.151   2.180   2.099  0.3657 -0.5926  0.5265
11460TIP3    H155871   6.125   2.160   2.189  0.1922 -0.4479  0.5085
11460TIP3    H255872   6.218   2.248   2.108 -0.2111 -0.0065  0.5145
11461TIP3   OH255873   1.013   3.053  16.908 -0.2597  0.3556  0.1883
11461TIP3    H155874   1.061   3.065  16.826 -0.5448 -2.0629 -0.4125
11461TIP3    H255875   1.051   2.974  16.946 -0.1400  1.4207  2.4443
11462TIP3   OH255876   4.913   1.373  16.226 -0.1090  0.3017  0.3528
11462TIP3    H155877   4.976   1.332  16.285  0.0554  0.9654  0.6548
11462TIP3    H255878   4.954   1.368  16.140 -0.6406 -1.2624  0.1694
11463TIP3   OH255879   3.295   4.863   3.313 -0.4681  0.4780  0.3733
11463TIP3    H155880   3.313   4.769   3.299 -3.1960 -0.3623  1.7833
11463TIP3    H255881   3.325   4.905   3.233  0.3114 -1.6774 -0.5502
11464TIP3   OH255882   6.009   3.529   1.440 -0.2699  0.3541  0.3997
11464TIP3    H155883   5.922   3.538   1.479 -0.3509  0.7168  0.1407
11464TIP3    H255884   5.992   3.508   1.348 -0.1269 -3.6975  1.1150
11465TIP3   OH255885   5.066   1.640   5.619 -0.3283 -0.0206 -0.1311
11465TIP3    H155886   5.147   1.690   5.627  1.3496 -2.5004 -0.4858
11465TIP3    H255887   5.037   1.625   5.709 -0.9594  1.6514 -0.0261
11466TIP3   OH255888   6.027   4.966  17.065  0.4440 -0.1554 -0.2623
11466TIP3    H155889   5.979   4.945  17.145  0.1995  0.9480 -0.1076
11466TIP3    H255890   5.960   4.972  16.997  0.8297 -3.1595 -1.0516
11467TIP3   OH255891   5.884   5.695   2.315 -0.1513  0.2383  0.0539
11467TIP3    H155892   5.933   5.684   2.396 -0.0009  1.6516  0.1848
11467TIP3    H255893   5.793   5.679   2.340  0.1286 -1.7660 -0.0572
11468TIP3   OH255894   1.286   5.308   6.187  0.3876 -0.0314  0.3865
11468TIP3    H155895   1.377   5.301   6.159  0.6187 -0.9790  1.2988
11468TIP3    H255896   1.290   5.348   6.274 -0.2113  1.5383 -0.2781
11469TIP3   OH255897   6.108   1.299  14.914 -0.4448  0.9916  0.0924
11469TIP3    H155898   6.135   1.316  14.823  1.2125  0.3393  0.4269
11469TIP3    H255899   6.169   1.350  14.967 -0.0853 -0.2149  0.8797
11470TIP3   OH255900   2.403   5.588   3.096 -0.4727  0.3459  0.0993
11470TIP3    H155901   2.342   5.561   3.027  0.6947  1.0226 -1.2446
11470TIP3    H255902   2.482   5.613   3.050  0.0177  1.8161  1.6219
11471TIP3   OH255903   4.966   5.411   1.542 -0.4372 -0.4347  0.9653
11471TIP3    H155904   4.995   5.344   1.480  2.1099  0.8397  0.6461
11471TIP3    H255905   4.885   5.444   1.505  1.4764  1.0155 -2.4446
11472TIP3   OH255906   1.646   1.754  15.509  0.2353 -0.0480 -0.0990
11472TIP3    H155907   1.666   1.824  15.448 -0.2579 -0.0865 -0.3052
11472TIP3    H255908   1.588   1.794  15.574 -0.3088 -0.3489 -0.3987
11473TIP3   OH255909   5.590   2.894   2.223  0.3283 -0.1948 -0.1435
11473TIP3    H155910   5.565   2.882   2.132  1.3367  0.3573 -0.5185
11473TIP3    H255911   5.659   2.829   2.238 -0.7668 -1.2109  0.6500
11474TIP3   OH255912   5.484   5.272   6.414 -0.1262 -0.0474  0.1501
11474TIP3    H155913   5.456   5.182   6.398 -1.4101  0.2164  0.8090
11474TIP3    H255914   5.421   5.326   6.366  0.8166  0.5047 -0.4983
11475TIP3   OH255915   3.589   5.073  16.398 -0.0275  0.4497  0.3551
11475TIP3    H155916   3.513   5.024  16.427 -1.1487  1.2917 -1.0457
11475TIP3    H255917   3.572   5.163  16.426  0.2285  0.7237 -0.3325
11476TIP3   OH255918   6.548   3.735  11.711  0.0006  0.3283 -0.2568
11476TIP3    H155919   6.551   3.757  11.618  0.7356 -0.3511 -0.4029
11476TIP3    H255920   6.461   3.763  11.739  0.6270  2.8962 -0.5587
11477TIP3   OH255921   5.379   2.007   4.730 -0.0210 -0.0567  0.4865
11477TIP3    H155922   5.313   2.064   4.690 -0.0348 -0.6221 -0.3054
11477TIP3    H255923   5.329   1.945   4.783 -0.2912 -1.4520 -1.2916
11478TIP3   OH255924   2.212   3.332   0.016  0.2788  0.0630  0.3622
11478TIP3    H155925   2.261   3.312   0.096 -2.3643 -0.2405  2.0240
11478TIP3    H255926   2.175   3.419   0.032 -1.5409 -0.6475  0.1817
11479TIP3   OH255927   0.833   3.491  16.130  0.5272  0.2775  0.2912
11479TIP3    H155928   0.738   3.490  16.123  0.3618 -1.7483  1.9126
11479TIP3    H255929   0.856   3.584  16.131 -1.3422  0.8065 -0.7235
11480TIP3   OH255930   0.662   0.966   5.660 -0.1106 -0.9915  0.4665
11480TIP3    H155931   0.581   1.016   5.650  0.9677  0.7608  0.0133
11480TIP3    H255932   0.690   0.948   5.570  1.9374  1.8315  0.3970
11481TIP3   OH255933   1.891   0.809  12.653  0.1554 -0.4343 -0.1956
11481TIP3    H155934   1.806   0.849  12.672  0.1277  0.8141 -2.5711
11481TIP3    H255935   1.898   0.737  12.716 -2.2121  0.0178  0.6957
11482TIP3   OH255936   2.962   6.570  15.506  0.3944 -0.4772 -0.2163
11482TIP3    H155937   3.041   6.521  15.483  0.6701 -0.8561  1.4404
11482TIP3    H255938   2.897   6.503  15.526 -0.3668 -0.1659 -1.4897
11483TIP3   OH255939   6.588   6.162   3.953 -0.0295  0.1815 -0.2420
11483TIP3    H155940   6.611   6.117   3.871 -0.6462 -0.6761  0.0499
11483TIP3    H255941   6.662   6.143   4.012  1.6490  2.8055 -1.2897
11484TIP3   OH255942   3.444   3.020   4.052 -0.1802  0.6673 -0.8172
11484TIP3    H155943   3.468   2.982   4.137  0.6996 -1.4932 -1.9802
11484TIP3    H255944   3.350   3.037   4.060 -0.0296  1.0260  0.7381
11485TIP3   OH255945   2.060   3.466  16.971 -0.0565  0.4738  0.1414
11485TIP3    H155946   2.097   3.382  16.998  0.1176  1.2448  2.5041
11485TIP3    H255947   2.136   3.522  16.955 -0.1802  0.3998 -0.7546
11486TIP3   OH255948   4.050   5.341   2.286 -0.2586  0.2027 -0.0276
11486TIP3    H155949   4.110   5.415   2.281 -0.4858  0.3725 -0.3269
11486TIP3    H255950   3.972   5.371   2.238  0.7017 -1.2484 -2.7009
11487TIP3   OH255951   5.055   3.894   3.428  0.0604  0.2822  0.0754
11487TIP3    H155952   5.009   3.955   3.486 -0.4479 -0.5366  0.5540
11487TIP3    H255953   5.129   3.944   3.394 -0.5023  1.2450  0.2417
11488TIP3   OH255954   1.110   5.868   0.624  0.4800  0.4179 -0.3957
11488TIP3    H155955   1.043   5.801   0.639  1.2789 -0.5243 -0.9018
11488TIP3    H255956   1.146   5.886   0.711  0.0948  0.3607 -0.2237
11489TIP3   OH255957   1.264   3.865   2.018 -0.0399  0.4003 -0.1968
11489TIP3    H155958   1.237   3.955   1.999  1.7026  1.0376  0.1264
11489TIP3    H255959   1.333   3.874   2.084 -1.5118 -1.3597  1.6876
11490TIP3   OH255960   3.931   6.340   5.188  0.6702  0.1946 -0.3161
11490TIP3    H155961   3.943   6.334   5.093 -1.8127  1.5202 -0.8048
11490TIP3    H255962   3.882   6.421   5.200 -0.8305 -0.9605  1.9020
11491TIP3   OH255963   5.149   1.755  15.714 -0.2198 -0.4060  0.1624
11491TIP3    H155964   5.210   1.682  15.729 -0.0556 -0.8677 -2.4155
11491TIP3    H255965   5.179   1.796  15.633 -2.9817 -0.2972 -0.8983
11492TIP3   OH255966   5.612   1.092  14.386  0.6465  0.7891 -0.0584
11492TIP3    H155967   5.646   1.118  14.471  2.2088 -1.5905  0.1434
11492TIP3    H255968   5.527   1.052  14.404  1.5097 -0.8303  0.6104
11493TIP3   OH255969   5.703   4.666   0.843 -0.5099  0.2502  0.2031
11493TIP3    H155970   5.774   4.673   0.779  0.0528  1.1205  0.8978
11493TIP3    H255971   5.624   4.686   0.793 -0.2274 -0.2853 -0.4793
11494TIP3   OH255972   3.714   4.713   2.042 -0.1818  0.3728  0.1002
11494TIP3    H155973   3.788   4.693   1.984  1.1939  0.8870  1.6107
11494TIP3    H255974   3.695   4.805   2.025  0.6803  0.7190  0.9163
11495TIP3   OH255975   1.231   6.390  12.139  0.5310  0.0604  0.4826
11495TIP3    H155976   1.182   6.405  12.058  0.9513  2.7274  0.6344
11495TIP3    H255977   1.167   6.404  12.209  1.0281  1.6009  0.6495
11496TIP3   OH255978   4.994   1.671   2.649 -0.4102 -0.6993  0.5569
11496TIP3    H155979   5.032   1.660   2.561 -0.7955 -0.2626  0.3319
11496TIP3    H255980   5.062   1.715   2.699 -0.7085  0.3625  0.0685
11497TIP3   OH255981   2.167   3.920   2.032 -0.0238  0.2823  0.2642
11497TIP3    H155982   2.169   3.912   2.127 -1.4982  0.8348  0.3698
11497TIP3    H255983   2.132   3.836   2.001 -2.1862  1.0537  0.4353
11498TIP3   OH255984   3.953   0.769   1.215  0.0393 -0.1558 -0.7918
11498TIP3    H155985   4.031   0.769   1.159 -1.3855  0.1293 -2.8660
11498TIP3    H255986   3.988   0.757   1.304  2.3673 -0.9252 -1.7286
11499TIP3   OH255987   1.259   3.879  11.391 -0.7459  0.1426 -0.3719
11499TIP3    H155988   1.266   3.965  11.350 -0.9627 -0.1690 -1.0835
11499TIP3    H255989   1.202   3.893  11.466 -0.4690  0.6940 -0.2614
11500TIP3   OH255990   0.517   3.619   6.058  0.3840 -0.5880  0.5140
11500TIP3    H155991   0.609   3.640   6.047  0.3618 -0.0301  1.3095
11500TIP3    H255992   0.477   3.702   6.086 -0.6447 -0.3993 -1.3342
11501TIP3   OH255993   5.998   5.003  11.525 -0.7816  0.4369  0.2375
11501TIP3    H155994   6.083   4.960  11.516 -0.6947  0.2663  1.6523
11501TIP3    H255995   5.941   4.957  11.463 -0.6443 -1.6473  1.5565
11502TIP3   OH255996   6.074   4.762   3.226 -0.2020  0.0049 -0.0197
11502TIP3    H155997   6.053   4.707   3.302  0.1434 -0.9022 -0.5611
11502TIP3    H255998   6.169   4.770   3.227 -0.1925 -0.0277 -0.3514
11503TIP3   OH255999   3.315   4.611   3.432  0.1468 -0.1513  0.2486
11503TIP3    H156000   3.292   4.665   3.508  2.0976  1.2679 -0.0863
11503TIP3    H256001   3.377   4.547   3.466 -0.8866 -1.1549  0.3052
11504TIP3   OH256002   1.463   3.369   5.293  0.1808  0.4477 -0.0962
11504TIP3    H156003   1.482   3.451   5.339 -1.2376  1.4885 -1.2581
11504TIP3    H256004   1.507   3.302   5.344  0.3822  1.7891  1.5777
11505TIP3   OH256005   4.439   3.489   5.154  0.4803 -0.1988  0.8729
11505TIP3    H156006   4.454   3.580   5.176  1.5447 -0.2011  0.2328
11505TIP3    H256007   4.401   3.450   5.233 -5.0395  1.8635 -0.2569
11506TIP3   OH256008   6.505   2.637   3.664 -0.2813 -0.1723  0.4339
11506TIP3    H156009   6.439   2.659   3.730  0.5878  2.4099  0.5445
11506TIP3    H256010   6.553   2.718   3.650  0.8989 -1.1761 -1.9063
11507TIP3   OH256011   1.748   2.809  10.990 -0.3833  0.1576  0.2778
11507TIP3    H156012   1.652   2.806  10.988 -0.3894 -0.8976  1.1944
11507TIP3    H256013   1.772   2.761  11.070  0.9309 -0.1690 -0.2867
11508TIP3   OH256014   2.293   1.476  13.355 -0.4102 -0.3019  0.0402
11508TIP3    H156015   2.386   1.454  13.350 -0.0112  1.1078  0.5437
11508TIP3    H256016   2.248   1.392  13.359  0.9925 -1.0417  2.2169
11509TIP3   OH256017   0.934   3.765  16.099  0.3888  0.1400 -0.2387
11509TIP3    H156018   0.888   3.840  16.062  1.6653  0.9046 -0.3502
11509TIP3    H256019   1.022   3.770  16.060 -0.0798 -2.6236 -1.9120
11510TIP3   OH256020   2.845   0.529   1.469  0.1643  0.0468 -0.0425
11510TIP3    H156021   2.921   0.572   1.430  1.0867  0.0618  1.6603
11510TIP3    H256022   2.781   0.524   1.398  2.1753 -1.0581 -1.9109
11511TIP3   OH256023   2.122   2.235   1.984 -0.0663  0.5829 -0.0581
11511TIP3    H156024   2.145   2.176   2.056  0.9422 -0.2461 -1.0200
11511TIP3    H256025   2.038   2.202   1.951 -0.4876  0.9119  0.6551
11512TIP3   OH256026   3.806   3.994  11.050 -0.2747  0.1684 -1.1823
11512TIP3    H156027   3.743   3.928  11.020  0.8267 -1.2672 -0.4100
11512TIP3    H256028   3.891   3.950  11.048  0.1571  0.5945  2.0120
11513TIP3   OH256029   5.967   3.098  15.845 -0.1724 -0.2450  0.1514
11513TIP3    H156030   5.908   3.086  15.919 -0.0608 -2.6706 -0.0436
11513TIP3    H256031   5.963   3.191  15.825  0.4893  0.7072  3.7524
11514TIP3   OH256032   1.998   2.451  13.696  0.0131  0.6300  0.7630
11514TIP3    H156033   2.061   2.387  13.662 -1.0379 -0.8887  1.5414
11514TIP3    H256034   1.917   2.401  13.706 -0.7691  2.0351  1.6851
11515TIP3   OH256035   1.833   2.170   3.471  0.4397 -0.2621 -0.1290
11515TIP3    H156036   1.911   2.183   3.526  1.0205 -1.5662 -0.5947
11515TIP3    H256037   1.829   2.248   3.416  1.3699 -0.1225 -0.0215
11516TIP3   OH256038   6.372   4.621   4.904  0.1961 -0.1485 -0.0099
11516TIP3    H156039   6.385   4.710   4.872 -0.7982  1.3823  3.3898
11516TIP3    H256040   6.285   4.597   4.871 -0.5046  1.0766  0.8668
11517TIP3   OH256041   2.930   1.187   0.000  0.1007  0.0951 -0.0782
11517TIP3    H156042   2.874   1.232  -0.063  0.2109 -0.6541 -0.7159
11517TIP3    H256043   2.870   1.135   0.054  0.0137  0.6850  0.4123
11518TIP3   OH256044   4.870   2.391  14.333  0.1769 -0.0040 -0.2260
11518TIP3    H156045   4.878   2.377  14.239  2.1570 -0.9901  0.0347
11518TIP3    H256046   4.779   2.369  14.353 -0.1060 -0.3863 -1.8117
11519TIP3   OH256047   0.104   6.743  15.879  0.6402 -0.5001  0.4705
11519TIP3    H156048   0.196   6.762  15.860  0.1623  0.1843 -1.3696
11519TIP3    H256049   0.093   6.767  15.971  1.7224  1.8079  0.0729
11520TIP3   OH256050   2.974   5.962   4.370  0.3598  0.4049 -0.0436
11520TIP3    H156051   3.023   5.891   4.329 -1.6495 -0.7576 -0.5455
11520TIP3    H256052   2.957   6.023   4.298 -0.0772  0.1541 -0.1504
11521TIP3   OH256053   4.584   3.288  15.854 -0.2777 -0.8725  0.2265
11521TIP3    H156054   4.524   3.342  15.907 -0.6531 -0.2235 -0.8307
11521TIP3    H256055   4.664   3.340  15.849 -0.3211 -0.8335 -0.0358
11522TIP3   OH256056   6.204   3.824  13.016  0.2969 -0.1862  0.1616
11522TIP3    H156057   6.145   3.891  12.983 -1.6484 -1.4927  0.8331
11522TIP3    H256058   6.218   3.848  13.108 -2.0314 -1.7025  0.9853
11523TIP3   OH256059   1.230   3.122   2.818 -0.2190  0.0901 -0.0236
11523TIP3    H156060   1.239   3.063   2.892  1.0504 -0.1919 -0.3745
11523TIP3    H256061   1.136   3.132   2.806 -0.5209 -2.6813 -0.5792
11524TIP3   OH256062   5.586   2.200  13.573 -0.5336 -0.8623 -0.1262
11524TIP3    H156063   5.603   2.178  13.482 -2.3706  1.5341 -1.1728
11524TIP3    H256064   5.548   2.121  13.611  1.2400 -2.2478 -1.0709
11525TIP3   OH256065   5.036   1.023   1.137  0.2043  0.4356  0.0772
11525TIP3    H156066   5.022   0.936   1.100 -0.1974  0.5239  0.0240
11525TIP3    H256067   5.101   1.063   1.079 -1.2040  0.9795 -1.2018
11526TIP3   OH256068   3.502   3.072   5.572  0.5318 -0.3176 -0.2598
11526TIP3    H156069   3.568   3.140   5.582 -1.0009  1.1124  0.6907
11526TIP3    H256070   3.484   3.042   5.661 -1.2004  0.4748 -0.2947
11527TIP3   OH256071   5.270   4.387   4.736 -0.6681 -0.6579 -0.4281
11527TIP3    H156072   5.272   4.419   4.646 -0.7760  0.4748 -0.0474
11527TIP3    H256073   5.248   4.465   4.788  0.3087 -1.0852  0.6601
11528TIP3   OH256074   1.145   0.273   4.405  0.4182 -0.0797  0.3287
11528TIP3    H156075   1.222   0.251   4.353 -0.5443  0.2750 -1.3235
11528TIP3    H256076   1.141   0.369   4.402  1.0670  0.0339  2.1831
11529TIP3   OH256077   6.755   1.829  15.494  0.1745 -0.2453 -0.7093
11529TIP3    H156078   6.838   1.830  15.542  0.1283 -1.3123 -0.5920
11529TIP3    H256079   6.688   1.830  15.563  0.0787  0.6254 -0.8041
11530TIP3   OH256080   1.169   0.811   3.012  0.0185  0.2942  0.6848
11530TIP3    H156081   1.231   0.738   3.016 -2.2216 -1.6859  2.2766
11530TIP3    H256082   1.084   0.770   3.027 -1.9403  2.6458 -2.5762
11531TIP3   OH256083   4.954   1.910  10.287 -0.7883 -0.2522 -0.0621
11531TIP3    H156084   4.872   1.886  10.330 -0.3197 -0.3411  0.7832
11531TIP3    H256085   4.927   1.937  10.199 -1.7290 -0.2498  0.2150
11532TIP3   OH256086   4.688   6.786  16.890  0.1948  0.2849  0.9689
11532TIP3    H156087   4.681   6.876  16.922 -0.0854  1.0526 -1.1129
11532TIP3    H256088   4.619   6.738  16.937 -0.1340  1.3266  1.5659
11533TIP3   OH256089   0.198   3.698  16.291 -0.6594 -0.3090  0.0996
11533TIP3    H156090   0.284   3.736  16.309 -0.4448 -1.0393  0.6361
11533TIP3    H256091   0.137   3.755  16.336 -0.4552  0.1716 -0.2202
11534TIP3   OH256092   1.142   6.102   2.281  0.3844  0.8259  0.1611
11534TIP3    H156093   1.157   6.024   2.335 -0.1288  0.6984  0.1226
11534TIP3    H256094   1.071   6.148   2.325 -2.2522 -0.8462 -2.0041
11535TIP3   OH256095   4.354   3.928   2.613  0.3930  0.2205  0.0817
11535TIP3    H156096   4.262   3.912   2.588  0.8743 -0.9948 -1.0711
11535TIP3    H256097   4.349   3.971   2.698 -1.2433 -0.2472  0.2564
11536TIP3   OH256098   4.636   3.215   6.489  0.0886 -0.3730  0.1445
11536TIP3    H156099   4.699   3.187   6.422  2.5334  2.0141  1.2365
11536TIP3    H256100   4.660   3.165   6.566 -0.3515 -0.5389  0.1736
11537TIP3   OH256101   1.432   4.526  15.788  0.1126 -0.3234  0.2703
11537TIP3    H156102   1.389   4.561  15.866 -0.2622 -1.8142  0.7587
11537TIP3    H256103   1.367   4.467  15.749 -0.1277  1.1761 -1.7954
11538TIP3   OH256104   5.556   5.102   5.383 -0.3002  0.4560  0.2604
11538TIP3    H156105   5.509   5.163   5.439  0.8269  1.7501 -0.1589
11538TIP3    H256106   5.640   5.088   5.427 -0.5230 -0.7806  0.3303
11539TIP3   OH256107   2.870   2.963  11.535  0.8226 -0.7403 -0.4334
11539TIP3    H156108   2.797   2.959  11.473 -0.2222  0.5358  0.6527
11539TIP3    H256109   2.913   3.046  11.516 -0.1476  0.1764  1.1910
11540TIP3   OH256110   2.789   1.672   2.278 -0.0821  0.8286  0.2516
11540TIP3    H156111   2.856   1.605   2.260 -0.8591  0.1461 -0.2188
11540TIP3    H256112   2.712   1.640   2.231 -0.6275  1.7902  0.4829
11541TIP3   OH256113   2.592   6.734   4.371 -0.1407  0.9837 -0.0470
11541TIP3    H156114   2.512   6.779   4.345  0.0223  0.5125 -1.4981
11541TIP3    H256115   2.645   6.731   4.291  0.0094 -1.4468  0.0502
11542TIP3   OH256116   0.011   2.857   0.449 -0.2972  0.1947 -0.7284
11542TIP3    H156117  -0.026   2.829   0.365 -0.4338 -0.5582 -0.4211
11542TIP3    H256118  -0.052   2.826   0.514  1.5244 -2.4017 -0.0670
11543TIP3   OH256119   3.746   2.491   3.249  0.2486 -0.1100 -0.0933
11543TIP3    H156120   3.832   2.522   3.275  0.4671 -1.0398  0.3458
11543TIP3    H256121   3.690   2.508   3.325  0.5096 -1.3098  0.3914
11544TIP3   OH256122   3.054   1.399   2.916 -0.0203 -0.6831  0.1997
11544TIP3    H156123   3.054   1.396   2.821  0.7445 -0.5822  0.1944
11544TIP3    H256124   3.085   1.312   2.943 -0.8739 -0.9437  0.3706
11545TIP3   OH256125   6.135   6.545   0.857 -0.1690  0.3255 -0.5347
11545TIP3    H156126   6.169   6.487   0.925 -0.4638 -0.4197 -1.0077
11545TIP3    H256127   6.203   6.611   0.846  0.2320 -0.0010 -0.0708
11546TIP3   OH256128   3.930   1.061  13.099 -0.0563  0.3795  0.2031
11546TIP3    H156129   3.835   1.050  13.102 -0.0941  0.7947  0.5648
11546TIP3    H256130   3.964   0.987  13.150 -0.0964 -0.7583 -1.3306
11547TIP3   OH256131   0.108   2.793  10.929  0.1246  0.1473 -0.3290
11547TIP3    H156132   0.112   2.885  10.953 -3.1039 -0.1692  2.1207
11547TIP3    H256133   0.110   2.794  10.833  1.4985  2.6013 -0.3630
11548TIP3   OH256134   1.904   1.338   3.493 -0.1379  0.0381 -0.0411
11548TIP3    H156135   1.921   1.244   3.499  2.3568  0.4518  0.4486
11548TIP3    H256136   1.828   1.345   3.435 -0.7264 -2.2868  0.3495
11549TIP3   OH256137   4.239   0.865  10.869 -0.2923 -0.8520  0.4119
11549TIP3    H156138   4.304   0.934  10.856 -1.6772  0.2965 -0.8116
11549TIP3    H256139   4.270   0.792  10.816  0.0011 -0.3015 -0.1832
11550TIP3   OH256140   1.278   2.914  15.800 -0.8989  0.6014 -0.1026
11550TIP3    H156141   1.225   2.977  15.848  0.5322  0.0163  2.4521
11550TIP3    H256142   1.275   2.834  15.853 -0.5060 -0.6378 -1.8588
11551TIP3   OH256143   5.531   0.452   3.112 -0.7264 -0.5576 -0.1937
11551TIP3    H156144   5.608   0.481   3.062 -1.8628  0.9888 -1.1126
11551TIP3    H256145   5.561   0.372   3.155  0.8675 -0.9988 -1.9292
11552TIP3   OH256146   1.523   6.614  13.448 -0.0903 -0.0961 -0.1150
11552TIP3    H156147   1.549   6.697  13.409 -2.4759 -0.0634 -1.8772
11552TIP3    H256148   1.591   6.553  13.421  0.1065  0.6792 -1.4763
11553TIP3   OH256149   6.434   0.166   1.413 -0.4249  0.1730  0.0666
11553TIP3    H156150   6.477   0.085   1.386 -0.0691  0.3030  0.2433
11553TIP3    H256151   6.347   0.138   1.444 -0.0947 -0.2145  0.6709
11554TIP3   OH256152   1.907   2.858  16.292  0.4491  0.5008 -0.1231
11554TIP3    H156153   1.982   2.917  16.297 -0.1657  1.2035  1.2809
11554TIP3    H256154   1.861   2.884  16.212  1.9263 -0.2628 -1.2706
11555TIP3   OH256155   0.525   6.453   3.364  0.4433  0.0108  0.0002
11555TIP3    H156156   0.507   6.376   3.310 -1.2059 -0.9228  1.7473
11555TIP3    H256157   0.588   6.422   3.429 -1.3887 -0.4008  1.6727
11556TIP3   OH256158   3.810   1.033   2.319 -0.1059 -0.5179  0.1393
11556TIP3    H156159   3.839   0.994   2.402  0.8649 -1.8072 -0.7654
11556TIP3    H256160   3.890   1.044   2.268 -0.0591  3.9605  0.7302
11557TIP3   OH256161   1.068   4.567  17.169  0.4652 -1.1192  0.6009
11557TIP3    H156162   1.012   4.490  17.177  0.7644 -1.2046  2.1987
11557TIP3    H256163   1.008   4.637  17.143 -0.1243 -1.5286  0.8339
11558TIP3   OH256164   2.814   3.528   3.089  0.1311 -0.1599 -0.6069
11558TIP3    H156165   2.868   3.463   3.043 -2.2362 -1.3206 -1.9818
11558TIP3    H256166   2.796   3.594   3.022 -0.1573  0.1990 -0.1737
11559TIP3   OH256167   3.978   3.152  16.605 -0.3388  0.1464  0.4739
11559TIP3    H156168   4.055   3.094  16.608 -0.5805 -0.1801  0.3809
11559TIP3    H256169   3.913   3.108  16.659 -1.0408 -0.4316 -0.7931
11560TIP3   OH256170   3.873   1.373   2.032  0.3060 -0.0977 -0.4143
11560TIP3    H156171   3.803   1.308   2.041 -0.5968  0.6222 -1.6979
11560TIP3    H256172   3.901   1.392   2.121 -0.7364 -0.8494  0.0900
11561TIP3   OH256173   1.248   3.703  10.513 -0.0090  0.2100 -0.2167
11561TIP3    H156174   1.211   3.731  10.429 -1.8663 -0.9815  0.1444
11561TIP3    H256175   1.302   3.628  10.492 -0.4877 -0.1005 -0.3529
11562TIP3   OH256176   4.246   5.537   2.242 -0.8601  0.2234 -0.2156
11562TIP3    H156177   4.317   5.582   2.288 -1.5921  0.7938  0.3753
11562TIP3    H256178   4.291   5.481   2.179  0.1478 -0.2219  0.8660
11563TIP3   OH256179   5.453   0.753  14.617  0.1932  0.1788  0.3872
11563TIP3    H156180   5.430   0.810  14.543 -0.2980 -0.8236 -0.2538
11563TIP3    H256181   5.508   0.808  14.673 -2.5135  2.2219  1.2443
11564TIP3   OH256182   0.343   6.054   0.127  0.3950  0.2390  0.2411
11564TIP3    H156183   0.383   5.976   0.089 -0.7150  0.8093 -2.3506
11564TIP3    H256184   0.405   6.124   0.109 -1.2626  1.0287 -3.3261
11565TIP3   OH256185   3.856   1.911   0.068 -0.1746  0.0292  0.3505
11565TIP3    H156186   3.764   1.893   0.050  0.3203 -2.2845 -0.3128
11565TIP3    H256187   3.885   1.967  -0.004 -0.9992  0.5961  0.4556
11566TIP3   OH256188   0.178   6.680  12.735 -0.0640  0.1635  0.1468
11566TIP3    H156189   0.149   6.643  12.652  0.7162 -0.2843  0.0671
11566TIP3    H256190   0.177   6.607  12.796  0.2788  0.2777  0.2964
11567TIP3   OH256191   1.984   5.101  13.836 -0.1228 -0.1818 -0.4165
11567TIP3    H156192   1.958   5.188  13.803  2.0593  1.3770  1.6738
11567TIP3    H256193   2.052   5.072  13.775  0.4385  0.4358 -0.0953
11568TIP3   OH256194   2.827   0.743   3.960  0.1238 -0.6715 -0.1367
11568TIP3    H156195   2.742   0.785   3.978  0.5015  0.2289 -0.3810
11568TIP3    H256196   2.873   0.806   3.904  0.9861 -1.1222  0.0501
11569TIP3   OH256197   6.339   3.117  13.090 -0.1644  0.4369 -0.4689
11569TIP3    H156198   6.268   3.121  13.026  1.0907  0.8621 -1.8828
11569TIP3    H256199   6.398   3.188  13.066  2.3427 -1.7424 -1.3335
11570TIP3   OH256200   1.672   4.907  14.941  0.0254 -0.8659 -0.3190
11570TIP3    H156201   1.723   4.838  14.983  0.1565  0.6372  2.1597
11570TIP3    H256202   1.736   4.955  14.888  1.0158  0.1977  1.7193
11571TIP3   OH256203   2.926   6.197   5.414  0.2945  0.5785 -0.1674
11571TIP3    H156204   2.861   6.206   5.484  0.0903 -1.9247  0.0805
11571TIP3    H256205   2.875   6.166   5.339  0.6356  2.4733 -1.2279
11572TIP3   OH256206   0.206   1.691   3.099 -0.1526  0.1639  0.5977
11572TIP3    H156207   0.229   1.760   3.161  0.8832 -0.7804  1.2879
11572TIP3    H256208   0.284   1.679   3.046 -1.0134  0.9340 -0.9150
11573TIP3   OH256209   2.952   0.613   1.744  0.2151  0.3091  0.3680
11573TIP3    H156210   2.909   0.625   1.660  1.7794  0.9924 -0.3970
11573TIP3    H256211   2.885   0.578   1.802 -0.7637 -0.6513 -1.2955
11574TIP3   OH256212   6.795   0.812   1.493 -0.4908  0.2433  0.7170
11574TIP3    H156213   6.752   0.738   1.534  1.2702 -1.0074  0.4226
11574TIP3    H256214   6.740   0.834   1.418 -0.2016 -1.8731 -0.1701
11575TIP3   OH256215   6.778   4.549   0.848  0.7973 -0.4545 -0.9435
11575TIP3    H156216   6.836   4.616   0.885  0.1258 -0.0658 -0.5677
11575TIP3    H256217   6.753   4.584   0.762  0.5116 -0.2462 -0.7809
11576TIP3   OH256218   4.535   3.889  13.019 -0.4017  0.8166  0.0238
11576TIP3    H156219   4.495   3.936  12.946  1.0903 -0.3922 -1.6514
11576TIP3    H256220   4.461   3.853  13.068 -1.4622  2.5847 -0.2098
11577TIP3   OH256221   2.432   5.732  12.785 -0.1952 -0.2883  0.0148
11577TIP3    H156222   2.380   5.784  12.724  0.6764  0.0410 -0.4661
11577TIP3    H256223   2.506   5.789  12.807 -0.4397 -0.4485  1.2987
11578TIP3   OH256224   1.236   1.605   2.587  0.0879  0.7902  0.6115
11578TIP3    H156225   1.286   1.672   2.541  0.5657  1.0643  1.5088
11578TIP3    H256226   1.215   1.645   2.672  0.3902 -0.1960  1.1597
11579TIP3   OH256227   6.353   1.137  11.656  0.2831  0.5118  0.0942
11579TIP3    H156228   6.439   1.167  11.685  0.9193 -1.3044  0.1601
11579TIP3    H256229   6.363   1.127  11.561  0.1378  0.2943  0.1036
11580TIP3   OH256230   4.017   4.830  12.524  0.0261 -0.3582 -0.3004
11580TIP3    H156231   4.057   4.743  12.531 -0.6280 -0.6743 -0.4038
11580TIP3    H256232   3.940   4.826  12.581  0.1986  0.2729 -0.0228
11581TIP3   OH256233   5.940   0.139   2.336  0.0104  0.4048  0.1120
11581TIP3    H156234   5.919   0.065   2.393  0.6954 -1.4610 -1.9417
11581TIP3    H256235   6.027   0.166   2.363 -0.3747  0.7101  1.0902
11582TIP3   OH256236   0.484   3.557   4.351  0.1006  0.3570 -0.1740
11582TIP3    H156237   0.481   3.573   4.256 -1.5895  1.7585  0.0563
11582TIP3    H256238   0.506   3.465   4.359 -0.2989  0.0596 -1.9606
11583TIP3   OH256239   0.761   1.650  16.701  0.0066  0.2536 -0.6006
11583TIP3    H156240   0.817   1.718  16.665  0.9770  0.6668  1.5149
11583TIP3    H256241   0.822   1.591  16.747 -1.1335 -0.1331  0.4648
11584TIP3   OH256242   1.429   6.450  13.056  0.0861  0.3766  0.8195
11584TIP3    H156243   1.400   6.366  13.093  1.1595 -1.3131 -1.8622
11584TIP3    H256244   1.525   6.446  13.059  0.1573  1.7859  1.1276
11585TIP3   OH256245   4.869   2.129   2.069  0.3340 -0.3242 -0.3416
11585TIP3    H156246   4.819   2.194   2.119 -0.2678 -0.4176 -0.8165
11585TIP3    H256247   4.805   2.060   2.049  0.7327 -0.5965 -0.6807
11586TIP3   OH256248   5.369   6.750  15.406  0.0239  0.6811 -0.2701
11586TIP3    H156249   5.385   6.712  15.319 -1.7350 -0.4322 -0.1419
11586TIP3    H256250   5.291   6.804  15.395  0.4022  1.3924  0.4045
11587TIP3   OH256251   1.362   0.355  15.327 -0.4083 -0.1507  0.3186
11587TIP3    H156252   1.304   0.362  15.251  0.2431 -0.3651 -0.2048
11587TIP3    H256253   1.377   0.261  15.338 -1.8242 -0.2710  1.7534
11588TIP3   OH256254   2.125   1.526  14.451  0.3314 -0.3107  0.6191
11588TIP3    H156255   2.129   1.480  14.535  0.2207  2.0174  1.9656
11588TIP3    H256256   2.214   1.559  14.437  0.0778  0.2703  0.3694
11589TIP3   OH256257   3.741   6.410   1.175 -0.7291 -0.8652 -0.3366
11589TIP3    H156258   3.810   6.473   1.197 -1.4032 -0.3589  0.3905
11589TIP3    H256259   3.782   6.351   1.112  0.6737 -1.1571  0.7890
11590TIP3   OH256260   3.285   4.977   6.063 -0.0277 -0.1020  0.3887
11590TIP3    H156261   3.193   4.977   6.037  0.0055  0.1177  0.2732
11590TIP3    H256262   3.292   4.903   6.124 -0.6558  0.8603  1.6825
11591TIP3   OH256263   1.201   0.535  15.466  0.6289 -0.7860 -0.7695
11591TIP3    H156264   1.265   0.497  15.406  0.9721 -1.0320 -0.2520
11591TIP3    H256265   1.162   0.460  15.512  1.6759 -0.5201  0.6231
11592TIP3   OH256266   0.686   5.188   2.575  0.3937 -0.2880  0.3057
11592TIP3    H156267   0.613   5.155   2.628 -0.2899 -0.8055 -0.9082
11592TIP3    H256268   0.763   5.145   2.610  0.1159  0.1332  1.5019
11593TIP3   OH256269   2.328   2.207   0.333  0.2119 -0.2255 -0.1156
11593TIP3    H156270   2.413   2.187   0.293  0.4114 -1.4288  0.8495
11593TIP3    H256271   2.272   2.232   0.259  1.2801  0.1574 -0.8132
11594TIP3   OH256272   2.832   5.408   6.371 -0.5167  0.5263 -0.8528
11594TIP3    H156273   2.917   5.389   6.409 -0.3119  0.8990 -1.1206
11594TIP3    H256274   2.847   5.484   6.314 -0.5044 -0.8387 -2.7864
11595TIP3   OH256275   2.969   0.366   5.454 -0.5530 -0.1567 -0.1677
11595TIP3    H156276   2.998   0.317   5.531 -2.3758 -2.6542 -0.9381
11595TIP3    H256277   2.892   0.318   5.422 -0.0128  0.8573 -3.4271
11596TIP3   OH256278   5.849   6.169   3.491 -0.2193  0.4654 -0.1700
11596TIP3    H156279   5.773   6.164   3.433  0.6876 -0.6919 -1.3195
11596TIP3    H256280   5.850   6.085   3.537 -0.3472  0.9803  0.8142
11597TIP3   OH256281   2.946   3.524  11.745 -0.0282  0.1315  0.1715
11597TIP3    H156282   2.942   3.545  11.838 -0.7427 -1.1603  0.4498
11597TIP3    H256283   2.856   3.535  11.714  0.2687  0.8924 -0.4565
11598TIP3   OH256284   3.922   1.296  12.081 -0.0457  0.0811 -0.1479
11598TIP3    H156285   3.996   1.235  12.074 -0.1160  0.0874 -1.0967
11598TIP3    H256286   3.862   1.254  12.142  0.4435 -0.2447  0.1126
11599TIP3   OH256287   4.884   1.290   6.291 -0.4092  0.3165 -0.5130
11599TIP3    H156288   4.929   1.329   6.365 -2.8461 -0.0710  1.3163
11599TIP3    H256289   4.954   1.258   6.233  1.5822  0.9847  1.4053
11600TIP3   OH256290   3.788   4.210  14.501 -0.0909 -0.4032  0.3782
11600TIP3    H156291   3.793   4.118  14.478 -0.1917  0.0681 -1.7801
11600TIP3    H256292   3.742   4.212  14.585 -0.6166 -2.2776  0.1733
11601TIP3   OH256293   3.425   2.739  14.625  0.5107  0.1249  0.8775
11601TIP3    H156294   3.407   2.832  14.637  2.4941  0.9745 -1.7974
11601TIP3    H256295   3.511   2.726  14.665  1.0096 -0.1417 -0.2665
11602TIP3   OH256296   4.617   0.440  12.980  0.0399 -0.6119 -0.2023
11602TIP3    H156297   4.686   0.373  12.979  0.3173 -0.3279 -0.4809
11602TIP3    H256298   4.556   0.412  12.912 -0.2111 -0.9585  0.1652
11603TIP3   OH256299   3.905   1.128  14.819 -0.3631 -0.1778 -0.5311
11603TIP3    H156300   3.953   1.088  14.746 -0.3816 -1.4862  0.1533
11603TIP3    H256301   3.856   1.056  14.858 -0.2283  0.4644  0.8813
11604TIP3   OH256302   1.003   5.364  10.801  0.0705  0.1617  0.4876
11604TIP3    H156303   0.941   5.304  10.758 -0.1578  2.5537 -2.8977
11604TIP3    H256304   1.089   5.328  10.781 -0.1124 -0.2100  0.3601
11605TIP3   OH256305   3.446   2.338   5.526 -0.0107  0.3837  0.5318
11605TIP3    H156306   3.373   2.290   5.486 -1.2144  0.6700  2.2730
11605TIP3    H256307   3.441   2.426   5.489 -0.6914  0.4604  0.8009
11606TIP3   OH256308   4.035   3.861  11.995 -0.1561 -0.0201  0.3117
11606TIP3    H156309   4.001   3.897  12.077  0.7676  0.7312  0.3850
11606TIP3    H256310   3.978   3.898  11.928 -0.7173 -0.3763  0.5852
11607TIP3   OH256311   4.735   3.234   4.365  0.6224 -0.8245 -0.0833
11607TIP3    H156312   4.647   3.245   4.330  0.6931 -1.8649 -0.6223
11607TIP3    H256313   4.777   3.320   4.353 -0.0080 -0.5976 -0.6889
11608TIP3   OH256314   0.874   0.544   0.083  0.0508  0.5975  0.0716
11608TIP3    H156315   0.946   0.605   0.097  0.6901  0.5460 -2.4387
11608TIP3    H256316   0.903   0.490   0.009 -1.6936 -0.8493  0.3691
11609TIP3   OH256317   5.518   0.626   0.653 -0.1380  0.4517  0.2137
11609TIP3    H156318   5.515   0.543   0.605 -1.1674  0.4954  0.1614
11609TIP3    H256319   5.600   0.624   0.702  0.3761 -0.1030 -0.6489
11610TIP3   OH256320   4.067   5.107   5.263  0.0336 -0.0532  0.0375
11610TIP3    H156321   4.041   5.018   5.286 -0.3263 -0.3930 -1.6087
11610TIP3    H256322   4.038   5.119   5.173 -0.3982  1.9271  0.3793
11611TIP3   OH256323   5.139   3.300  10.595  0.0287  0.0371  0.0232
11611TIP3    H156324   5.231   3.289  10.570 -0.2101 -0.0360 -0.8314
11611TIP3    H256325   5.142   3.310  10.690  1.0217  1.1970 -0.1135
11612TIP3   OH256326   5.698   3.299  15.708  0.3027 -0.5011 -0.5485
11612TIP3    H156327   5.762   3.331  15.771 -1.4855 -1.5020  1.9467
11612TIP3    H256328   5.668   3.216  15.744 -1.7536 -0.5080 -2.0624
11613TIP3   OH256329   6.236   6.807  14.618  0.1148 -0.4832 -0.3699
11613TIP3    H156330   6.292   6.730  14.632 -0.6630 -1.3648 -1.7761
11613TIP3    H256331   6.242   6.823  14.524 -0.5465  0.5502 -0.2464
11614TIP3   OH256332   6.696   3.442  16.965 -0.7490  0.0059 -0.1489
11614TIP3    H156333   6.679   3.536  16.965 -1.4221 -0.1123 -0.2650
11614TIP3    H256334   6.610   3.402  16.979 -0.8981 -0.6539 -2.4734
11615TIP3   OH256335   3.287   4.612   4.869 -0.0828 -0.3069  0.1536
11615TIP3    H156336   3.302   4.644   4.958 -2.0555 -0.5103  0.6106
11615TIP3    H256337   3.238   4.531   4.881 -0.2551 -0.4078 -1.1237
11616TIP3   OH256338   3.489   0.071   5.617  0.2999  0.0480 -0.0488
11616TIP3    H156339   3.572   0.026   5.599  0.6297  0.7233 -0.2436
11616TIP3    H256340   3.429   0.036   5.552  0.7423  0.3984 -0.6535
11617TIP3   OH256341   2.430   4.957  11.410  0.0243 -0.1968  0.1178
11617TIP3    H156342   2.496   4.899  11.373  1.1795  0.6595  0.7654
11617TIP3    H256343   2.409   5.018  11.339  1.6327  0.9370  0.5623
11618TIP3   OH256344   1.325   4.964   6.261  1.1365 -0.0409  0.1368
11618TIP3    H156345   1.296   4.875   6.241  1.2317 -0.5551  2.1028
11618TIP3    H256346   1.363   4.958   6.349 -0.4531  2.2405  1.0819
11619TIP3   OH256347   6.333   4.495   0.848  0.0214  0.4704  0.0149
11619TIP3    H156348   6.328   4.546   0.768 -0.2865  1.1096  0.4375
11619TIP3    H256349   6.258   4.435   0.843  0.2739  0.1805 -0.3894
11620TIP3   OH256350   0.045   5.303   3.376 -0.1542 -0.0844  0.6678
11620TIP3    H156351   0.074   5.221   3.415 -0.0244 -0.2020  0.3268
11620TIP3    H256352   0.124   5.358   3.375 -0.1387 -0.1104  0.4970
11621TIP3   OH256353   1.118   3.111   4.188 -0.0561 -0.6563 -0.0784
11621TIP3    H156354   1.107   3.090   4.096  1.1097 -0.3062 -0.3057
11621TIP3    H256355   1.209   3.089   4.208 -1.0132 -3.5958  1.7791
11622TIP3   OH256356   3.668   1.945   0.489  0.3146 -0.3619  0.0880
11622TIP3    H156357   3.701   1.971   0.404  1.0531 -0.0944  0.4500
11622TIP3    H256358   3.713   2.003   0.551 -3.1235  2.2803  0.4143
11623TIP3   OH256359   1.694   2.553  14.537  0.1339  0.2421  0.3264
11623TIP3    H156360   1.639   2.525  14.610  0.4016 -1.1394  0.0354
11623TIP3    H256361   1.780   2.517  14.557  0.4899  0.8327 -0.1154
11624TIP3   OH256362   3.336   5.989  16.158 -0.1497 -0.0635  0.0029
11624TIP3    H156363   3.273   5.917  16.154  0.4942 -0.5735 -1.7465
11624TIP3    H256364   3.284   6.064  16.187 -1.9911 -0.1358 -2.6697
11625TIP3   OH256365   2.331   5.408   3.591  0.2356 -0.5437 -0.0992
11625TIP3    H156366   2.389   5.396   3.666 -1.4383 -1.8254  1.0862
11625TIP3    H256367   2.320   5.320   3.554  0.6715  0.0050 -1.5838
11626TIP3   OH256368   5.371   3.581   4.722 -0.2588  0.0273 -0.4636
11626TIP3    H156369   5.301   3.613   4.779 -0.0835  1.9915 -1.2866
11626TIP3    H256370   5.328   3.564   4.639  0.0862  0.4067 -0.7204
11627TIP3   OH256371   5.382   3.273  14.244  0.1563 -0.0247 -0.1313
11627TIP3    H156372   5.409   3.264  14.152 -0.2462 -0.1221 -0.2429
11627TIP3    H256373   5.455   3.237  14.294 -0.4027 -1.7495 -0.4855
11628TIP3   OH256374   3.058   6.688   4.672  0.0645 -0.2170 -0.4978
11628TIP3    H156375   2.984   6.673   4.613 -0.3388 -0.0645 -0.0328
11628TIP3    H256376   3.063   6.608   4.725 -0.3755  0.1638  0.1266
11629TIP3   OH256377   0.181   5.314  15.597 -0.9458  0.3144  0.4647
11629TIP3    H156378   0.204   5.293  15.506 -0.4338  1.7238  0.2393
11629TIP3    H256379   0.087   5.331  15.595 -1.1614 -0.8118  0.4469
11630TIP3   OH256380   3.392   1.602   6.086 -0.0351 -0.3278 -0.0865
11630TIP3    H156381   3.396   1.507   6.089 -0.8479 -0.3655  0.3106
11630TIP3    H256382   3.441   1.631   6.163  0.5197 -0.4118 -0.4081
11631TIP3   OH256383   4.895   2.943   4.972  0.8424 -0.0057  0.6377
11631TIP3    H156384   4.841   3.022   4.976 -0.2007 -0.7505  2.5447
11631TIP3    H256385   4.884   2.902   5.058  1.4055 -2.2034 -0.2796
11632TIP3   OH256386   3.171   0.279   5.810  0.4403  0.4155  0.8707
11632TIP3    H156387   3.231   0.283   5.735  2.1829  2.7461  2.2629
11632TIP3    H256388   3.090   0.243   5.774  1.4914  0.6162 -1.9190
11633TIP3   OH256389   0.785   4.080  11.460  0.3479 -0.1489  0.6185
11633TIP3    H156390   0.794   3.990  11.494 -0.3494  0.0025  1.2296
11633TIP3    H256391   0.864   4.093  11.407  0.5436 -1.0627  0.6606
11634TIP3   OH256392   0.510   1.594   2.039 -0.4971 -0.1788  0.4219
11634TIP3    H156393   0.546   1.570   1.954  0.1629  1.0206  0.3368
11634TIP3    H256394   0.572   1.558   2.102 -0.3317 -0.0132  0.3533
11635TIP3   OH256395   0.690   4.767  12.636  0.3066  0.3047 -0.3402
11635TIP3    H156396   0.766   4.824  12.651  2.2306 -2.1756  0.0527
11635TIP3    H256397   0.703   4.733  12.548 -0.1211 -0.4562 -0.1192
11636TIP3   OH256398   4.938   0.727   4.679 -0.2833  0.6685 -0.1841
11636TIP3    H156399   4.976   0.811   4.707 -0.8053  1.0774 -0.6948
11636TIP3    H256400   4.845   0.746   4.668 -0.0413  0.6933 -2.7907
11637TIP3   OH256401   2.397   3.109   5.268  0.0872 -0.8278  0.1180
11637TIP3    H156402   2.481   3.141   5.299 -0.5620  0.5940  0.4565
11637TIP3    H256403   2.410   3.015   5.256  2.1368 -0.4232 -1.2208
11638TIP3   OH256404   3.880   1.501   1.100 -0.3323 -0.3071 -0.3312
11638TIP3    H156405   3.893   1.529   1.009 -1.3833 -1.9349 -1.0487
11638TIP3    H256406   3.962   1.520   1.143  0.4649 -0.1638 -1.8381
11639TIP3   OH256407   1.274   5.905   1.052  0.0768 -0.4742  0.3348
11639TIP3    H156408   1.291   5.910   1.146 -0.5408 -1.3613  0.4978
11639TIP3    H256409   1.179   5.898   1.045  0.2288 -2.7715 -0.2325
11640TIP3   OH256410   5.471   4.115  10.789 -0.0029 -0.2137  0.2158
11640TIP3    H156411   5.467   4.031  10.742  0.1895  0.4830 -1.1024
11640TIP3    H256412   5.391   4.117  10.841  0.1036 -1.3213  0.4573
11641TIP3   OH256413   4.898   5.478  13.452  0.4305 -0.2606 -0.1902
11641TIP3    H156414   4.918   5.563  13.491  1.8147 -0.2682 -0.7969
11641TIP3    H256415   4.839   5.436  13.514 -2.4892  2.1495 -1.1211
11642TIP3   OH256416   2.822   0.104   1.958  0.3897 -0.1593 -0.8251
11642TIP3    H156417   2.916   0.100   1.972  0.0913 -1.0042  1.2991
11642TIP3    H256418   2.796   0.189   1.993  0.1558 -0.6701  0.2914
11643TIP3   OH256419   6.345   5.306   3.060 -0.0788  0.0220 -0.1226
11643TIP3    H156420   6.357   5.399   3.043 -0.0184 -0.1098 -0.8439
11643TIP3    H256421   6.370   5.295   3.151  1.0628  0.5079 -0.3622
11644TIP3   OH256422   4.728   0.469  15.957  0.2729 -0.0446  0.0014
11644TIP3    H156423   4.682   0.527  16.017  0.4200  0.1819 -0.1063
11644TIP3    H256424   4.814   0.457  15.997  0.1291 -0.4584  0.1973
11645TIP3   OH256425   4.158   0.509   5.018 -0.0012  0.4545  0.0616
11645TIP3    H156426   4.238   0.535   5.063 -0.3099  1.4304  0.0732
11645TIP3    H256427   4.095   0.579   5.039 -0.7112 -0.0579 -0.3257
11646TIP3   OH256428   2.344   4.834   2.287 -0.3892  0.0527  0.4498
11646TIP3    H156429   2.271   4.892   2.308 -0.7784  0.4545 -1.7681
11646TIP3    H256430   2.419   4.872   2.332 -1.3065  0.3166  1.7943
11647TIP3   OH256431   1.507   1.826  10.469  0.5065 -0.0549  0.2473
11647TIP3    H156432   1.443   1.893  10.493  0.6274  0.2630 -0.3237
11647TIP3    H256433   1.568   1.826  10.543  0.9962  1.0746 -0.1370
11648TIP3   OH256434   6.703   0.048  15.514 -0.2445  0.0298  0.4293
11648TIP3    H156435   6.721   0.006  15.598 -0.7635 -0.8984  0.0880
11648TIP3    H256436   6.668  -0.022  15.459 -0.0609  0.6621 -0.5149
11649TIP3   OH256437   2.299   6.211   6.552 -0.6677 -0.0876  0.0320
11649TIP3    H156438   2.300   6.123   6.588 -2.2022 -0.2807 -0.3248
11649TIP3    H256439   2.387   6.224   6.516 -0.4710 -1.5069 -0.0360
11650TIP3   OH256440   5.586   2.449  13.713  0.0960  0.0557 -0.1085
11650TIP3    H156441   5.593   2.366  13.666  0.5128  0.8899 -1.5633
11650TIP3    H256442   5.573   2.423  13.805  1.2214 -1.6092 -0.3810
11651TIP3   OH256443   4.731   6.316   1.297  0.2896  0.2640 -0.3687
11651TIP3    H156444   4.656   6.270   1.260 -0.0883  1.9219 -1.7983
11651TIP3    H256445   4.692   6.389   1.346  0.8574 -0.9810  2.1019
11652TIP3   OH256446   5.024   6.289  16.264  0.0351 -0.1363  0.2935
11652TIP3    H156447   4.993   6.201  16.285 -2.5141  0.8324  0.9471
11652TIP3    H256448   4.954   6.328  16.212  2.8037  0.2277 -3.6322
11653TIP3   OH256449   4.466   2.499   2.439  0.6886 -1.2886  0.1407
11653TIP3    H156450   4.397   2.508   2.504 -1.6753  0.3610 -2.3266
11653TIP3    H256451   4.449   2.415   2.397 -1.7034  0.1756 -2.1808
11654TIP3   OH256452   2.809   5.966   3.042  0.1599 -0.0574  0.2294
11654TIP3    H156453   2.839   5.960   3.133 -1.3902  0.0296  0.7777
11654TIP3    H256454   2.774   6.055   3.035  0.9547  0.1918 -0.6852
11655TIP3   OH256455   4.810   4.495  13.011  0.1555 -0.2488 -0.2088
11655TIP3    H156456   4.891   4.510  12.964  1.4104 -1.4882  1.4190
11655TIP3    H256457   4.795   4.576  13.060  0.9861 -0.3534  0.2399
11656TIP3   OH256458   6.434   5.149  13.432 -0.5687 -0.1696  0.2530
11656TIP3    H156459   6.449   5.057  13.410 -0.2715  0.0070 -0.3234
11656TIP3    H256460   6.358   5.149  13.490 -0.6818 -0.7606  0.1046
11657TIP3   OH256461   2.444   3.991  12.761 -0.1755  0.7189  0.0326
11657TIP3    H156462   2.381   4.048  12.804 -1.1268 -0.6148  0.4716
11657TIP3    H256463   2.453   3.915  12.820  0.5535  0.1061 -0.8301
11658TIP3   OH256464   6.467   0.075   3.044  0.0087 -0.3230 -0.6396
11658TIP3    H156465   6.408   0.127   2.989 -1.8595 -1.0577  0.5446
11658TIP3    H256466   6.414   0.000   3.071  1.3869 -0.8331  0.8185
11659TIP3   OH256467   0.272   4.713  13.173  0.0187  0.2852 -0.1457
11659TIP3    H156468   0.346   4.656  13.197  0.7965  1.8335  1.4223
11659TIP3    H256469   0.233   4.738  13.257  0.3216  2.8089 -0.6655
11660TIP3   OH256470   2.470   2.716   2.376 -0.2211  0.0356  0.6096
11660TIP3    H156471   2.540   2.651   2.376 -0.9167 -0.7440  1.4798
11660TIP3    H256472   2.398   2.674   2.329 -0.3619  0.5489  0.3587
11661TIP3   OH256473   2.304   3.336   3.558 -0.4338 -0.2512 -0.0839
11661TIP3    H156474   2.232   3.371   3.506 -1.0536 -0.6496  0.4849
11661TIP3    H256475   2.368   3.307   3.493 -0.9968 -0.3341 -0.6165
11662TIP3   OH256476   4.167   6.556   1.789 -0.0004  0.4597 -0.0863
11662TIP3    H156477   4.091   6.526   1.738  0.7574 -0.9329 -0.4418
11662TIP3    H256478   4.221   6.604   1.727 -0.4514  1.2592  0.1160
11663TIP3   OH256479   3.444   0.091   1.594 -0.0429 -0.3248  0.2014
11663TIP3    H156480   3.378   0.092   1.525  0.9088 -0.6933 -0.7408
11663TIP3    H256481   3.410   0.030   1.660 -0.7577 -0.2979 -0.1393
11664TIP3   OH256482   4.215   4.100   4.407  0.6574 -0.0228  0.2213
11664TIP3    H156483   4.215   4.195   4.418 -2.6597  0.3357 -1.5027
11664TIP3    H256484   4.129   4.073   4.439  1.2011 -2.3626 -0.1531
11665TIP3   OH256485   6.645   3.398   6.208 -0.3751  0.3889 -0.2240
11665TIP3    H156486   6.732   3.425   6.177  0.3177 -1.7722 -0.3377
11665TIP3    H256487   6.661   3.356   6.292 -1.2391 -0.3633 -0.4097
11666TIP3   OH256488   1.848   0.545  11.873  1.0350  0.2510 -0.3964
11666TIP3    H156489   1.815   0.605  11.806 -2.7962  1.1922  1.9765
11666TIP3    H256490   1.813   0.460  11.848  0.5038  0.3985 -0.1695
11667TIP3   OH256491   2.342   5.237  15.398  0.3407 -0.6056 -0.4703
11667TIP3    H156492   2.334   5.325  15.361 -0.9301 -0.8701 -0.8643
11667TIP3    H256493   2.358   5.252  15.491 -1.4606  0.0662 -0.2252
11668TIP3   OH256494   4.204   3.362   6.457 -0.3352  0.1689 -0.1001
11668TIP3    H156495   4.299   3.372   6.447 -0.5025  0.5242 -1.4806
11668TIP3    H256496   4.167   3.409   6.383 -1.5749 -0.5718  0.0269
11669TIP3   OH256497   6.183   0.783   0.768  0.2458 -0.2876  0.5476
11669TIP3    H156498   6.122   0.852   0.740  1.2068  0.5977  0.5889
11669TIP3    H256499   6.129   0.704   0.773 -0.6814  0.2629 -0.4233
11670TIP3   OH256500   1.899   2.880  13.904  0.3143 -0.9852 -0.3968
11670TIP3    H156501   1.915   2.847  13.993  0.1523  0.6562  0.2836
11670TIP3    H256502   1.839   2.816  13.865 -1.3396 -0.6602  1.4421
11671TIP3   OH256503   5.827   6.312   4.403 -0.0102 -0.3280  0.3878
11671TIP3    H156504   5.833   6.346   4.314 -0.8301  0.0495  0.4686
11671TIP3    H256505   5.821   6.217   4.392  1.2210 -0.3850  0.1120
11672TIP3   OH256506   5.540   4.416   3.576 -0.0033 -0.0119 -0.1292
11672TIP3    H156507   5.534   4.392   3.484  0.3212 -1.8706  0.2847
11672TIP3    H256508   5.450   4.418   3.607 -0.0756  0.0184 -0.3442
11673TIP3   OH256509   6.482   4.487   4.622 -0.0161 -0.3021 -0.1433
11673TIP3    H156510   6.432   4.497   4.703 -0.2452  1.3298 -0.4362
11673TIP3    H256511   6.431   4.536   4.557  1.3225  0.3728 -0.7281
11674TIP3   OH256512   2.284   3.240   6.048 -0.2215 -0.1135 -0.2807
11674TIP3    H156513   2.339   3.288   5.987 -0.1808 -0.4638 -0.5194
11674TIP3    H256514   2.295   3.287   6.131  1.9798 -1.2749  0.1848
11675TIP3   OH256515   0.726   5.712  11.010  0.9247 -0.4818  0.0880
11675TIP3    H156516   0.656   5.760  11.053  0.9030 -0.4456  0.0131
11675TIP3    H256517   0.806   5.754  11.041  0.8743  0.3485 -0.8378
11676TIP3   OH256518   6.490   2.229  16.690  0.3235 -0.1899  0.2743
11676TIP3    H156519   6.478   2.249  16.597  0.7819  1.7393  0.5875
11676TIP3    H256520   6.441   2.298  16.736  0.8201 -0.5961  1.4694
11677TIP3   OH256521   6.428   2.846  12.923 -0.1390 -0.3923  0.0458
11677TIP3    H156522   6.373   2.777  12.884  0.7592 -0.9048 -0.3611
11677TIP3    H256523   6.405   2.925  12.874 -1.1210 -0.4032  0.4587
11678TIP3   OH256524   4.907   4.844   1.647  0.4222  0.0169 -0.0712
11678TIP3    H156525   4.981   4.841   1.587  0.2261 -0.5493 -0.2958
11678TIP3    H256526   4.901   4.935   1.675 -0.0288  0.4885 -1.5984
11679TIP3   OH256527   4.449   1.569  15.400  0.5178 -0.0160  0.0418
11679TIP3    H156528   4.492   1.600  15.320  0.7381  1.1985  0.6055
11679TIP3    H256529   4.364   1.612  15.399  0.0910 -0.8526 -0.0723
11680TIP3   OH256530   0.439   1.226   2.933 -0.2618 -0.1407 -0.6596
11680TIP3    H156531   0.487   1.146   2.911 -2.4756 -1.9585  0.7264
11680TIP3    H256532   0.376   1.237   2.862  0.6904  1.0109 -1.3663
11681TIP3   OH256533   2.619   4.788  14.611 -0.6226  0.5327  0.3388
11681TIP3    H156534   2.538   4.746  14.640 -0.6456  0.2962 -0.0507
11681TIP3    H256535   2.593   4.837  14.532 -0.5011  0.9160  0.5354
11682TIP3   OH256536   3.683   4.237   5.559 -0.3265  0.1788 -0.2770
11682TIP3    H156537   3.758   4.292   5.536  0.2788 -0.3047  0.4896
11682TIP3    H256538   3.641   4.217   5.475 -0.1555  1.2218 -0.6287
11683TIP3   OH256539   2.134   3.424   1.153 -0.3060  0.1830 -0.5715
11683TIP3    H156540   2.046   3.457   1.168 -0.1575  1.7920 -2.7280
11683TIP3    H256541   2.147   3.433   1.058  3.0488  2.4457 -0.0538
11684TIP3   OH256542   1.743   0.079  14.205  0.0144  0.3177  0.5903
11684TIP3    H156543   1.689   0.099  14.281 -0.9505  0.9214 -0.2420
11684TIP3    H256544   1.739   0.157  14.150 -1.4068 -0.9868 -1.3040
11685TIP3   OH256545   6.009   3.258   5.636 -0.0078 -0.9154 -0.0007
11685TIP3    H156546   6.050   3.259   5.723 -0.2316  0.9522  0.1327
11685TIP3    H256547   5.995   3.166   5.617  1.3254 -1.4381  1.3370
11686TIP3   OH256548   4.326   5.485  12.704 -0.2209 -0.0393 -0.0469
11686TIP3    H156549   4.403   5.510  12.652 -1.8175  0.9373 -2.1031
11686TIP3    H256550   4.349   5.400  12.742  2.0580  0.4762 -0.1072
11687TIP3   OH256551   0.902   0.626  13.990  0.2388  1.3101 -0.1413
11687TIP3    H156552   0.937   0.629  14.079 -0.3395  3.6806  0.0892
11687TIP3    H256553   0.820   0.676  13.996 -1.1756 -0.7304 -1.4766
11688TIP3   OH256554   1.851   4.431   5.394 -0.1121  0.3547 -0.0009
11688TIP3    H156555   1.787   4.503   5.404  0.1251  0.6667 -0.6350
11688TIP3    H256556   1.857   4.419   5.299 -0.2158 -0.5734  0.1067
11689TIP3   OH256557   4.423   4.144   3.985  0.3337 -0.0611 -0.2047
11689TIP3    H156558   4.498   4.114   3.934  0.6426  2.1564 -1.1547
11689TIP3    H256559   4.460   4.194   4.057 -0.2102 -0.2247  0.2018
11690TIP3   OH256560   2.118   1.597   0.478  0.7942  0.2069  0.4358
11690TIP3    H156561   2.106   1.641   0.562  0.5668 -1.0114  1.0617
11690TIP3    H256562   2.091   1.506   0.494  0.2034  0.0813 -1.0956
11691TIP3   OH256563   1.309   3.707  14.537 -0.1397  0.6352  0.0299
11691TIP3    H156564   1.319   3.767  14.611 -1.3199 -0.2492  0.9485
11691TIP3    H256565   1.306   3.620  14.577  0.4996  0.0335 -1.1830
11692TIP3   OH256566   1.913   1.821   5.387 -0.2222  0.4311 -0.6276
11692TIP3    H156567   1.883   1.804   5.298 -0.1782 -0.0253 -0.5600
11692TIP3    H256568   1.845   1.878   5.425 -0.4807  0.2419 -0.8004
11693TIP3   OH256569   2.744   5.623   0.717  0.1308  0.7039 -0.3093
11693TIP3    H156570   2.798   5.701   0.707  1.4251 -0.0207  0.7464
11693TIP3    H256571   2.804   5.556   0.748 -1.3570 -0.1869  0.7716
11694TIP3   OH256572   6.157   3.090   0.838 -0.3873  0.2197  0.7556
11694TIP3    H156573   6.097   3.164   0.837 -0.6722  0.0120 -1.1826
11694TIP3    H256574   6.215   3.107   0.912 -2.7165  0.4832  2.6141
11695TIP3   OH256575   4.472   4.520   6.394  0.1054  0.3800  0.3971
11695TIP3    H156576   4.495   4.567   6.474  1.0758  0.1451  0.2609
11695TIP3    H256577   4.511   4.433   6.405 -1.2567 -0.2558  0.4342
11696TIP3   OH256578   5.429   1.622  13.148  0.0032 -0.3597  0.1359
11696TIP3    H156579   5.495   1.670  13.198  1.1156 -0.5838 -1.0669
11696TIP3    H256580   5.354   1.616  13.207  0.1066  2.1356  0.6101
11697TIP3   OH256581   1.588   0.803  10.252  0.0837 -0.1704  1.0504
11697TIP3    H156582   1.559   0.891  10.228 -2.6507 -1.1447  0.4770
11697TIP3    H256583   1.542   0.784  10.334 -1.5327 -2.0037 -0.1866
11698TIP3   OH256584   1.630   1.273   3.000  0.6841 -0.1471 -0.0411
11698TIP3    H156585   1.707   1.325   2.978  0.3199  1.5149  2.1934
11698TIP3    H256586   1.569   1.288   2.929  1.0762  1.4943 -0.0571
11699TIP3   OH256587   0.570   2.296  11.935 -0.6324  0.1754 -0.3909
11699TIP3    H156588   0.589   2.202  11.930 -1.3574  0.0144 -0.3257
11699TIP3    H256589   0.513   2.305  12.012  1.2874  1.0145  1.0017
11700TIP3   OH256590   3.129   6.777  13.119 -0.0453  0.2764  0.7248
11700TIP3    H156591   3.044   6.806  13.085 -1.2619  0.1350  3.3604
11700TIP3    H256592   3.181   6.760  13.041 -2.3736  0.5008 -1.0169
11701TIP3   OH256593   0.014   2.510   1.037  0.2451  0.2916 -0.5756
11701TIP3    H156594   0.074   2.436   1.032 -1.4016 -1.0248 -2.3067
11701TIP3    H256595  -0.044   2.490   1.111 -0.3375 -0.2883 -1.1788
11702TIP3   OH256596   6.133   0.925   1.284 -0.0901 -0.1468  0.3745
11702TIP3    H156597   6.156   0.940   1.376  0.5459  2.0859 -0.0879
11702TIP3    H256598   6.085   1.004   1.258  1.7958  0.3871 -1.8281
11703TIP3   OH256599   0.263   4.181  15.573  0.1930  0.4001 -0.1666
11703TIP3    H156600   0.225   4.258  15.532  0.2340  0.0391 -0.8849
11703TIP3    H256601   0.358   4.190  15.560  0.2381  0.4764  0.1906
11704TIP3   OH256602   2.220   4.153  15.514  0.0746  0.1633 -0.8058
11704TIP3    H156603   2.295   4.213  15.508  2.3837 -2.4650 -0.3049
11704TIP3    H256604   2.229   4.096  15.438  0.6498 -2.3231  1.0069
11705TIP3   OH256605   5.978   1.210   1.467  0.2090  0.0158 -0.7063
11705TIP3    H156606   5.936   1.135   1.510 -1.4720  0.8632 -0.8079
11705TIP3    H256607   5.960   1.197   1.374 -0.0060  0.4963 -0.7327
11706TIP3   OH256608   1.394   3.208   4.880  0.3081  0.1933  0.4338
11706TIP3    H156609   1.484   3.184   4.905  1.1391  1.9140 -0.6681
11706TIP3    H256610   1.380   3.293   4.922 -0.2192  0.6303 -0.5761
11707TIP3   OH256611   6.358   5.509  11.277  0.3747 -0.2734  0.1828
11707TIP3    H156612   6.343   5.508  11.182 -0.1120 -1.1815  0.2598
11707TIP3    H256613   6.352   5.601  11.301 -1.2083 -0.1773 -0.4232
11708TIP3   OH256614   0.982   5.743   6.229 -0.2754 -0.1656 -0.0317
11708TIP3    H156615   0.987   5.651   6.256 -0.5151 -0.3892 -0.7302
11708TIP3    H256616   1.058   5.784   6.271  1.7435 -1.3621 -2.2636
11709TIP3   OH256617   2.157   1.624  14.833  0.5575 -0.4745 -0.0105
11709TIP3    H156618   2.230   1.668  14.789 -0.7534  0.3973 -1.3973
11709TIP3    H256619   2.083   1.685  14.823 -0.3756 -1.3357  1.3424
11710TIP3   OH256620   5.851   4.043  15.307 -0.6702 -0.1333 -0.3571
11710TIP3    H156621   5.778   4.095  15.272 -0.3900  0.3856 -0.1833
11710TIP3    H256622   5.812   3.989  15.375 -0.9909 -0.2398 -0.6233
11711TIP3   OH256623   6.254   4.720  16.602 -0.4380 -0.1236 -0.4256
11711TIP3    H156624   6.338   4.685  16.632  0.8533  0.2942 -3.2058
11711TIP3    H256625   6.189   4.667  16.647  1.3003 -0.9545  1.2771
11712TIP3   OH256626   1.113   2.364   3.657  0.5177 -0.1687 -0.1012
11712TIP3    H156627   1.058   2.433   3.695 -1.5479 -0.9941 -1.4030
11712TIP3    H256628   1.091   2.286   3.708  0.8864 -0.4078 -0.3055
11713TIP3   OH256629   0.988   3.399  13.962  0.4806  0.1567 -0.1866
11713TIP3    H156630   1.034   3.324  13.923 -2.1227 -2.0258  0.5736
11713TIP3    H256631   0.895   3.375  13.955 -0.4058  2.8481  1.1551
11714TIP3   OH256632   4.925   2.944  14.406  0.5701  0.1374  0.1966
11714TIP3    H156633   4.995   2.989  14.358 -0.5874  0.0173 -1.7336
11714TIP3    H256634   4.931   2.853  14.376  2.0988 -0.8394  3.1197
11715TIP3   OH256635   6.554   0.261   3.198 -0.4645 -0.3603  0.7722
11715TIP3    H156636   6.593   0.197   3.258  1.5721 -0.5050 -0.6014
11715TIP3    H256637   6.517   0.208   3.128 -0.6923 -0.1105  0.7056
11716TIP3   OH256638   0.801   3.801  11.512  0.0573  0.2318  0.2440
11716TIP3    H156639   0.815   3.749  11.591 -0.7076 -0.3130  0.0443
11716TIP3    H256640   0.816   3.739  11.440 -0.5904  0.3446 -0.0020
11717TIP3   OH256641   0.356   6.724   2.115 -0.5156 -0.5269  0.2910
11717TIP3    H156642   0.402   6.660   2.169  0.3954  1.5148  2.1007
11717TIP3    H256643   0.280   6.749   2.168 -0.5412  0.2861 -0.1098
11718TIP3   OH256644   6.124   2.182  16.142  0.4364  0.0095 -0.0595
11718TIP3    H156645   6.125   2.258  16.200 -2.0829  2.1395 -2.4718
11718TIP3    H256646   6.040   2.139  16.161 -0.8662  1.2619 -2.5093
11719TIP3   OH256647   6.767   2.760  11.171 -0.0740  0.2781 -0.5006
11719TIP3    H156648   6.849   2.785  11.129  0.7102 -0.2390  0.6658
11719TIP3    H256649   6.757   2.824  11.242 -1.0073  0.7096 -1.0066
11720TIP3   OH256650   4.368   1.275  15.841  0.9998 -0.2581  0.2867
11720TIP3    H156651   4.445   1.267  15.897  0.2253  1.2750  1.6669
11720TIP3    H256652   4.376   1.204  15.778  3.9017  0.2841 -0.0877
11721TIP3   OH256653   4.372   1.292  12.672 -0.4275 -0.4388  0.0239
11721TIP3    H156654   4.351   1.274  12.580  0.3092  0.9181 -0.4424
11721TIP3    H256655   4.322   1.371  12.693  0.3845 -0.0084  0.3860
11722TIP3   OH256656   5.332   6.804  14.260 -0.0800  0.2244 -0.6907
11722TIP3    H156657   5.236   6.809  14.268 -0.0624  0.6760 -0.7231
11722TIP3    H256658   5.350   6.836  14.172  0.0863 -0.0718 -0.7633
11723TIP3   OH256659   0.551   4.896   5.770  0.3618 -0.0394 -0.1843
11723TIP3    H156660   0.597   4.959   5.715  0.9227 -0.2222  0.0629
11723TIP3    H256661   0.460   4.923   5.767  0.7851  1.7234  1.1376
11724TIP3   OH256662   1.600   1.642  14.593 -0.0457 -0.2819 -1.1934
11724TIP3    H156663   1.693   1.634  14.571  0.4083  2.2914 -0.5842
11724TIP3    H256664   1.561   1.685  14.517  0.0174  1.7156 -0.1831
11725TIP3   OH256665   4.424   3.977   3.092  0.3531  0.2426 -0.2059
11725TIP3    H156666   4.390   3.890   3.114  2.1453 -0.7770 -1.2081
11725TIP3    H256667   4.385   4.035   3.157 -2.6881 -0.8882 -0.8657
11726TIP3   OH256668   0.256   4.137  13.846 -0.7613  1.0595  0.3458
11726TIP3    H156669   0.295   4.054  13.872  1.8693  1.0735 -2.9153
11726TIP3    H256670   0.311   4.203  13.886  0.8414  1.0860 -1.7261
11727TIP3   OH256671   3.647   3.350   0.830  0.5432 -0.3077  0.6780
11727TIP3    H156672   3.597   3.381   0.754 -0.9955 -0.3651  1.6291
11727TIP3    H256673   3.715   3.294   0.793  0.6511  0.7154 -0.7445
11728TIP3   OH256674   0.486   1.225   5.907 -0.0891 -0.2440  0.3582
11728TIP3    H156675   0.456   1.165   5.975  1.9532 -0.7539  0.8763
11728TIP3    H256676   0.560   1.271   5.946  3.2125 -2.7008 -2.3123
11729TIP3   OH256677   4.050   1.340   5.429  0.1838  0.5930 -0.7552
11729TIP3    H156678   4.091   1.411   5.380  2.4670  0.0416  0.2193
11729TIP3    H256679   4.117   1.270   5.431 -0.3935  0.0102  1.7532
11730TIP3   OH256680   4.949   5.767  12.652 -0.4647  0.3313  0.4500
11730TIP3    H156681   4.976   5.778  12.743  0.7826 -0.1502  0.1564
11730TIP3    H256682   4.921   5.676  12.645 -2.8947  0.9599  0.8950
11731TIP3   OH256683   1.355   0.325   4.944 -0.4028  0.7306 -0.1228
11731TIP3    H156684   1.271   0.285   4.967  0.4210 -0.7231  0.5510
11731TIP3    H256685   1.342   0.361   4.857 -1.4417 -0.3826 -0.4538
11732TIP3   OH256686   2.993   0.166  10.872 -0.0333  0.0765 -0.1805
11732TIP3    H156687   3.086   0.164  10.894 -0.3695 -0.7161  1.3567
11732TIP3    H256688   2.972   0.074  10.853 -0.5658  0.2113 -0.2468
11733TIP3   OH256689   0.705   1.452   1.894  0.5398  0.0349  0.0021
11733TIP3    H156690   0.797   1.453   1.922  1.4856 -1.3359 -2.6836
11733TIP3    H256691   0.686   1.359   1.878 -0.8054  0.4461 -1.0133
11734TIP3   OH256692   2.956   1.757  16.738  0.4862  0.0157 -0.4306
11734TIP3    H156693   2.866   1.754  16.772  0.6372 -1.1434 -0.0729
11734TIP3    H256694   3.000   1.684  16.782  1.6436  0.6526 -0.5037
11735TIP3   OH256695   0.622   3.412  14.631 -0.0214  0.3626 -0.0418
11735TIP3    H156696   0.620   3.500  14.667  2.0040 -0.0430  1.2554
11735TIP3    H256697   0.711   3.401  14.599 -0.1897 -1.2392 -0.0598
11736TIP3   OH256698   6.750   2.737  11.583  0.0880 -0.5709  0.0870
11736TIP3    H156699   6.753   2.796  11.659 -0.3518 -0.2392 -0.1514
11736TIP3    H256700   6.718   2.792  11.511  1.4199 -0.6202 -0.5788
11737TIP3   OH256701   5.449   2.035   4.351 -0.3505 -0.3040  0.5614
11737TIP3    H156702   5.473   2.066   4.438 -0.8872 -1.7377  1.2600
11737TIP3    H256703   5.408   2.110   4.308  4.7453  2.2711 -0.6120
11738TIP3   OH256704   3.734   5.505   0.650  0.1829 -0.2296 -0.2629
11738TIP3    H156705   3.711   5.452   0.726  1.6891  0.2506  0.5742
11738TIP3    H256706   3.700   5.592   0.670  1.3412  0.1161  0.3020
11739TIP3   OH256707   0.631   3.453   0.341  0.4803  0.1372 -0.0709
11739TIP3    H156708   0.624   3.450   0.246  1.7509  0.9919 -0.2126
11739TIP3    H256709   0.586   3.534   0.366 -0.8403 -0.6425  0.1893
11740TIP3   OH256710   0.743   0.625   1.300  0.2886  0.2260  0.3435
11740TIP3    H156711   0.726   0.541   1.258  1.5656  0.3637 -0.4840
11740TIP3    H256712   0.662   0.675   1.288 -0.0533 -0.4525 -0.2005
11741TIP3   OH256713   5.736   0.345   1.082 -0.1822 -0.1756  0.1288
11741TIP3    H156714   5.831   0.335   1.086 -0.3624 -2.5400 -0.0891
11741TIP3    H256715   5.705   0.313   1.166 -0.8645 -0.9255 -0.3960
11742TIP3   OH256716   0.298   3.607  14.081 -0.5408  0.2754  0.4692
11742TIP3    H156717   0.256   3.526  14.053 -1.3276  1.3541 -1.6805
11742TIP3    H256718   0.391   3.586  14.082 -0.5603 -0.2171 -1.9174
11743TIP3   OH256719   2.457   2.874   2.747 -0.2908  0.4230  0.3498
11743TIP3    H156720   2.372   2.892   2.707 -0.7464  0.1985  1.1876
11743TIP3    H256721   2.499   2.813   2.687 -0.2710  1.3738 -0.6178
11744TIP3   OH256722   5.182   5.060   1.339 -0.0347  0.1363 -0.6027
11744TIP3    H156723   5.271   5.090   1.357 -0.4400  0.6105  0.7224
11744TIP3    H256724   5.144   5.042   1.425 -1.3689  0.3637 -1.1135
11745TIP3   OH256725   5.125   4.639   2.300  0.8856  0.1254 -0.1681
11745TIP3    H156726   5.107   4.608   2.211  1.0903  1.1387 -0.5795
11745TIP3    H256727   5.180   4.716   2.288 -0.5543  1.3600  0.7260
11746TIP3   OH256728   4.171   2.337  13.952 -0.1969  0.0361 -0.2981
11746TIP3    H156729   4.216   2.289  14.022 -1.4083  0.6377  0.9323
11746TIP3    H256730   4.090   2.368  13.992 -1.2258 -0.1154 -2.1599
11747TIP3   OH256731   1.353   4.519   1.368 -0.1415 -0.2748 -0.3461
11747TIP3    H156732   1.359   4.433   1.325  0.0459 -0.6249  0.3747
11747TIP3    H256733   1.403   4.578   1.311  1.5164 -1.0688  0.2453
11748TIP3   OH256734   4.238   5.320   3.972  0.0487 -0.2810 -0.1371
11748TIP3    H156735   4.164   5.377   3.949 -0.1809 -0.7568 -0.5730
11748TIP3    H256736   4.312   5.357   3.924  0.1723  0.3810  0.5359
11749TIP3   OH256737   0.835   4.958  15.982  0.3637 -0.1479  0.4804
11749TIP3    H156738   0.922   4.920  15.969  1.4470  2.6309 -1.6291
11749TIP3    H256739   0.847   5.051  15.962 -2.6212  0.8213  2.5392
11750TIP3   OH256740   0.710   3.003  12.820  0.3458 -0.2456  0.4291
11750TIP3    H156741   0.741   2.929  12.768  0.1476 -1.5435  2.0702
11750TIP3    H256742   0.778   3.016  12.886 -1.4473 -1.7927  2.7962
11751TIP3   OH256743   2.076   3.726   2.654  0.0772 -0.5464  0.1523
11751TIP3    H156744   2.101   3.689   2.739 -0.5066 -1.4360 -0.0478
11751TIP3    H256745   2.008   3.790   2.675  0.3919 -0.2943  0.4140
11752TIP3   OH256746   5.895   0.246   1.903  0.8362  0.2065 -0.1536
11752TIP3    H156747   5.918   0.334   1.873 -1.2564  0.8319 -0.0859
11752TIP3    H256748   5.970   0.217   1.953  1.5594  1.9714 -0.1507
11753TIP3   OH256749   2.645   3.429  13.925  0.4211  0.4069 -0.5513
11753TIP3    H156750   2.676   3.386  13.846  2.4991  0.7141  0.0448
11753TIP3    H256751   2.662   3.522  13.911 -0.2324  0.5932 -0.1772
11754TIP3   OH256752   4.792   3.090   4.129 -0.4844 -0.2351 -0.0119
11754TIP3    H156753   4.733   3.137   4.188  0.3705  0.1894  0.5312
11754TIP3    H256754   4.843   3.032   4.186  0.8146  0.6561 -0.2204
11755TIP3   OH256755   4.816   3.207  13.045 -0.2524 -0.1611  0.5366
11755TIP3    H156756   4.800   3.300  13.064 -0.8299  0.3864 -2.2695
11755TIP3    H256757   4.908   3.204  13.016  0.1220 -0.7006  1.7135
11756TIP3   OH256758   4.010   0.301  13.240 -0.2699 -0.0122  0.1496
11756TIP3    H156759   3.938   0.349  13.281  0.3242 -0.0145  1.2370
11756TIP3    H256760   4.004   0.213  13.278 -0.5663 -0.4321 -0.8490
11757TIP3   OH256761   1.416   4.091  15.007  0.0053 -0.6717 -0.0863
11757TIP3    H156762   1.402   4.171  15.057  0.4622  1.7102 -3.3926
11757TIP3    H256763   1.493   4.051  15.047  0.2152  0.9442  1.2416
11758TIP3   OH256764   4.879   3.459  16.379  0.2078  0.0343  0.2465
11758TIP3    H156765   4.908   3.549  16.365 -1.4207  0.2062 -3.1856
11758TIP3    H256766   4.940   3.406  16.328 -1.8989 -0.1400 -2.3141
11759TIP3   OH256767   2.966   5.548   3.371  0.4320 -0.1673 -0.8049
11759TIP3    H156768   2.897   5.574   3.310  0.5564 -0.7299 -1.1925
11759TIP3    H256769   3.000   5.466   3.335  1.2890  0.0980 -0.6060
11760TIP3   OH256770   1.433   6.397   4.225 -0.5404 -0.3946  0.2140
11760TIP3    H156771   1.411   6.323   4.168 -1.1322  0.0392 -0.1331
11760TIP3    H256772   1.496   6.361   4.288 -0.4703 -1.0736 -0.2337
11761TIP3   OH256773   6.125   4.186   1.292  0.3521  0.1926  0.4478
11761TIP3    H156774   6.189   4.236   1.242  2.3969 -1.5170  1.2119
11761TIP3    H256775   6.057   4.163   1.229  1.2010  0.8311 -0.7241
11762TIP3   OH256776   0.023   1.771   5.362  0.1027  0.0017 -0.1993
11762TIP3    H156777  -0.019   1.739   5.282 -0.1910 -0.0586 -0.0221
11762TIP3    H256778   0.072   1.696   5.395 -0.5920 -0.2754  0.2204
11763TIP3   OH256779   1.441   5.968   2.275  0.2562  0.3107 -0.5069
11763TIP3    H156780   1.478   5.939   2.192 -0.7812  0.2189 -0.9487
11763TIP3    H256781   1.416   6.059   2.260  0.8432  0.5606 -0.0198
11764TIP3   OH256782   4.793   0.662  14.114 -0.4602  0.7586  0.6897
11764TIP3    H156783   4.861   0.671  14.180 -0.9285  0.6626  1.1994
11764TIP3    H256784   4.834   0.615  14.042 -0.2840 -0.2902  1.4472
11765TIP3   OH256785   2.511   5.848  12.048 -0.0435 -0.1684 -0.2318
11765TIP3    H156786   2.598   5.854  12.008 -0.2737  0.0580 -0.7161
11765TIP3    H256787   2.525   5.798  12.128  0.8165  1.2360  0.5362
11766TIP3   OH256788   4.952   5.043   0.471 -0.4455 -0.6896  0.2206
11766TIP3    H156789   4.890   5.113   0.452 -0.5352 -0.9357 -0.4285
11766TIP3    H256790   5.032   5.088   0.497 -0.7127 -0.3594  0.4725
11767TIP3   OH256791   5.558   6.012   4.229 -0.2800  0.3982  0.5376
11767TIP3    H156792   5.480   6.057   4.262 -0.1062  1.2363 -0.1709
11767TIP3    H256793   5.630   6.044   4.284 -0.2737  0.4027  0.5269
11768TIP3   OH256794   2.298   3.447  12.594  0.0485  0.2105 -0.0658
11768TIP3    H156795   2.204   3.428  12.602 -0.0566  1.3986  2.2336
11768TIP3    H256796   2.341   3.383  12.651  0.1682  2.5231  2.6797
11769TIP3   OH256797   4.742   4.673  10.921  0.3804  0.6399  0.0608
11769TIP3    H156798   4.797   4.743  10.884 -0.0653  1.6754  1.2876
11769TIP3    H256799   4.793   4.639  10.994  0.6596 -0.4572 -0.6226
11770TIP3   OH256800   5.168   1.461  13.016 -0.0536  0.0960  0.2934
11770TIP3    H156801   5.229   1.422  13.078 -0.5669 -1.0187  0.1361
11770TIP3    H256802   5.094   1.490  13.070 -1.0141 -1.8897  0.1601
11771TIP3   OH256803   2.089   0.689  14.624 -0.4481  0.2283 -0.5361
11771TIP3    H156804   2.151   0.622  14.653 -0.9064  0.5271  1.2443
11771TIP3    H256805   2.013   0.639  14.593 -0.3662 -0.1005 -0.2138
11772TIP3   OH256806   1.015   1.023   0.290  0.3657 -0.4285 -0.5958
11772TIP3    H156807   0.951   1.093   0.275 -0.7756 -1.2845  0.1147
11772TIP3    H256808   1.098   1.069   0.301 -0.5067  0.9319  0.8379
11773TIP3   OH256809   3.916   6.679  15.354  0.1745 -0.0908  0.2097
11773TIP3    H156810   3.837   6.734  15.358  1.1423  1.2909  1.5079
11773TIP3    H256811   3.950   6.680  15.444  1.8890 -0.3090 -0.4036
11774TIP3   OH256812   5.195   0.641   3.763  0.3487 -0.1550 -0.2094
11774TIP3    H156813   5.259   0.642   3.834  1.3145 -1.2398 -1.0204
11774TIP3    H256814   5.127   0.581   3.792 -0.0328  0.5720  0.4232
11775TIP3   OH256815   5.471   0.195   4.108  0.0381  0.1405 -0.1471
11775TIP3    H156816   5.487   0.279   4.150  1.9898 -0.1732 -0.1816
11775TIP3    H256817   5.489   0.130   4.176  0.0047 -0.2910 -0.5412
11776TIP3   OH256818   3.455   3.209  14.175  0.3452  0.4812  0.2912
11776TIP3    H156819   3.543   3.186  14.146  0.1551  0.7285 -0.4965
11776TIP3    H256820   3.415   3.125  14.198  0.0365  0.1008 -1.5016
11777TIP3   OH256821   3.858   2.074   0.324  0.7297 -0.6025 -0.2753
11777TIP3    H156822   3.953   2.088   0.331  0.7168 -1.2647  2.1947
11777TIP3    H256823   3.849   2.009   0.255  2.0106 -0.0045 -1.0413
11778TIP3   OH256824   6.072   1.168  14.157 -0.1602 -0.0177 -0.5874
11778TIP3    H156825   6.083   1.073  14.152 -1.7646 -0.2388 -0.5601
11778TIP3    H256826   6.161   1.203  14.156  0.4837 -1.5465  0.0513
11779TIP3   OH256827   5.786   4.950   0.743 -0.0893  0.1880  0.2304
11779TIP3    H156828   5.861   4.993   0.784  0.6203 -0.8678  0.0785
11779TIP3    H256829   5.770   4.873   0.797  0.5584 -0.9678 -1.1433
11780TIP3   OH256830   4.784   5.801   1.822  0.2933 -0.1821 -0.0272
11780TIP3    H156831   4.809   5.732   1.760  1.0408  1.5908 -1.7780
11780TIP3    H256832   4.865   5.828   1.863  0.2463  0.7583 -0.5411
11781TIP3   OH256833   2.019   0.425   3.309 -0.4547  0.5422  0.0176
11781TIP3    H156834   1.927   0.412   3.330 -0.9675  0.6969 -1.9468
11781TIP3    H256835   2.058   0.338   3.316 -1.1996  0.0970 -1.0262
11782TIP3   OH256836   0.305   1.163  14.632 -0.0910  0.2036  0.4032
11782TIP3    H156837   0.315   1.183  14.725  1.2394  1.1200  0.0966
11782TIP3    H256838   0.360   1.086  14.619  0.2524  0.4758  0.2464
11783TIP3   OH256839   6.297   0.740   2.198 -0.3481  0.3644 -1.0125
11783TIP3    H156840   6.346   0.680   2.254 -0.0208 -0.5119 -2.1893
11783TIP3    H256841   6.295   0.823   2.246 -1.3262 -0.7250  0.9482
11784TIP3   OH256842   0.946   5.508  16.197 -0.0455 -0.5308 -0.0041
11784TIP3    H156843   0.967   5.596  16.164  1.1360 -0.5347  0.6953
11784TIP3    H256844   0.928   5.457  16.118  1.7119 -0.2751 -0.6025
11785TIP3   OH256845   1.706   2.035  14.444 -0.1340 -0.2293  0.9280
11785TIP3    H156846   1.667   2.073  14.522  0.3539  1.4025  0.4178
11785TIP3    H256847   1.756   2.107  14.404 -0.2639 -1.0402 -0.8063
11786TIP3   OH256848   5.311   2.254  13.891 -0.3716 -0.1315 -0.1881
11786TIP3    H156849   5.311   2.161  13.916 -0.7008 -0.2788 -0.7398
11786TIP3    H256850   5.314   2.254  13.796  1.2985  0.4369 -0.1788
11787TIP3   OH256851   3.462   1.489  12.110 -0.6394 -0.3949  0.3069
11787TIP3    H156852   3.476   1.432  12.035 -1.1887  0.2998 -0.3407
11787TIP3    H256853   3.387   1.452  12.156  0.4973 -1.5824  1.2899
11788TIP3   OH256854   5.347   1.927  12.929  0.2701  0.4090  0.5741
11788TIP3    H156855   5.414   1.858  12.924  1.2630  1.4021 -0.3471
11788TIP3    H256856   5.267   1.885  12.897  0.7717 -0.4129  0.3596
11789TIP3   OH256857   1.600   1.048  13.427 -0.3385  0.1737  0.4695
11789TIP3    H156858   1.588   1.023  13.518 -0.0063 -2.8226 -0.2187
11789TIP3    H256859   1.565   0.975  13.377 -0.7198  1.8149 -1.8581
11790TIP3   OH256860   3.014   0.895  11.572  0.5650  0.4393  0.0200
11790TIP3    H156861   2.921   0.885  11.555  0.6092  0.0834 -0.0138
11790TIP3    H256862   3.028   0.990  11.572  0.2814  0.4850 -0.3868
11791TIP3   OH256863   6.737   1.623   5.171  0.4871 -0.2596 -0.7997
11791TIP3    H156864   6.653   1.657   5.141  0.7132 -0.0351 -1.1908
11791TIP3    H256865   6.715   1.551   5.230  0.0068  0.3493 -0.2230
11792TIP3   OH256866   5.603   1.167   6.542  0.4998  0.7800 -0.2628
11792TIP3    H156867   5.570   1.083   6.513  0.8219  0.3430  0.5889
11792TIP3    H256868   5.690   1.148   6.578  0.8300  1.5717 -0.6045
11793TIP3   OH256869   3.927   0.049   2.219 -0.4570  0.3892 -0.1780
11793TIP3    H156870   3.972   0.001   2.288 -0.4652  1.8216  0.8726
11793TIP3    H256871   3.989   0.050   2.146  1.0718  1.8979  1.0703
11794TIP3   OH256872   6.326   2.626   4.308 -0.0982  0.4624  0.0858
11794TIP3    H156873   6.251   2.672   4.345  2.0990  3.7287  0.8973
11794TIP3    H256874   6.327   2.542   4.354 -2.9849  0.4716  0.3108
11795TIP3   OH256875   4.077   1.600  11.529 -0.3899  0.5682  0.2192
11795TIP3    H156876   4.099   1.624  11.619 -0.3281 -0.4516  0.4894
11795TIP3    H256877   3.998   1.651  11.509 -0.2979  0.9394  0.7857
11796TIP3   OH256878   4.544   4.649   5.032 -0.5774 -0.0909  0.7404
11796TIP3    H156879   4.465   4.704   5.037 -0.2879  0.5038 -0.5830
11796TIP3    H256880   4.613   4.703   5.071 -0.4453  0.1990  0.1215
11797TIP3   OH256881   0.304   6.363   0.537  0.3482  0.0959 -0.3300
11797TIP3    H156882   0.290   6.315   0.456 -2.2715  0.7654 -0.3636
11797TIP3    H256883   0.235   6.429   0.538  3.2538  3.4741  0.0575
11798TIP3   OH256884   2.044   5.583   4.431  0.1223 -0.0789  0.4248
11798TIP3    H156885   1.975   5.618   4.488  1.8465  0.1621  2.5261
11798TIP3    H256886   2.101   5.658   4.415 -0.0032 -0.3022 -1.1758
11799TIP3   OH256887   5.332   1.923  11.293  0.1881  0.1504 -0.2579
11799TIP3    H156888   5.365   2.012  11.298 -1.0617  0.6224 -0.1446
11799TIP3    H256889   5.390   1.872  11.349 -0.2300  1.2417  1.1987
11800TIP3   OH256890   4.249   5.494   5.940  0.3543 -0.0381  0.1572
11800TIP3    H156891   4.188   5.553   5.896 -0.2465  1.0082  2.2312
11800TIP3    H256892   4.197   5.415   5.958  0.6208 -0.4967 -0.9844
11801TIP3   OH256893   5.001   0.726  14.304  0.0485 -0.4634 -0.1814
11801TIP3    H156894   5.028   0.817  14.289 -0.5727 -0.4671 -1.5021
11801TIP3    H256895   5.005   0.715  14.399  0.8643  0.7089 -0.0588
11802TIP3   OH256896   1.341   5.217   4.875  0.0362  0.1694 -0.1873
11802TIP3    H156897   1.378   5.299   4.908 -0.9000  0.4814  0.1316
11802TIP3    H256898   1.364   5.151   4.940  0.9181  0.1410 -0.5174
11803TIP3   OH256899   5.688   1.810  13.968 -0.1727 -0.4694  0.0177
11803TIP3    H156900   5.647   1.737  14.013  1.0263 -1.5390 -0.5532
11803TIP3    H256901   5.692   1.783  13.876 -1.1563  1.0079 -0.5113
11804TIP3   OH256902   1.597   6.355   5.631 -0.0485 -0.0016 -0.4436
11804TIP3    H156903   1.690   6.375   5.617  0.1981 -0.3782  0.5373
11804TIP3    H256904   1.580   6.278   5.577  0.8448 -1.3732  1.1161
11805TIP3   OH256905   1.775   2.099  10.870 -0.5250 -0.4925 -0.2555
11805TIP3    H156906   1.760   2.109  10.776  1.0024 -0.2917 -0.5134
11805TIP3    H256907   1.854   2.151  10.887 -0.7329 -0.5812  1.1345
11806TIP3   OH256908   2.685   0.414   0.219  0.5380 -0.0032  0.5120
11806TIP3    H156909   2.661   0.489   0.274 -1.3302 -0.5649  0.5333
11806TIP3    H256910   2.611   0.354   0.227  1.8912 -1.7770  0.3232
11807TIP3   OH256911   4.461   5.972  14.933 -0.6361 -0.1562  0.0457
11807TIP3    H156912   4.410   5.963  15.013 -1.1871 -2.0337 -0.4727
11807TIP3    H256913   4.542   5.924  14.950 -0.2800  0.3686 -0.1401
11808TIP3   OH256914   1.776   0.204  15.354 -0.5555 -0.4445  0.0203
11808TIP3    H156915   1.773   0.252  15.272 -1.0652 -1.6172 -0.6836
11808TIP3    H256916   1.751   0.267  15.421 -0.8885  0.3369 -0.8283
11809TIP3   OH256917   2.844   0.338  16.257  0.3998 -0.0179  0.0078
11809TIP3    H156918   2.867   0.406  16.320  1.4211 -1.3505  1.1354
11809TIP3    H256919   2.818   0.263  16.310 -3.0172  0.1349 -1.1950
11810TIP3   OH256920   5.254   4.299  16.648 -0.5396 -0.6646  0.6971
11810TIP3    H156921   5.323   4.235  16.633 -0.3763 -0.4805  0.6627
11810TIP3    H256922   5.269   4.330  16.738 -0.7659 -0.8524  0.8010
11811TIP3   OH256923   6.502   3.489  11.546 -1.0492  0.0566 -0.7419
11811TIP3    H156924   6.454   3.557  11.592 -1.5686 -1.2114  0.6637
11811TIP3    H256925   6.453   3.476  11.464 -1.7322  0.4115 -0.3945
11812TIP3   OH256926   4.338   5.268  14.270 -0.3188  0.5289 -0.4646
11812TIP3    H156927   4.354   5.284  14.177  0.3538  0.3006 -0.3953
11812TIP3    H256928   4.288   5.345  14.299  0.0739  0.9452 -0.8593
11813TIP3   OH256929   3.065   4.687   1.328 -0.1453 -0.3575 -0.1244
11813TIP3    H156930   3.023   4.772   1.340  0.3503  0.0113 -0.9035
11813TIP3    H256931   3.104   4.667   1.413  0.2505  0.4879 -0.0948
11814TIP3   OH256932   2.330   4.784  14.709 -0.0764 -0.2817  0.0692
11814TIP3    H156933   2.340   4.800  14.803  2.2605 -0.7619 -0.0436
11814TIP3    H256934   2.298   4.867  14.674  1.1570  0.6078  0.9973
11815TIP3   OH256935   0.359   6.059   5.320 -0.1627  0.2891 -0.5264
11815TIP3    H156936   0.410   6.095   5.247 -0.6654  0.0871 -0.9760
11815TIP3    H256937   0.352   5.965   5.300  2.8863 -0.5637  1.6350
11816TIP3   OH256938   5.616   3.379   1.995  0.9988 -0.1254 -0.0450
11816TIP3    H156939   5.543   3.317   1.985  0.3030  0.6064  0.3197
11816TIP3    H256940   5.653   3.357   2.080  0.9054 -0.1940 -0.0209
11817TIP3   OH256941   1.982   3.759  11.104 -0.5012  0.1639  0.2023
11817TIP3    H156942   2.068   3.718  11.106  0.8152  2.6800  3.0787
11817TIP3    H256943   1.989   3.826  11.036 -0.4373 -0.0018  0.0417
11818TIP3   OH256944   4.757   5.717   2.893  0.6883  0.5199 -0.3066
11818TIP3    H156945   4.695   5.656   2.853  0.8143  0.6125 -0.6511
11818TIP3    H256946   4.837   5.707   2.841  1.0995  0.0930  0.4009
11819TIP3   OH256947   4.798   3.805   1.282  0.3255 -0.5208 -0.3831
11819TIP3    H156948   4.717   3.756   1.269  0.8206 -0.7575 -3.1333
11819TIP3    H256949   4.770   3.896   1.292 -0.3856 -0.8887  1.5405
11820TIP3   OH256950   5.781   4.563   2.974 -0.0037 -0.0463 -0.7179
11820TIP3    H156951   5.749   4.639   3.021  1.1127  0.0645 -0.1063
11820TIP3    H256952   5.718   4.494   2.995 -0.2467  0.3444 -0.1314
11821TIP3   OH256953   0.308   2.737   3.376 -1.0038  0.0460 -0.3495
11821TIP3    H156954   0.379   2.762   3.435 -1.2425 -0.7535  0.2939
11821TIP3    H256955   0.333   2.775   3.292 -1.2356  2.2225  0.5071
11822TIP3   OH256956   6.762   4.437  11.657  0.0735 -0.8697 -0.3812
11822TIP3    H156957   6.690   4.437  11.593 -0.9614 -0.5810  0.7483
11822TIP3    H256958   6.822   4.371  11.624 -0.6386 -1.0302 -1.4312
11823TIP3   OH256959   3.681   1.305  14.789 -0.0268  0.3485 -0.1115
11823TIP3    H156960   3.630   1.240  14.740 -0.7014  2.9363 -3.1584
11823TIP3    H256961   3.771   1.272  14.785 -0.5082 -1.0323 -0.3665
11824TIP3   OH256962   4.671   0.904  12.524 -0.3203 -0.3524  0.2825
11824TIP3    H156963   4.742   0.966  12.510 -0.2662 -0.2568  0.9474
11824TIP3    H256964   4.651   0.910  12.617  0.5824 -2.2967  0.6576
11825TIP3   OH256965   4.381   2.518   4.929  0.0742  0.5640 -0.7650
11825TIP3    H156966   4.457   2.574   4.913  0.7442 -0.4756 -1.2827
11825TIP3    H256967   4.411   2.455   4.994 -0.0425 -0.4292 -1.6568
11826TIP3   OH256968   3.155   0.689   3.814 -0.0933  0.2915 -0.0732
11826TIP3    H156969   3.094   0.729   3.752 -0.7558  0.3384  0.6063
11826TIP3    H256970   3.235   0.741   3.805 -1.3899  2.8497  1.8995
11827TIP3   OH256971   2.967   2.259  17.148 -0.1053  0.4958  0.4196
11827TIP3    H156972   2.908   2.278  17.075  2.2427  0.6416 -1.5603
11827TIP3    H256973   3.011   2.177  17.123  0.2535  0.1705  2.0208
11828TIP3   OH256974   6.023   1.103  12.651 -0.3272 -0.9100  0.2499
11828TIP3    H156975   6.082   1.148  12.712 -0.9678  0.5522 -0.1602
11828TIP3    H256976   5.937   1.112  12.691 -0.5567 -1.1679 -0.1851
11829TIP3   OH256977   3.510   0.990   3.150  0.3405  0.0082  0.0049
11829TIP3    H156978   3.464   0.951   3.076 -0.5605 -0.1570  0.6242
11829TIP3    H256979   3.545   0.916   3.199  1.8948  0.1547 -0.8154
11830TIP3   OH256980   6.454   5.511  14.074  0.0928  0.6471  0.0300
11830TIP3    H156981   6.378   5.470  14.033  0.4987  0.6866 -0.7775
11830TIP3    H256982   6.444   5.491  14.168 -0.0791 -0.7093 -0.2530
11831TIP3   OH256983   0.396   4.194  14.209  0.0022  0.1866  0.4162
11831TIP3    H156984   0.360   4.110  14.237  1.5248 -0.1034  1.6322
11831TIP3    H256985   0.339   4.259  14.249 -0.6778 -0.2514  0.1825
11832TIP3   OH256986   0.265   5.958  14.712 -0.4135 -0.0319  0.2116
11832TIP3    H156987   0.343   5.944  14.767 -0.2483 -1.0122 -0.2547
11832TIP3    H256988   0.193   5.961  14.775 -0.1977 -0.9078  0.5309
11833TIP3   OH256989   1.284   2.610  13.242  0.6275 -0.3227  0.1885
11833TIP3    H156990   1.337   2.531  13.233  2.6414  0.9331  0.2048
11833TIP3    H256991   1.318   2.653  13.321  0.8674  1.4258 -0.8105
11834TIP3   OH256992   4.609   5.135   1.252 -0.4647  0.4938 -0.4471
11834TIP3    H156993   4.682   5.081   1.283 -1.6688 -1.2813 -0.5420
11834TIP3    H256994   4.587   5.098   1.166 -2.4764 -0.0809  0.2643
11835TIP3   OH256995   5.263   2.606   5.026 -0.4883  0.2570 -0.0453
11835TIP3    H156996   5.225   2.680   4.979  1.2339  1.4640  0.3671
11835TIP3    H256997   5.277   2.540   4.959 -3.0046 -0.1685 -0.2514
11836TIP3   OH256998   6.772   5.837  14.266 -0.5299 -0.3384 -0.2531
11836TIP3    H156999   6.721   5.857  14.188 -3.2427 -0.3897  1.3618
11836TIP3    H257000   6.763   5.742  14.276  3.4477 -1.0833 -2.1268
11837TIP3   OH257001   0.244   5.994   0.539 -0.3288 -1.0088  0.9028
11837TIP3    H157002   0.319   5.973   0.483  0.1934 -0.3984  1.3650
11837TIP3    H257003   0.174   6.018   0.477  0.8170  1.6154  0.5127
11838TIP3   OH257004   0.991   0.593   4.623  0.2964 -0.0730  0.5451
11838TIP3    H157005   1.036   0.513   4.651 -0.7524 -1.6829 -2.0670
11838TIP3    H257006   0.930   0.612   4.695  0.8959 -1.3273  1.4263
11839TIP3   OH257007   2.168   6.069  15.003 -0.2471  0.1562 -0.2242
11839TIP3    H157008   2.096   6.030  14.952  0.2620 -1.2546  0.0763
11839TIP3    H257009   2.185   6.004  15.072  1.9685 -0.0127 -0.8746
11840TIP3   OH257010   3.487   4.042   4.751 -0.2773  0.0604 -0.9157
11840TIP3    H157011   3.499   4.119   4.696 -0.4231  0.4647 -0.3835
11840TIP3    H257012   3.525   4.066   4.836  0.3673 -0.7250 -0.9732
11841TIP3   OH257013   2.040   5.535   0.756 -0.1507 -0.6197 -0.5359
11841TIP3    H157014   2.057   5.617   0.802 -0.5499 -1.0258  0.3597
11841TIP3    H257015   2.078   5.548   0.669 -0.0948  0.4637 -0.3657
11842TIP3   OH257016   1.957   3.519  12.861 -0.1896 -0.3646  0.1860
11842TIP3    H157017   1.932   3.570  12.938  2.3900 -0.8951  1.5016
11842TIP3    H257018   2.033   3.564  12.825  0.7461 -1.9726  0.0313
11843TIP3   OH257019   2.160   2.983  11.970  0.0037 -0.0346  0.0428
11843TIP3    H157020   2.189   3.016  12.055  0.6444 -1.2560  0.3092
11843TIP3    H257021   2.240   2.975  11.918 -0.3912  0.8208 -0.7480
11844TIP3   OH257022   4.945   0.464   4.794  0.5420 -0.1321 -0.6717
11844TIP3    H157023   4.898   0.548   4.793 -1.5405 -1.1764  0.6159
11844TIP3    H257024   4.880   0.400   4.764  1.2351 -1.6264  0.8336
11845TIP3   OH257025   2.927   1.277   4.056 -0.3297  0.2025  0.3206
11845TIP3    H157026   2.898   1.323   3.976  0.1149  1.7852  1.0261
11845TIP3    H257027   2.847   1.269   4.109 -0.2279  1.1729  0.6500
11846TIP3   OH257028   2.803   0.646   2.671  0.3925  0.3388 -0.0059
11846TIP3    H157029   2.828   0.590   2.744 -1.0334 -1.2061 -0.6408
11846TIP3    H257030   2.779   0.729   2.712 -4.0838 -1.5704  1.9411
11847TIP3   OH257031   3.173   6.225  17.139 -0.2880  0.5573 -0.2453
11847TIP3    H157032   3.206   6.314  17.127  0.8654  0.1630 -0.1528
11847TIP3    H257033   3.251   6.174  17.162 -0.9160 -0.4907 -0.3882
11848TIP3   OH257034   3.141   4.899   0.495  0.9117  0.4918 -0.2682
11848TIP3    H157035   3.088   4.876   0.418  0.1109  1.6684 -0.0958
11848TIP3    H257036   3.230   4.909   0.461  0.5832  0.9092 -1.0288
11849TIP3   OH257037   5.477   3.832   4.940  0.2267  0.1849  0.7668
11849TIP3    H157038   5.424   3.753   4.929  0.4875  0.0492  0.4781
11849TIP3    H257039   5.497   3.834   5.034 -0.1517  0.1514  0.8502
11850TIP3   OH257040   1.679   3.897   4.438  0.2798  0.3957  0.1298
11850TIP3    H157041   1.670   3.806   4.410  2.1035 -0.2752  1.4807
11850TIP3    H257042   1.746   3.933   4.380  0.5961  0.4147  0.4953
11851TIP3   OH257043   4.298   4.125  13.530  0.3056  0.9193 -0.0836
11851TIP3    H157044   4.338   4.151  13.447  1.3201 -1.8732 -0.5836
11851TIP3    H257045   4.368   4.131  13.594 -0.2283  2.1509  0.4189
11852TIP3   OH257046   5.790   2.107   1.834  0.1889 -0.3397  0.6384
11852TIP3    H157047   5.778   2.057   1.915  1.4278 -1.5279  0.1282
11852TIP3    H257048   5.702   2.138   1.812 -0.6154 -2.1909  1.0616
11853TIP3   OH257049   3.603   4.740   0.891  0.3525 -0.0002 -0.0964
11853TIP3    H157050   3.590   4.711   0.800  1.3477  0.2217 -0.3153
11853TIP3    H257051   3.514   4.759   0.922  0.0038 -0.0136 -1.0439
11854TIP3   OH257052   0.318   0.134   3.810  0.4474  0.2344  0.2105
11854TIP3    H157053   0.272   0.103   3.888 -2.0336 -2.1774 -1.9824
11854TIP3    H257054   0.261   0.201   3.774  1.8634  1.7525  0.6640
11855TIP3   OH257055   6.216   1.218  16.720 -0.2944 -0.5390  0.4592
11855TIP3    H157056   6.185   1.171  16.797 -2.8057  0.1844 -0.0196
11855TIP3    H257057   6.221   1.309  16.747  0.8075 -0.5417  0.3077
11856TIP3   OH257058   3.078   0.150   2.723  0.5960  0.2686 -0.2666
11856TIP3    H157059   3.046   0.087   2.657  0.1518  1.0449 -0.8053
11856TIP3    H257060   3.020   0.226   2.714  1.1772  0.7932  0.3269
11857TIP3   OH257061   3.926   1.976  14.993  0.4928  0.6314  0.3863
11857TIP3    H157062   3.839   2.010  14.971 -0.0959 -1.0889 -0.1519
11857TIP3    H257063   3.954   1.929  14.914  0.6498 -1.2116  1.4751
11858TIP3   OH257064   5.369   6.037   4.742 -0.7034  0.3700 -0.4284
11858TIP3    H157065   5.379   5.979   4.818  0.4183 -0.1120 -0.9274
11858TIP3    H257066   5.298   5.997   4.691 -1.6982  0.8808  0.5098
11859TIP3   OH257067   5.208   3.760  13.967 -0.7960 -0.0577 -0.2816
11859TIP3    H157068   5.194   3.671  13.933 -0.5586  0.5985 -2.2436
11859TIP3    H257069   5.215   3.749  14.062 -0.4715 -2.1640 -0.5009
11860TIP3   OH257070   3.391   6.136  12.562 -0.4897  0.0813  0.4278
11860TIP3    H157071   3.359   6.124  12.473  1.2213  0.6937 -0.3191
11860TIP3    H257072   3.426   6.050  12.587  0.8879  0.3915 -0.3157
11861TIP3   OH257073   2.179   6.607   4.504 -0.4960 -0.8330  0.1148
11861TIP3    H157074   2.171   6.572   4.592 -1.8038 -0.0378  0.3359
11861TIP3    H257075   2.273   6.608   4.487 -0.1599 -0.2583  1.8162
11862TIP3   OH257076   0.105   5.682   3.474  0.5409 -0.1435 -0.1918
11862TIP3    H157077   0.171   5.643   3.416  0.2005 -0.7821 -0.1539
11862TIP3    H257078   0.134   5.773   3.484  0.5987 -0.0103 -1.3694
11863TIP3   OH257079   4.230   5.013  16.603 -0.0855 -0.1092  0.0949
11863TIP3    H157080   4.255   5.036  16.514  1.6668  0.5552  0.7163
11863TIP3    H257081   4.284   4.936  16.624  0.3517  0.4148  0.9496
11864TIP3   OH257082   0.495   1.285  10.817 -0.0436  0.8956  0.3748
11864TIP3    H157083   0.412   1.238  10.820  1.0360 -1.2257 -0.5415
11864TIP3    H257084   0.506   1.309  10.725  1.7974 -1.8078 -0.2330
11865TIP3   OH257085   0.479   4.809  15.011 -0.3177  0.4101 -0.2846
11865TIP3    H157086   0.487   4.875  14.941 -1.3996 -0.2534 -1.0714
11865TIP3    H257087   0.566   4.807  15.052  0.0097  1.6391 -0.8574
11866TIP3   OH257088   2.815   5.046   4.184 -0.1625 -0.2076  0.3579
11866TIP3    H157089   2.810   5.140   4.203  0.1246 -0.2895  0.8595
11866TIP3    H257090   2.767   5.005   4.256 -0.9380 -0.4073 -0.2594
11867TIP3   OH257091   1.275   5.781  15.542 -0.0362 -0.2555 -0.1736
11867TIP3    H157092   1.262   5.709  15.603  1.8011 -1.6663 -1.3301
11867TIP3    H257093   1.276   5.739  15.456 -0.1896  1.3442 -0.9952
11868TIP3   OH257094   1.961   2.145   6.596 -0.4635 -0.0354 -0.0986
11868TIP3    H157095   2.006   2.121   6.515 -1.8188 -1.7000 -0.4059
11868TIP3    H257096   1.972   2.070   6.653 -3.1147 -0.7243 -0.3405
11869TIP3   OH257097   1.915   2.182   6.203  0.4704  0.7111 -0.3625
11869TIP3    H157098   1.955   2.196   6.117 -0.1953  0.5037 -0.7102
11869TIP3    H257099   1.891   2.269   6.233  1.3928  0.8684 -0.0383
11870TIP3   OH257100   0.232   5.180   5.671  0.3734  0.7783  0.4389
11870TIP3    H157101   0.309   5.201   5.618 -0.3921  0.9519 -0.6411
11870TIP3    H257102   0.220   5.257   5.726  2.0379  0.0098  1.9765
11871TIP3   OH257103   1.152   6.177  16.629 -0.0486  0.1967 -0.8810
11871TIP3    H157104   1.164   6.111  16.697 -0.6288  0.7321 -0.2362
11871TIP3    H257105   1.076   6.148  16.579 -0.9536  0.8742  0.0489
11872TIP3   OH257106   4.435   4.694   6.196  0.6640 -0.1436  0.3031
11872TIP3    H157107   4.458   4.618   6.250  0.7986 -1.8296 -1.9956
11872TIP3    H257108   4.346   4.716   6.222  0.5459 -1.2210  0.8519
11873TIP3   OH257109   3.477   6.246   3.229 -0.7172 -0.5480  0.0478
11873TIP3    H157110   3.427   6.165   3.224 -0.3081 -0.8336  0.5374
11873TIP3    H257111   3.549   6.227   3.289 -0.4237  0.0739 -0.0939
11874TIP3   OH257112   5.038   0.722  13.897 -0.2403 -0.0233 -0.0482
11874TIP3    H157113   4.989   0.642  13.914  0.2403 -0.1672  0.6853
11874TIP3    H257114   4.971   0.789  13.885 -0.6711 -0.6722 -1.5121
11875TIP3   OH257115   6.663   3.148  15.514 -0.0952  0.1825  0.0665
11875TIP3    H157116   6.612   3.110  15.586  2.0734 -1.1701  0.9924
11875TIP3    H257117   6.606   3.216  15.478 -2.6346 -1.3828  0.8258
11876TIP3   OH257118   5.417   1.245   2.803  0.0142 -0.3444  0.1169
11876TIP3    H157119   5.381   1.189   2.872 -0.7256  0.6787  0.5948
11876TIP3    H257120   5.429   1.330   2.845 -0.5936  0.3392 -1.0302
11877TIP3   OH257121   6.510   4.677  16.646 -0.1719 -0.1759  0.1506
11877TIP3    H157122   6.550   4.636  16.569 -1.4019  2.9170 -2.3483
11877TIP3    H257123   6.581   4.728  16.686 -0.0098 -0.1212 -0.2004
11878TIP3   OH257124   4.959   6.118  13.777  0.2292 -0.4257 -0.0959
11878TIP3    H157125   4.937   6.211  13.784 -0.2893 -0.4016 -1.6324
11878TIP3    H257126   5.052   6.114  13.796  0.3722  0.4865 -0.5357
11879TIP3   OH257127   5.512   3.086  13.157 -0.2209 -0.7400  0.2011
11879TIP3    H157128   5.588   3.144  13.160 -1.1438  0.5804 -0.5780
11879TIP3    H257129   5.549   2.998  13.156  1.3021 -0.1356 -0.4992
11880TIP3   OH257130   3.668   2.219   2.064 -0.3301  0.5548 -0.4830
11880TIP3    H157131   3.679   2.306   2.027  0.8694  0.9354  0.6740
11880TIP3    H257132   3.573   2.207   2.069 -0.5133  1.7836 -0.6709
11881TIP3   OH257133   5.810   0.794   3.609  0.2893 -0.3307  0.6025
11881TIP3    H157134   5.827   0.702   3.587 -0.2619 -0.0689 -1.0451
11881TIP3    H257135   5.889   0.823   3.655  0.0427 -1.9001  2.1002
11882TIP3   OH257136   2.121   4.547   3.182  0.1098 -0.2654  0.6442
11882TIP3    H157137   2.161   4.520   3.265 -0.7827 -0.5212  1.0005
11882TIP3    H257138   2.044   4.596   3.208  0.0521  0.0119 -0.0418
11883TIP3   OH257139   5.088   4.795  13.598  0.1130 -0.0867  0.0777
11883TIP3    H157140   5.160   4.857  13.592 -1.4845  1.9434  0.9203
11883TIP3    H257141   5.117   4.731  13.663  0.4326  1.8104  1.9013
11884TIP3   OH257142   2.699   0.482  11.135  0.3018  0.4725 -0.2550
11884TIP3    H157143   2.625   0.424  11.116  0.4452  0.4936 -0.8961
11884TIP3    H257144   2.667   0.569  11.109  0.0529  0.7124  0.7849
11885TIP3   OH257145   4.940   1.829  10.690 -0.0596  0.3141  0.6178
11885TIP3    H157146   4.995   1.833  10.768 -0.1959  0.6002  0.6972
11885TIP3    H257147   4.983   1.888  10.627 -1.0944  1.7176  1.1891
11886TIP3   OH257148   4.810   4.004  13.322  0.1663  0.1416  0.6575
11886TIP3    H157149   4.804   4.038  13.411  0.4925  0.7386  0.4571
11886TIP3    H257150   4.780   4.076  13.266  2.8626  0.9246  0.0731
11887TIP3   OH257151   4.376   5.717   0.582 -0.0451  0.0934  0.6232
11887TIP3    H157152   4.324   5.774   0.639  0.6702 -0.1398  1.5263
11887TIP3    H257153   4.418   5.777   0.520 -0.2056  0.4293  0.8344
11888TIP3   OH257154   3.418   5.500   1.210  0.1998  0.3142 -0.5829
11888TIP3    H157155   3.397   5.588   1.242  1.8974  0.0129  1.5948
11888TIP3    H257156   3.509   5.507   1.181  1.1238 -1.1670  1.7117
11889TIP3   OH257157   0.281   0.777  11.998 -0.1873  0.1621  0.0874
11889TIP3    H157158   0.336   0.856  11.998 -0.2648  0.2353  1.1600
11889TIP3    H257159   0.336   0.711  12.040  0.2212 -0.6206 -1.6271
11890TIP3   OH257160   4.926   6.057   4.237 -0.1001  0.0180 -0.2677
11890TIP3    H157161   4.869   5.981   4.229 -0.1085 -0.0104  0.0488
11890TIP3    H257162   4.989   6.047   4.166  0.2718 -0.6065  0.1322
11891TIP3   OH257163   1.063   0.177  16.902  0.2043  0.0295 -0.0559
11891TIP3    H157164   1.040   0.108  16.964 -0.3120  0.2555  0.0112
11891TIP3    H257165   1.025   0.256  16.939  0.0499  0.2018 -0.5695
11892TIP3   OH257166   3.184   3.632   1.680  0.4737 -0.0328 -0.0711
11892TIP3    H157167   3.164   3.664   1.592  0.3773 -0.5199 -0.2264
11892TIP3    H257168   3.276   3.656   1.694  0.1621  1.0964  0.1605
11893TIP3   OH257169   3.138   3.994   3.245  0.5722  0.3119  0.5273
11893TIP3    H157170   3.148   3.908   3.203  1.1811  0.0322  1.2293
11893TIP3    H257171   3.064   4.034   3.199 -0.2697 -0.9249  0.7449
11894TIP3   OH257172   2.287   2.548   5.639  0.2187 -0.5685  0.2311
11894TIP3    H157173   2.338   2.622   5.607  1.2167 -1.8300 -1.2645
11894TIP3    H257174   2.225   2.586   5.701  1.6442  1.2991  0.6014
11895TIP3   OH257175   1.647   6.197  13.289 -0.5915  0.1452  0.2529
11895TIP3    H157176   1.556   6.189  13.261 -1.1780  1.1384  1.7631
11895TIP3    H257177   1.644   6.183  13.384  0.4357  2.6669  0.7280
11896TIP3   OH257178   3.877   6.286   5.987  0.0740  0.3976 -0.3104
11896TIP3    H157179   3.794   6.292   5.940 -0.5943  1.1754  0.9010
11896TIP3    H257180   3.861   6.220   6.055  0.1038  1.2482  0.5457
11897TIP3   OH257181   0.792   6.715   2.958 -0.5324  0.1853 -0.0609
11897TIP3    H157182   0.724   6.744   3.018  0.6449  1.1661  0.8391
11897TIP3    H257183   0.776   6.621   2.948 -1.3572  0.1944  0.9813
11898TIP3   OH257184   4.512   2.212  11.808  0.0427 -0.3853  0.4510
11898TIP3    H157185   4.516   2.117  11.796 -0.8029 -0.4590  0.6853
11898TIP3    H257186   4.458   2.242  11.734  0.6419 -0.0365  0.1506
11899TIP3   OH257187   3.769   3.497   2.619  0.2093  0.2147  0.1229
11899TIP3    H157188   3.674   3.487   2.621  0.3526 -1.2590  1.2633
11899TIP3    H257189   3.786   3.578   2.668 -0.4059  0.0384  0.6412
11900TIP3   OH257190   4.803   5.619  14.537  0.2711 -0.3379 -0.2970
11900TIP3    H157191   4.716   5.631  14.575  0.4371  0.5950 -0.1925
11900TIP3    H257192   4.845   5.704  14.545  0.8175 -0.4943 -1.3130
11901TIP3   OH257193   3.896   6.541  16.041 -0.2282 -0.3618 -0.0756
11901TIP3    H157194   3.859   6.455  16.058 -1.0412 -0.1529 -0.7498
11901TIP3    H257195   3.920   6.539  15.949 -1.1233  0.4536 -0.3336
11902TIP3   OH257196   2.067   2.768   3.877 -0.2153  0.0127 -0.6108
11902TIP3    H157197   2.144   2.741   3.826  0.6906 -0.5656  1.0065
11902TIP3    H257198   2.088   2.745   3.967 -3.1271 -2.0562 -0.3396
11903TIP3   OH257199   1.154   3.700   1.843  0.3202  0.2144 -0.2216
11903TIP3    H157200   1.169   3.757   1.918 -0.0124 -0.8205  0.6439
11903TIP3    H257201   1.112   3.622   1.879 -0.2015 -0.1436 -1.5315
11904TIP3   OH257202   4.402   4.305  12.769 -0.0975 -0.1859  0.2371
11904TIP3    H157203   4.309   4.328  12.771  0.3660  1.9231 -0.0163
11904TIP3    H257204   4.442   4.360  12.836  0.7916 -2.2205  1.4817
11905TIP3   OH257205   1.677   6.758   4.927 -0.2154  0.3653 -0.3393
11905TIP3    H157206   1.624   6.703   4.869  1.8012 -1.2377 -0.7971
11905TIP3    H257207   1.614   6.814   4.972 -2.5756 -3.1229  1.0474
11906TIP3   OH257208   3.924   3.901  13.477  0.5254 -0.6798  0.0086
11906TIP3    H157209   3.978   3.949  13.541  0.1542 -1.3680  0.8663
11906TIP3    H257210   3.978   3.827  13.450  1.4594  0.6572 -2.0111
11907TIP3   OH257211   0.976   6.389  13.620 -0.0174  0.4450  0.2632
11907TIP3    H157212   0.935   6.302  13.626  1.0565 -0.3085 -2.1371
11907TIP3    H257213   1.063   6.377  13.659  0.2987  0.3003 -0.4720
11908TIP3   OH257214   0.291   0.841  17.094  0.1421  0.1035  0.2267
11908TIP3    H157215   0.216   0.841  17.034  0.1652 -1.3856  0.1571
11908TIP3    H257216   0.267   0.904  17.162 -1.3802 -0.6645  0.4410
11909TIP3   OH257217   4.201   5.886   3.181 -0.0242  0.0053  0.0935
11909TIP3    H157218   4.119   5.836   3.175 -0.0376 -0.1537  1.3293
11909TIP3    H257219   4.217   5.895   3.275  1.6689 -0.4391 -0.1175
11910TIP3   OH257220   6.235   3.262   0.631 -0.5951 -0.2638 -0.6975
11910TIP3    H157221   6.208   3.192   0.690 -4.0907  1.9081  0.5831
11910TIP3    H257222   6.247   3.338   0.689  0.2810  0.8928 -2.3196
11911TIP3   OH257223   6.211   5.766   5.663 -0.4743 -0.1791 -0.2647
11911TIP3    H157224   6.237   5.693   5.607  0.4616 -0.9291  1.0787
11911TIP3    H257225   6.116   5.772   5.653 -0.7983 -2.5776  0.7060
11912TIP3   OH257226   6.827   1.734   1.185  0.1426  0.0169  0.3703
11912TIP3    H157227   6.901   1.718   1.127 -0.6224  0.2032 -0.7053
11912TIP3    H257228   6.855   1.805   1.242  0.8002  0.0625 -0.0085
11913TIP3   OH257229   4.333   0.559   5.769 -0.0730 -0.3982  0.3925
11913TIP3    H157230   4.307   0.481   5.719 -2.3644 -0.0297  0.9014
11913TIP3    H257231   4.273   0.561   5.843 -0.0112  1.8145  0.4467
11914TIP3   OH257232   4.441   6.576  13.620 -0.5426 -0.4571  0.4347
11914TIP3    H157233   4.376   6.550  13.686 -0.6365 -0.0157  0.5145
11914TIP3    H257234   4.448   6.671  13.628 -0.2058 -0.4523  0.1274
11915TIP3   OH257235   2.126   4.683  16.618  0.1493  0.6411 -0.5386
11915TIP3    H157236   2.080   4.766  16.609 -1.4772 -0.1393  0.0871
11915TIP3    H257237   2.189   4.697  16.688 -1.2533  0.9104  0.7146
11916TIP3   OH257238   5.236   2.820   2.042 -0.7011 -0.1642  0.6005
11916TIP3    H157239   5.198   2.783   1.962 -1.9217  1.6353  0.3003
11916TIP3    H257240   5.331   2.814   2.027 -0.8978 -0.1488 -0.8748
11917TIP3   OH257241   5.809   2.697  11.626  0.2734  0.5698 -0.0449
11917TIP3    H157242   5.820   2.785  11.662  1.1261  0.4251  0.0816
11917TIP3    H257243   5.895   2.656  11.636 -0.0226 -0.1679 -0.4020
11918TIP3   OH257244   6.337   6.730   0.805  0.4008  0.0324  0.2985
11918TIP3    H157245   6.317   6.790   0.732  1.2885  0.8035  0.6706
11918TIP3    H257246   6.362   6.788   0.877  3.7562 -0.7760 -0.0601
11919TIP3   OH257247   2.917   3.075   3.334 -0.0877 -0.3611  0.2237
11919TIP3    H157248   2.980   3.103   3.401  0.9750 -1.3398 -0.3323
11919TIP3    H257249   2.964   3.086   3.251 -0.4503 -1.5761 -0.1699
11920TIP3   OH257250   5.997   0.277  13.439  0.3592 -0.4437  0.6446
11920TIP3    H157251   5.958   0.299  13.354  0.4296 -1.6670  0.2800
11920TIP3    H257252   6.046   0.355  13.464  0.7210 -0.2330 -0.6652
11921TIP3   OH257253   3.398   3.134   5.332  0.1538 -0.0500 -0.5915
11921TIP3    H157254   3.422   3.091   5.414  1.1198 -1.8605 -1.7291
11921TIP3    H257255   3.480   3.171   5.299  0.5719 -2.1941 -2.2461
11922TIP3   OH257256   0.518   1.934   4.569  0.1446  0.5831  0.0146
11922TIP3    H157257   0.558   1.892   4.645 -0.5398 -0.6872 -0.3006
11922TIP3    H257258   0.434   1.965   4.601  0.5977  1.6450  0.2141
11923TIP3   OH257259   5.528   1.318   2.050  0.0486  0.1533 -0.1758
11923TIP3    H157260   5.436   1.304   2.074 -0.1027 -1.1039 -1.3913
11923TIP3    H257261   5.525   1.345   1.958  0.8964  0.1425 -0.2098
11924TIP3   OH257262   2.941   6.778  11.779 -0.0815 -0.0698 -0.0640
11924TIP3    H157263   2.851   6.745  11.776  0.0899 -0.5083 -0.7860
11924TIP3    H257264   2.964   6.777  11.871 -0.2957 -1.4343  0.0006
11925TIP3   OH257265   6.576   0.713  15.354  0.1374 -0.6809  0.8334
11925TIP3    H157266   6.548   0.663  15.431 -0.8969 -0.2220  0.7632
11925TIP3    H257267   6.664   0.681  15.337 -0.3524 -2.2242  1.0221
11926TIP3   OH257268   1.815   5.514   5.843 -0.4177  0.1193 -0.3785
11926TIP3    H157269   1.826   5.474   5.756 -2.8757  0.7701 -1.0494
11926TIP3    H257270   1.808   5.439   5.902  0.2613 -0.3470 -0.8598
11927TIP3   OH257271   6.285   5.700   5.345  0.5350  0.8442 -0.4196
11927TIP3    H157272   6.194   5.686   5.316  0.1405 -0.5018  1.3209
11927TIP3    H257273   6.308   5.620   5.392  1.9413  1.9580  0.8955
11928TIP3   OH257274   3.296   0.534  12.339  0.1828  0.1371 -0.1112
11928TIP3    H157275   3.329   0.445  12.345  0.5480  0.3060  0.4899
11928TIP3    H257276   3.222   0.529  12.279  0.0219 -0.6221  0.1520
11929TIP3   OH257277   4.745   3.601  11.440 -0.5725 -0.3326 -0.5449
11929TIP3    H157278   4.723   3.671  11.378  0.6952  0.0540 -0.5751
11929TIP3    H257279   4.822   3.633  11.487 -0.5800 -1.2857  0.1575
11930TIP3   OH257280   6.450   3.415   5.493  0.1878 -0.6271 -0.4985
11930TIP3    H157281   6.355   3.417   5.485 -0.0046  1.8167  1.2537
11930TIP3    H257282   6.467   3.371   5.576  0.5943 -0.7756 -0.6522
11931TIP3   OH257283   6.632   5.324  12.926  0.0418 -0.2186  0.1717
11931TIP3    H157284   6.661   5.394  12.985  0.1055 -1.2022  1.3486
11931TIP3    H257285   6.645   5.360  12.839  3.1822  0.0855  0.6533
11932TIP3   OH257286   0.125   4.271  15.827 -0.5660 -0.0583  0.1216
11932TIP3    H157287   0.144   4.286  15.920 -0.6335  0.8603 -0.0042
11932TIP3    H257288   0.196   4.215  15.797  1.3014  2.1862 -0.0063
11933TIP3   OH257289   1.186   5.426  14.924  0.8726 -0.1959  0.0122
11933TIP3    H157290   1.169   5.450  14.833 -0.2540 -1.1218 -0.0413
11933TIP3    H257291   1.118   5.470  14.973  0.1022 -1.4691  0.1408
11934TIP3   OH257292   0.850   5.182   3.312 -0.7846 -0.4497  0.1538
11934TIP3    H157293   0.941   5.209   3.322 -1.4407  2.2771 -0.3391
11934TIP3    H257294   0.840   5.166   3.218 -1.2980  1.5481 -0.1827
11935TIP3   OH257295   4.147   0.562  12.109  0.0437 -0.0798  0.3010
11935TIP3    H157296   4.231   0.525  12.138  0.5753  1.3985  0.7976
11935TIP3    H257297   4.081   0.512  12.156  0.6502 -1.1363  0.0661
11936TIP3   OH257298   2.351   4.357   5.027 -0.0416 -0.1060 -0.7321
11936TIP3    H157299   2.436   4.395   5.003  0.6937 -1.0143  0.3101
11936TIP3    H257300   2.368   4.312   5.110 -1.2713 -1.2835 -1.0842
11937TIP3   OH257301   3.572   6.606  15.313  0.2525  0.8430  0.0506
11937TIP3    H157302   3.548   6.523  15.271 -0.3868  1.4922 -0.9108
11937TIP3    H257303   3.603   6.661  15.241 -0.0953  1.7080  0.5473
11938TIP3   OH257304   4.299   5.977  10.986 -0.0414  0.2545 -0.0113
11938TIP3    H157305   4.391   5.961  10.964  0.0300 -0.2077  0.5823
11938TIP3    H257306   4.269   5.894  11.022 -1.4292 -0.4127 -2.5128
11939TIP3   OH257307   0.338   4.365   0.414  0.4444 -0.3663  0.1037
11939TIP3    H157308   0.280   4.305   0.366  0.2162  0.0120 -0.1014
11939TIP3    H257309   0.396   4.401   0.347  0.5443 -0.3180  0.2163
11940TIP3   OH257310   6.750   1.721  11.051  0.2618 -0.2561  0.2037
11940TIP3    H157311   6.720   1.806  11.020  1.1131 -0.0418 -0.0709
11940TIP3    H257312   6.806   1.741  11.127  0.6765 -0.5383 -0.0204
11941TIP3   OH257313   4.710   1.898  12.070 -0.0022 -0.0985 -0.0277
11941TIP3    H157314   4.741   1.827  12.014  1.2216 -0.3200  0.8886
11941TIP3    H257315   4.619   1.911  12.044 -0.0266 -1.4883 -0.7379
11942TIP3   OH257316   0.939   6.763  12.716 -0.6729 -0.0790  0.2144
11942TIP3    H157317   1.019   6.785  12.764 -1.2855  0.2548  1.1028
11942TIP3    H257318   0.893   6.701  12.772 -1.9879  1.2445  0.6760
11943TIP3   OH257319   3.001   1.069   4.244 -0.0250  0.2478  0.5009
11943TIP3    H157320   2.995   1.148   4.191 -0.3200  0.4705  0.8616
11943TIP3    H257321   3.069   1.016   4.201 -0.1564  0.4880 -0.0054
11944TIP3   OH257322   0.261   6.402  16.016  0.0597 -0.9253 -0.0043
11944TIP3    H157323   0.306   6.429  16.095 -2.2783 -1.9321  1.8127
11944TIP3    H257324   0.307   6.323  15.987  0.7715 -0.7033  0.5147
11945TIP3   OH257325   4.749   0.618  15.455 -0.7785  0.2431  0.6082
11945TIP3    H157326   4.753   0.698  15.404 -0.9589 -0.7488 -1.0201
11945TIP3    H257327   4.831   0.617  15.506  0.5021  0.2001 -1.3483
11946TIP3   OH257328   2.141   3.090  12.415 -0.7866  0.4464 -0.2573
11946TIP3    H157329   2.094   3.007  12.424 -0.0141  0.0649  0.4306
11946TIP3    H257330   2.191   3.080  12.334  1.6463 -1.0260  1.2819
11947TIP3   OH257331   4.553   4.749   3.580  0.0376 -0.3673 -0.3015
11947TIP3    H157332   4.524   4.708   3.661 -0.3513  1.9440  0.8023
11947TIP3    H257333   4.648   4.736   3.579  0.0596 -0.2926  0.5918
11948TIP3   OH257334   5.381   2.091  13.168  0.0010 -0.1606 -0.4932
11948TIP3    H157335   5.351   2.162  13.113  1.0323 -0.1765 -1.1022
11948TIP3    H257336   5.388   2.016  13.109 -1.1516 -0.8115  0.1528
11949TIP3   OH257337   2.841   5.319  14.084 -0.0499  0.2076 -0.1347
11949TIP3    H157338   2.761   5.370  14.089 -0.4531 -0.4161 -0.0135
11949TIP3    H257339   2.830   5.264  14.006  0.4494  0.4359 -0.3639
11950TIP3   OH257340   5.673   6.011  16.308  0.0245 -0.7651  0.1012
11950TIP3    H157341   5.685   6.091  16.359  1.9005  0.2054 -1.6769
11950TIP3    H257342   5.758   5.969  16.309  0.0939 -0.7860 -1.9827
11951TIP3   OH257343   4.909   2.872   4.251  0.5721 -0.1197 -0.0328
11951TIP3    H157344   4.827   2.845   4.291  0.2389  1.5724  0.5205
11951TIP3    H257345   4.958   2.791   4.239 -1.0181 -1.1183 -0.0340
11952TIP3   OH257346   0.021   2.835   3.264  0.4146 -0.7454 -0.9412
11952TIP3    H157347   0.025   2.857   3.357 -0.8997  0.9673 -1.2374
11952TIP3    H257348  -0.053   2.774   3.257 -0.9581  0.8463 -1.0911
11953TIP3   OH257349   0.973   0.440   3.130 -0.0844  0.2589  0.4951
11953TIP3    H157350   1.040   0.382   3.095  0.8065  0.2955  2.0677
11953TIP3    H257351   0.928   0.388   3.197 -1.9122  0.1113 -0.7681
11954TIP3   OH257352   1.680   3.257  12.618 -0.1673  0.0860 -0.2984
11954TIP3    H157353   1.612   3.195  12.591 -2.8635  1.6672  2.2315
11954TIP3    H257354   1.732   3.210  12.683 -0.9820 -0.1723  0.1828
11955TIP3   OH257355   4.533   3.051   2.959 -0.3524  0.4931  0.3682
11955TIP3    H157356   4.587   3.118   3.003  0.6506  0.0480 -0.1668
11955TIP3    H257357   4.591   2.976   2.950 -0.6140  0.4612 -1.4486
11956TIP3   OH257358   3.278   2.797  13.710 -0.0911  0.6538 -0.2660
11956TIP3    H157359   3.368   2.766  13.714 -0.3442 -0.3256 -1.3194
11956TIP3    H257360   3.258   2.828  13.798  1.1546  0.5372  0.0674
11957TIP3   OH257361   3.878   5.262   0.546 -0.2346 -0.3085  0.0089
11957TIP3    H157362   3.971   5.263   0.567  0.1984  0.0776 -1.7474
11957TIP3    H257363   3.837   5.315   0.615  0.9971  0.4386  0.1954
11958TIP3   OH257364   0.934   5.499   1.133 -0.1545  0.2445  0.2643
11958TIP3    H157365   0.880   5.421   1.144  0.2586 -0.1129 -0.2207
11958TIP3    H257366   0.959   5.499   1.041  0.2165  0.7052  0.3592
11959TIP3   OH257367   1.772   1.888   4.903 -0.5191 -0.4130  0.3680
11959TIP3    H157368   1.681   1.906   4.881 -0.5443  0.6481  1.2197
11959TIP3    H257369   1.812   1.856   4.822 -1.1092  1.2425 -0.6191
11960TIP3   OH257370   1.373   1.736   5.434  0.6499 -0.0112 -0.1315
11960TIP3    H157371   1.419   1.812   5.471 -0.1111  0.5034 -0.2058
11960TIP3    H257372   1.432   1.702   5.367  0.3379  1.5290 -1.2559
11961TIP3   OH257373   4.439   2.166   1.131 -0.1112  0.6727  0.2945
11961TIP3    H157374   4.354   2.123   1.134  1.0657 -1.7688  1.6908
11961TIP3    H257375   4.484   2.124   1.058  0.9040 -0.2749  1.4139
11962TIP3   OH257376   1.688   1.370   3.281  0.0509 -0.3910  0.1560
11962TIP3    H157377   1.701   1.329   3.196 -0.1618 -2.1948  0.9429
11962TIP3    H257378   1.601   1.339   3.309 -0.5362  1.3740  0.3988
11963TIP3   OH257379   4.618   2.433  14.679  0.5710 -0.0538  0.3309
11963TIP3    H157380   4.563   2.435  14.758  1.4206  1.2888  0.9266
11963TIP3    H257381   4.668   2.352  14.686 -0.2842 -0.5787  0.5093
11964TIP3   OH257382   4.165   4.192   2.340  0.1631 -0.0227  0.1487
11964TIP3    H157383   4.247   4.159   2.304  0.2511 -1.0342  1.2040
11964TIP3    H257384   4.129   4.119   2.390 -2.1905 -0.1573 -1.5435
11965TIP3   OH257385   4.534   2.945  11.277 -0.3665 -0.2186  0.0538
11965TIP3    H157386   4.571   3.003  11.210 -1.4489  0.6223  0.1534
11965TIP3    H257387   4.528   3.000  11.355  1.3358 -1.3185  1.0428
11966TIP3   OH257388   1.725   2.928   0.677 -0.1847 -0.5611  0.1674
11966TIP3    H157389   1.805   2.881   0.702  0.5271  0.0000 -0.9426
11966TIP3    H257390   1.690   2.878   0.603  1.4314  1.3770 -2.0662
11967TIP3   OH257391   5.631   5.908   5.941 -0.4595  0.2167  0.2947
11967TIP3    H157392   5.713   5.944   5.975 -0.2311 -0.1530  0.1433
11967TIP3    H257393   5.583   5.880   6.018  1.3728 -3.5457  0.3332
11968TIP3   OH257394   6.330   4.386  11.519  0.4040 -0.1637  0.1130
11968TIP3    H157395   6.249   4.395  11.470  0.9235 -1.4447 -1.0354
11968TIP3    H257396   6.304   4.340  11.600 -0.0584 -0.2877 -0.1021
11969TIP3   OH257397   2.705   3.239  15.036 -0.1773  0.3023  0.5583
11969TIP3    H157398   2.629   3.206  14.989  0.2155  1.5241 -1.0191
11969TIP3    H257399   2.670   3.310  15.091 -0.4897 -0.5299  1.4580
11970TIP3   OH257400   5.105   0.042  15.389  0.2767  0.3140 -0.4653
11970TIP3    H157401   5.081   0.133  15.372  0.2317  0.3469 -0.2268
11970TIP3    H257402   5.023  -0.007  15.385  0.1891  0.4031  0.1939
11971TIP3   OH257403   5.834   3.279   3.773  0.0816  1.0894  0.0511
11971TIP3    H157404   5.792   3.194   3.779  3.0211 -0.5537 -0.8711
11971TIP3    H257405   5.762   3.340   3.757 -2.0072 -1.3409 -0.4532
11972TIP3   OH257406   0.350   5.516   0.453 -0.3756  0.0192  0.2527
11972TIP3    H157407   0.363   5.611   0.444  0.8390 -0.1151  0.5251
11972TIP3    H257408   0.338   5.486   0.363  0.5896  0.2533  0.0334
11973TIP3   OH257409   3.174   4.748   2.570 -0.2149 -0.7740 -0.0767
11973TIP3    H157410   3.113   4.806   2.525 -1.8364  0.8881  3.8467
11973TIP3    H257411   3.125   4.668   2.586  0.3204 -1.3183 -1.0580
11974TIP3   OH257412   3.840   3.922   1.313 -0.1671 -0.0541  0.2353
11974TIP3    H157413   3.837   3.978   1.235  0.4742 -0.3714 -0.0252
11974TIP3    H257414   3.836   3.833   1.279  1.4336 -0.2424  0.4588
11975TIP3   OH257415   5.351   5.975  14.096 -0.3902 -0.3486 -0.1504
11975TIP3    H157416   5.325   5.889  14.129 -0.2831 -1.3420 -2.4258
11975TIP3    H257417   5.332   6.035  14.167 -0.7905 -2.2054  1.3974
11976TIP3   OH257418   5.951   0.749   3.345  0.2517  0.6404  0.2428
11976TIP3    H157419   6.017   0.681   3.330 -1.3948 -1.2123  0.9381
11976TIP3    H257420   5.896   0.746   3.267 -0.1949  0.7349  0.5537
11977TIP3   OH257421   4.880   3.092  15.736  0.5471 -0.2000 -0.1105
11977TIP3    H157422   4.823   3.063  15.808  0.6607 -0.1446  0.0025
11977TIP3    H257423   4.836   3.167  15.699  0.2881 -0.4710 -0.3544
11978TIP3   OH257424   5.992   0.283  13.749  0.2115  0.7236  0.0313
11978TIP3    H157425   5.910   0.278  13.797  0.5299  3.3049  1.0032
11978TIP3    H257426   5.966   0.294  13.658 -0.3958 -2.8669 -0.3839
11979TIP3   OH257427   3.436   6.810   3.025 -0.2017 -0.1716  0.1909
11979TIP3    H157428   3.380   6.806   2.947  2.3036 -0.5810 -1.7315
11979TIP3    H257429   3.501   6.877   3.004  1.0951 -0.9530  1.5351
11980TIP3   OH257430   3.864   3.078  13.650  0.2953 -0.1930  0.5922
11980TIP3    H157431   3.942   3.033  13.681 -0.2131  0.7111  3.4878
11980TIP3    H257432   3.793   3.047  13.707 -1.5884 -1.1174 -2.0481
11981TIP3   OH257433   1.132   2.955   2.198 -0.3946  0.4213 -0.0172
11981TIP3    H157434   1.225   2.965   2.177 -0.6323  1.1934 -0.8025
11981TIP3    H257435   1.113   3.027   2.258 -0.3394 -0.1441  0.6876
11982TIP3   OH257436   0.472   5.668   3.477  0.7380  0.0766  0.3673
11982TIP3    H157437   0.516   5.731   3.420 -0.7763  1.6396  0.8748
11982TIP3    H257438   0.418   5.615   3.418  0.6759  0.3962  0.1386
11983TIP3   OH257439   0.133   1.407  12.142  0.3879  0.2025  0.0319
11983TIP3    H157440   0.095   1.478  12.193 -0.7194 -0.4828  0.1921
11983TIP3    H257441   0.112   1.428  12.051  1.5050  0.9154 -0.0789
11984TIP3   OH257442   0.681   1.973  14.982  0.0394  0.1912 -0.2613
11984TIP3    H157443   0.595   1.943  15.010  0.3991 -1.0848 -0.4643
11984TIP3    H257444   0.699   1.925  14.902  1.2212 -0.0665  0.1366
11985TIP3   OH257445   4.081   5.438   4.933 -0.3104 -0.4234  0.1121
11985TIP3    H157446   4.141   5.510   4.955  2.0696 -2.4186  0.5830
11985TIP3    H257447   4.074   5.387   5.014 -1.0433 -1.3471 -0.5117
11986TIP3   OH257448   5.353   2.082   5.394 -0.1067 -0.1599 -0.5937
11986TIP3    H157449   5.435   2.069   5.441 -0.5124  0.6403  0.3754
11986TIP3    H257450   5.376   2.071   5.302  1.2803  0.9322 -0.4126
11987TIP3   OH257451   3.890   5.943  12.440 -0.3116 -0.2431  0.1721
11987TIP3    H157452   3.895   5.938  12.344 -1.6299  0.3374  0.0533
11987TIP3    H257453   3.872   6.036  12.458  0.1243 -0.3089  1.0026
11988TIP3   OH257454   0.674   3.311  16.848 -0.3900  0.3502  0.1946
11988TIP3    H157455   0.664   3.244  16.780  0.6767 -0.5260  0.8609
11988TIP3    H257456   0.748   3.364  16.818 -0.8874  0.9103 -0.0627
11989TIP3   OH257457   1.461   4.692  13.993 -0.0391 -0.5274  0.3311
11989TIP3    H157458   1.392   4.633  14.024 -1.0322  0.8395  0.7814
11989TIP3    H257459   1.509   4.716  14.073 -1.8162  1.9957  0.7457
11990TIP3   OH257460   5.978   4.930  11.226  0.5099 -0.7994 -0.5549
11990TIP3    H157461   5.890   4.925  11.261  1.1020 -2.6537  0.8446
11990TIP3    H257462   5.976   4.876  11.147  0.0664  0.4492 -1.4466
11991TIP3   OH257463   3.246   2.901  13.975  0.6854 -0.5679  0.2460
11991TIP3    H157464   3.252   2.807  13.993 -0.2090 -0.7393 -0.2971
11991TIP3    H257465   3.190   2.935  14.045 -2.0745 -1.0904 -1.5693
11992TIP3   OH257466   2.059   1.597  12.989  0.7111  0.6039 -0.0126
11992TIP3    H157467   2.105   1.560  12.913  1.9212  1.5875  0.2102
11992TIP3    H257468   2.034   1.520  13.041 -0.6683 -0.1292 -1.6606
11993TIP3   OH257469   4.878   6.374  11.273  0.2850  0.3946  0.1505
11993TIP3    H157470   4.907   6.385  11.183  0.9281 -0.6084  0.2252
11993TIP3    H257471   4.940   6.313  11.311 -1.4781 -1.2504  0.5453
11994TIP3   OH257472   5.261   5.433   5.057  0.0193  0.0309  0.2594
11994TIP3    H157473   5.247   5.347   5.017 -0.0908 -0.3032  0.9875
11994TIP3    H257474   5.356   5.442   5.061  0.0291  0.0978 -0.1427
11995TIP3   OH257475   6.140   2.742  16.140 -0.0412 -0.1686  0.4159
11995TIP3    H157476   6.172   2.745  16.049 -0.6575  0.2242  0.2080
11995TIP3    H257477   6.050   2.712  16.133  0.4003 -1.7306  1.0465
11996TIP3   OH257478   2.746   3.748   5.810  0.2215 -0.4850 -0.8358
11996TIP3    H157479   2.654   3.743   5.787  0.1287 -1.9580 -0.1964
11996TIP3    H257480   2.747   3.773   5.902  0.3992 -2.1892 -0.3528
11997TIP3   OH257481   0.179   3.665   0.724 -0.6760 -0.1177 -0.7342
11997TIP3    H157482   0.217   3.604   0.660  1.5741 -0.5079  0.8431
11997TIP3    H257483   0.089   3.636   0.735 -0.4662 -1.4085 -2.0740
11998TIP3   OH257484   4.316   1.954   1.454 -0.0206  0.1458 -0.0555
11998TIP3    H157485   4.258   1.977   1.381 -0.2079 -1.2994 -0.3882
11998TIP3    H257486   4.259   1.915   1.519  0.6878 -2.9258 -1.0877
11999TIP3   OH257487   2.259   5.451   2.019  0.0425 -0.1331  0.0278
11999TIP3    H157488   2.164   5.448   2.028 -0.1255  0.5728 -1.2859
11999TIP3    H257489   2.292   5.464   2.108 -1.0868 -0.3598  0.4839
12000TIP3   OH257490   1.291   1.663   0.947  0.4574 -0.1380  0.0234
12000TIP3    H157491   1.236   1.721   0.999 -0.2375 -1.2644  0.5867
12000TIP3    H257492   1.317   1.716   0.872 -1.6235  0.3875 -0.4045
12001TIP3   OH257493   1.224   6.042  14.973  0.0391  0.3050 -0.2948
12001TIP3    H157494   1.188   6.130  14.964 -0.8233  0.1025  0.9242
12001TIP3    H257495   1.277   6.045  15.052  0.7870 -0.0413 -0.7629
12002TIP3   OH257496   4.195   6.478   2.303  0.3569  0.4335 -0.4948
12002TIP3    H157497   4.151   6.393   2.294  0.1403  0.6912 -2.3156
12002TIP3    H257498   4.129   6.542   2.276  0.3276  1.2803  1.3796
12003TIP3   OH257499   2.699   5.045  15.819  0.1714 -0.4512 -0.2414
12003TIP3    H157500   2.775   5.002  15.778  0.4991  0.7930 -0.9998
12003TIP3    H257501   2.640   5.062  15.746  0.2681  0.8020 -0.0365
12004TIP3   OH257502   4.660   0.224   2.749 -0.1990  0.0068  0.2553
12004TIP3    H157503   4.621   0.176   2.677 -0.0383 -0.5496  0.5325
12004TIP3    H257504   4.662   0.315   2.720  0.2513 -0.2693 -0.6083
12005TIP3   OH257505   0.558   5.534  12.759  0.3196  0.0456  0.8501
12005TIP3    H157506   0.573   5.501  12.671  0.7363  1.3189  0.4308
12005TIP3    H257507   0.508   5.614  12.747  0.2741  0.1716  1.7791
12006TIP3   OH257508   5.131   2.272  10.854  0.1613 -0.7975 -0.0113
12006TIP3    H157509   5.180   2.270  10.772 -0.6922 -0.0998 -0.5703
12006TIP3    H257510   5.114   2.365  10.869 -1.4493 -1.0357 -0.1498
12007TIP3   OH257511   1.026   5.352   3.561 -0.1371 -0.0060 -0.0564
12007TIP3    H157512   0.982   5.301   3.629 -1.4199 -0.8842 -1.4652
12007TIP3    H257513   1.051   5.433   3.604 -0.2146 -0.8391  1.6377
12008TIP3   OH257514   4.046   5.222  15.664 -0.0938  0.1372 -0.1614
12008TIP3    H157515   4.131   5.183  15.644 -0.2404 -0.3738  0.1906
12008TIP3    H257516   4.067   5.308  15.701  0.3062 -0.2876  0.6150
12009TIP3   OH257517   0.708   1.100   0.858  0.4925 -0.1995 -0.1530
12009TIP3    H157518   0.753   1.060   0.933  0.7261 -1.4808 -0.9565
12009TIP3    H257519   0.669   1.027   0.811 -2.0621  0.8208  0.2284
12010TIP3   OH257520   5.993   0.877  15.344  0.0479  0.6638  0.4742
12010TIP3    H157521   6.015   0.785  15.331  0.1532  0.8107 -0.4091
12010TIP3    H257522   6.072   0.915  15.385  1.1348  0.9692 -1.7652
12011TIP3   OH257523   2.023   5.331  12.686 -0.1207  0.3931  0.0972
12011TIP3    H157524   2.041   5.290  12.602 -2.1013 -0.1013 -0.1382
12011TIP3    H257525   2.049   5.422  12.675  1.2980 -0.0566 -0.4356
12012TIP3   OH257526   0.433   3.985  12.664  0.1391  0.3471  0.0979
12012TIP3    H157527   0.405   3.988  12.755  0.5439 -0.1791  0.2460
12012TIP3    H257528   0.383   3.913  12.626  1.8110 -1.1788  0.5782
12013TIP3   OH257529   4.428   1.888   3.599  0.0257  0.1655  0.1031
12013TIP3    H157530   4.520   1.876   3.577  0.2268 -1.6812  1.6468
12013TIP3    H257531   4.386   1.913   3.516  1.6462 -0.5896 -1.0017
12014TIP3   OH257532   0.154   2.751  13.648  0.2621 -0.4311 -0.1538
12014TIP3    H157533   0.086   2.706  13.698 -1.2992  2.4698  0.5819
12014TIP3    H257534   0.182   2.823  13.704 -0.0491  1.7429 -2.5794
12015TIP3   OH257535   3.882   6.714  16.237  0.3012 -0.3284  0.2952
12015TIP3    H157536   3.864   6.795  16.190  0.4631  0.1974  1.1217
12015TIP3    H257537   3.875   6.646  16.170  0.1744  0.3614 -0.4126
12016TIP3   OH257538   0.419   1.246  16.618 -0.0588 -0.2603 -0.3433
12016TIP3    H157539   0.343   1.288  16.579 -1.1834 -0.2581  1.7044
12016TIP3    H257540   0.387   1.161  16.648  1.2070 -0.9988 -0.9762
12017TIP3   OH257541   6.380   1.255   0.109 -0.2360 -0.0192  0.2080
12017TIP3    H157542   6.412   1.311   0.038 -2.1015  3.5527  1.9306
12017TIP3    H257543   6.311   1.203   0.069 -0.2633  0.8595 -0.9449
12018TIP3   OH257544   1.012   3.306  13.149 -0.3516 -0.1168  0.0468
12018TIP3    H157545   1.096   3.338  13.117 -1.1330  2.3197  0.2367
12018TIP3    H257546   1.035   3.251  13.224  1.1799 -1.7156 -1.5100
12019TIP3   OH257547   4.894   6.098   2.699 -0.1870  0.1511  0.1779
12019TIP3    H157548   4.867   6.184   2.667 -0.9538 -0.2102 -0.1750
12019TIP3    H257549   4.948   6.117   2.776  1.4737  1.0221 -1.1402
12020TIP3   OH257550   0.385   0.086   5.530 -0.0522 -0.0364 -0.1881
12020TIP3    H157551   0.435   0.043   5.460  0.4364  1.9254 -1.0996
12020TIP3    H257552   0.322   0.142   5.484  2.1357  3.5234  0.7481
12021TIP3   OH257553   6.306   4.086  16.038 -0.4817 -0.0708  0.3405
12021TIP3    H157554   6.387   4.135  16.029 -1.4744  1.5947 -0.1261
12021TIP3    H257555   6.290   4.049  15.950 -0.9896  0.9261 -0.0064
12022TIP3   OH257556   1.397   4.598  14.642 -0.1635 -0.4970 -0.1128
12022TIP3    H157557   1.301   4.600  14.647 -0.1627 -0.0984 -0.2585
12022TIP3    H257558   1.425   4.680  14.682 -0.0426  1.4499 -3.8217
12023TIP3   OH257559   2.924   1.933  11.526 -0.5663  0.6478 -0.3560
12023TIP3    H157560   2.865   1.892  11.589 -0.2238  0.3922 -0.1941
12023TIP3    H257561   2.873   2.003  11.486 -0.3512  1.8070  1.2828
12024TIP3   OH257562   3.449   4.985   2.143  0.0860 -0.1665 -0.5557
12024TIP3    H157563   3.477   5.049   2.078  0.3969  0.4503  0.1748
12024TIP3    H257564   3.531   4.948   2.176 -0.0325  0.0967  0.0500
12025TIP3   OH257565   2.254   2.780   3.468  0.3782  0.0219  0.8084
12025TIP3    H157566   2.175   2.816   3.427  1.2395  2.1241  0.8940
12025TIP3    H257567   2.255   2.688   3.442 -4.4784 -1.4588  4.2973
12026TIP3   OH257568   3.146   5.749   1.967 -0.4199  0.1825 -0.2961
12026TIP3    H157569   3.088   5.716   1.898  0.3551 -0.5884 -0.5867
12026TIP3    H257570   3.089   5.807   2.019 -1.9585 -1.8978  0.4898
12027TIP3   OH257571   1.523   0.104  10.966  0.5709  0.5710  0.9188
12027TIP3    H157572   1.488   0.080  10.880  2.0064 -0.2788  0.5378
12027TIP3    H257573   1.467   0.056  11.028 -0.5717  1.3072  0.5015
12028TIP3   OH257574   0.136   6.206   5.621  0.1087  0.6557 -0.1109
12028TIP3    H157575   0.144   6.175   5.712  1.4329 -1.3306 -0.8346
12028TIP3    H257576   0.210   6.266   5.610  1.4297 -0.9575 -0.5058
12029TIP3   OH257577   0.713   3.659  16.829 -0.2229  0.2646 -0.1778
12029TIP3    H157578   0.665   3.585  16.792 -0.4778  0.2643  0.1428
12029TIP3    H257579   0.704   3.729  16.764 -2.0262  0.7880  0.5528
12030TIP3   OH257580   4.850   0.063   3.725  0.2035  0.0914  0.2464
12030TIP3    H157581   4.828   0.144   3.678 -1.5935  0.2299  1.2392
12030TIP3    H257582   4.942   0.047   3.704  0.4146  2.0414 -0.4896
12031TIP3   OH257583   0.841   2.417   6.525  0.5263 -0.1664 -0.2190
12031TIP3    H157584   0.847   2.340   6.468 -0.0959 -1.1391  0.9813
12031TIP3    H257585   0.749   2.421   6.551  1.2820 -1.7283  3.2742
12032TIP3   OH257586   4.323   5.288  17.161  0.2175 -0.8144 -0.7141
12032TIP3    H157587   4.269   5.286  17.082 -0.8197 -2.3336 -0.0340
12032TIP3    H257588   4.312   5.376  17.196  0.0862 -0.3637 -1.8630
12033TIP3   OH257589   1.179   0.899  16.538 -0.2451  0.1852 -0.4916
12033TIP3    H157590   1.271   0.925  16.542 -0.5891  1.2893  0.7779
12033TIP3    H257591   1.164   0.848  16.618 -1.1058  1.3333  0.1078
12034TIP3   OH257592   0.152   4.807   2.073  0.2924 -0.4783  0.2290
12034TIP3    H157593   0.086   4.778   2.136  0.4720  0.7016  1.0038
12034TIP3    H257594   0.116   4.887   2.035 -0.3937 -1.8476 -2.1856
12035TIP3   OH257595   0.369   2.413  14.309 -0.0305 -0.3204 -0.5791
12035TIP3    H157596   0.407   2.436  14.224 -0.1197 -0.0217 -0.5408
12035TIP3    H257597   0.443   2.403  14.367 -0.0150  0.5417 -0.4341
12036TIP3   OH257598   0.999   1.826  10.633  0.5038 -0.5092 -0.4003
12036TIP3    H157599   1.013   1.851  10.542 -0.2245 -2.3475 -1.0571
12036TIP3    H257600   0.923   1.768  10.632  2.6336 -3.6070  0.7792
12037TIP3   OH257601   4.557   3.032  16.600  0.3160 -0.0893 -0.1596
12037TIP3    H157602   4.569   3.120  16.635 -1.8554  0.9006 -1.6448
12037TIP3    H257603   4.535   3.046  16.508  1.7588 -2.3369 -0.9332
12038TIP3   OH257604   1.396   1.090   3.946  0.1313  0.8777 -0.0467
12038TIP3    H157605   1.313   1.136   3.928  0.2646  1.6110  1.1191
12038TIP3    H257606   1.447   1.152   3.998  1.4555  0.4505 -0.7829
12039TIP3   OH257607   0.004   4.532   5.384  0.8617  0.5839 -0.2349
12039TIP3    H157608  -0.019   4.440   5.398  3.9298 -0.7629 -2.6380
12039TIP3    H257609   0.039   4.561   5.468  0.4650 -0.6814  0.3922
12040TIP3   OH257610   0.386   4.323   3.998  0.0159  0.7739  0.1390
12040TIP3    H157611   0.343   4.390   3.945 -0.4943  0.4834  0.1824
12040TIP3    H257612   0.332   4.315   4.076 -2.1802 -2.3714 -1.4770
12041TIP3   OH257613   5.817   4.013  11.429  0.3132 -0.1899  0.3049
12041TIP3    H157614   5.903   4.048  11.453  0.6748 -0.4444 -0.5642
12041TIP3    H257615   5.811   4.031  11.335 -1.3238  1.3898  0.6601
12042TIP3   OH257616   4.761   4.124  13.604  0.0440 -0.3570  0.4082
12042TIP3    H157617   4.819   4.096  13.675  0.3734 -3.0888 -0.8126
12042TIP3    H257618   4.674   4.125  13.643  0.0317 -3.1427  0.5958
12043TIP3   OH257619   3.665   1.358  11.605 -0.0202 -0.0543 -0.8331
12043TIP3    H157620   3.689   1.342  11.514 -2.0873 -0.7486 -1.3124
12043TIP3    H257621   3.571   1.375  11.603  0.1693  1.6299  1.0000
12044TIP3   OH257622   3.229   3.331   2.867  0.2877  0.1820  0.2507
12044TIP3    H157623   3.286   3.366   2.935 -0.1102 -0.1353  0.7541
12044TIP3    H257624   3.278   3.258   2.830  0.6388  0.5519 -0.0319
12045TIP3   OH257625   1.814   3.536   1.844  0.2099  0.4187  0.0045
12045TIP3    H157626   1.863   3.541   1.926 -1.6696 -1.0592  1.2992
12045TIP3    H257627   1.759   3.614   1.845 -0.2386  0.0990  0.4469
12046TIP3   OH257628   4.158   2.497  12.211  0.0229 -0.1334 -0.5348
12046TIP3    H157629   4.144   2.575  12.158  2.4268 -0.5362 -1.9239
12046TIP3    H257630   4.237   2.517  12.262 -0.0941 -1.1761  0.0830
12047TIP3   OH257631   2.056   4.947  14.170  0.3114 -0.0213 -0.4968
12047TIP3    H157632   1.974   4.899  14.178 -0.7653  1.9269  0.7661
12047TIP3    H257633   2.041   5.006  14.096  1.7809 -1.7602 -2.3209
12048TIP3   OH257634   4.489   6.395   5.584  0.3542 -0.3626 -0.0276
12048TIP3    H157635   4.447   6.309   5.584 -0.6856  0.0688  2.1547
12048TIP3    H257636   4.568   6.383   5.638  1.4306 -0.4265 -1.5472
12049TIP3   OH257637   5.921   0.906  16.447 -0.1788  0.2767  0.4690
12049TIP3    H157638   5.925   0.810  16.446 -0.5194  0.2616  0.2938
12049TIP3    H257639   6.011   0.934  16.466  0.2287 -0.0460 -0.8814
12050TIP3   OH257640   2.338   4.925  13.943 -0.1560 -0.4822  0.1541
12050TIP3    H157641   2.368   4.959  13.859 -0.1525 -0.2658  0.2411
12050TIP3    H257642   2.381   4.980  14.008  2.6128 -2.8034  0.4436
12051TIP3   OH257643   4.552   1.312  11.241 -0.2972  0.3302  0.1398
12051TIP3    H157644   4.595   1.234  11.277  0.8768  0.6600 -0.4833
12051TIP3    H257645   4.462   1.284  11.223 -0.3525 -0.4132  1.4164
12052TIP3   OH257646   2.704   0.211  15.011 -0.3602 -0.1165  0.0336
12052TIP3    H157647   2.673   0.128  14.976 -0.2669  0.2215 -0.8624
12052TIP3    H257648   2.628   0.247  15.058 -0.8439 -0.0452 -0.7919
12053TIP3   OH257649   2.844   3.332   5.353 -0.2329  0.7130  0.2298
12053TIP3    H157650   2.907   3.323   5.281  0.2800  0.4306  0.7082
12053TIP3    H257651   2.822   3.426   5.354  0.5766  0.9057  0.3874
12054TIP3   OH257652   5.288   0.870   5.415  0.0237 -0.2237  0.2367
12054TIP3    H157653   5.276   0.908   5.503  0.0757  1.7404 -0.5605
12054TIP3    H257654   5.209   0.817   5.402 -0.8928  0.9706  0.7434
12055TIP3   OH257655   1.362   0.413   5.194 -0.0381 -0.0232 -0.3788
12055TIP3    H157656   1.432   0.362   5.234  0.5003  0.1006 -1.1378
12055TIP3    H257657   1.373   0.400   5.100 -1.2958 -0.3328 -0.5041
12056TIP3   OH257658   1.293   2.693   3.404 -0.1624 -0.2641  0.7296
12056TIP3    H157659   1.382   2.718   3.380  0.3607 -1.4427  1.3624
12056TIP3    H257660   1.299   2.600   3.426 -1.7473 -0.6316 -0.1957
12057TIP3   OH257661   6.802   1.877  15.224  0.6059  0.1305  1.1623
12057TIP3    H157662   6.764   1.884  15.312 -0.8095 -1.2680  0.6996
12057TIP3    H257663   6.828   1.967  15.203 -2.1314  1.1381  1.6795
12058TIP3   OH257664   0.828   5.671   0.775 -0.5041 -0.2590 -0.3060
12058TIP3    H157665   0.837   5.667   0.680  1.6221 -1.8142 -0.1179
12058TIP3    H257666   0.899   5.616   0.808 -2.8390 -2.0614  2.1514
12059TIP3   OH257667   2.613   0.303   1.462 -0.4723 -0.0567 -0.9516
12059TIP3    H157668   2.588   0.357   1.537  2.6604  0.5037 -0.1998
12059TIP3    H257669   2.594   0.214   1.489 -2.2753  0.3202 -0.7906
12060TIP3   OH257670   4.153   0.658   4.584  0.0149 -0.0687 -0.8044
12060TIP3    H157671   4.192   0.656   4.671 -0.1524 -0.3974 -0.7359
12060TIP3    H257672   4.163   0.569   4.550  0.2203  0.0982 -1.1851
12061TIP3   OH257673   6.358   6.580  12.412  0.9058 -0.3564  0.1352
12061TIP3    H157674   6.299   6.544  12.346  0.5556 -3.2121  1.8093
12061TIP3    H257675   6.403   6.503  12.448  1.3796  1.0637  2.8944
12062TIP3   OH257676   1.334   0.671   5.980 -0.4551 -0.5044 -0.5062
12062TIP3    H157677   1.338   0.665   5.885 -0.9595 -2.4399 -0.4465
12062TIP3    H257678   1.241   0.669   6.001 -0.3182 -1.9949  0.0844
12063TIP3   OH257679   2.524   3.745   2.323 -0.0970  0.5263 -0.2879
12063TIP3    H157680   2.570   3.779   2.245  2.1349  0.2399  0.8079
12063TIP3    H257681   2.578   3.775   2.396  0.1017 -2.4824  0.9101
12064TIP3   OH257682   2.340   6.141   4.265 -0.0437  0.3327  0.2769
12064TIP3    H157683   2.370   6.100   4.345 -0.3869 -0.6743 -0.0963
12064TIP3    H257684   2.385   6.226   4.263  0.8904 -0.1298  0.9195
12065TIP3   OH257685   2.212   0.317   1.107 -0.0712 -0.7920  0.3923
12065TIP3    H157686   2.230   0.313   1.201  1.7954  1.8234  0.2678
12065TIP3    H257687   2.148   0.387   1.098  2.3163  1.4461 -0.4260
12066TIP3   OH257688   5.371   4.994  14.136 -0.2346 -0.6184 -0.0947
12066TIP3    H157689   5.302   4.957  14.080 -0.1387 -1.3802  0.2853
12066TIP3    H257690   5.390   4.926  14.200  2.2855 -1.2364 -1.3952
12067TIP3   OH257691   4.013   6.289  12.084  0.3181 -0.5959 -0.2709
12067TIP3    H157692   4.076   6.231  12.128  0.3593 -0.7634 -0.5487
12067TIP3    H257693   4.026   6.272  11.991  2.2081  1.7480 -0.5314
12068TIP3   OH257694   2.220   5.585   5.438 -0.1647  0.2891 -0.7834
12068TIP3    H157695   2.183   5.648   5.500 -1.1178 -0.2541 -0.7712
12068TIP3    H257696   2.301   5.555   5.479 -0.0713  0.9622 -0.4580
12069TIP3   OH257697   4.689   5.085  13.740 -0.0955 -0.3935 -0.1993
12069TIP3    H157698   4.670   5.084  13.834  1.1734 -1.8842  0.0946
12069TIP3    H257699   4.711   4.994  13.719 -0.4697 -0.1145 -1.9802
12070TIP3   OH257700   4.007   4.003  14.340  0.3283  0.4100  0.3202
12070TIP3    H157701   4.101   3.986  14.349  0.7120  1.2680 -1.7281
12070TIP3    H257702   3.966   3.923  14.374  1.7683  0.0396  1.2949
12071TIP3   OH257703   0.731   4.072   1.690 -0.0523 -0.1633 -0.1987
12071TIP3    H157704   0.688   4.047   1.608  1.8551 -0.6201 -1.1104
12071TIP3    H257705   0.812   4.021   1.691  0.6239  0.8771  1.3090
12072TIP3   OH257706   5.552   2.125  15.563 -0.5633  0.2297 -0.6304
12072TIP3    H157707   5.497   2.068  15.508  2.4759 -0.8877 -2.8242
12072TIP3    H257708   5.602   2.064  15.617 -0.6628  1.1322  0.4989
12073TIP3   OH257709   6.464   3.143   2.525  0.3156  0.2958 -0.0701
12073TIP3    H157710   6.524   3.069   2.527  0.7209  0.4309 -2.6747
12073TIP3    H257711   6.508   3.208   2.469 -1.1736  1.4036 -0.0286
12074TIP3   OH257712   2.982   5.469   4.374  0.7414  0.1112 -0.6464
12074TIP3    H157713   3.077   5.462   4.373  0.6111 -2.5216 -0.4237
12074TIP3    H257714   2.960   5.484   4.467  0.9156  0.8061 -0.7108
12075TIP3   OH257715   2.185   6.078  16.998 -0.2401  0.2396  0.3403
12075TIP3    H157716   2.106   6.125  17.024  0.7673  1.7606  0.8559
12075TIP3    H257717   2.193   6.094  16.904 -0.3671  0.3871  0.3548
12076TIP3   OH257718   4.267   5.831   3.453 -0.2339 -0.1445 -0.2600
12076TIP3    H157719   4.248   5.879   3.533  0.4769  1.6330 -1.1042
12076TIP3    H257720   4.329   5.763   3.481 -1.9270 -1.1910  1.1125
12077TIP3   OH257721   4.278   0.161  15.288  0.2135 -0.8695 -0.4042
12077TIP3    H157722   4.373   0.170  15.279  0.2867 -1.0247  0.2184
12077TIP3    H257723   4.247   0.155  15.197  0.6308  0.6944 -0.6839
12078TIP3   OH257724   0.578   6.628   1.264  0.3074  0.0338  0.5867
12078TIP3    H157725   0.528   6.657   1.340 -0.9913 -0.4498 -0.0673
12078TIP3    H257726   0.537   6.673   1.189  0.6169 -0.6498 -0.0018
12079TIP3   OH257727   0.683   4.305   4.660  0.7270  0.0819  0.4689
12079TIP3    H157728   0.707   4.349   4.742  1.7037 -0.3417  0.4318
12079TIP3    H257729   0.590   4.288   4.667  0.9797 -0.8121  1.9150
12080TIP3   OH257730   0.025   6.759  16.154 -0.7939  0.8937  0.4006
12080TIP3    H157731   0.095   6.763  16.219 -0.7374  1.4578  0.3048
12080TIP3    H257732   0.009   6.850  16.130 -1.1827  0.7259  0.0168
12081TIP3   OH257733   0.104   6.016   3.705  0.0142 -0.0714  0.0256
12081TIP3    H157734   0.046   6.075   3.657 -0.5868 -3.4971 -4.0195
12081TIP3    H257735   0.055   5.994   3.785 -2.0933  0.8051 -0.9634
12082TIP3   OH257736   3.323   2.708  14.990 -0.0085 -0.8104  0.0890
12082TIP3    H157737   3.401   2.749  15.027  0.7292 -2.9421  1.1270
12082TIP3    H257738   3.344   2.695  14.897 -1.2777  3.2374 -0.9539
12083TIP3   OH257739   5.635   5.327  12.314  0.8081  0.0274  0.0679
12083TIP3    H157740   5.666   5.254  12.261  1.6649  0.5805 -0.2153
12083TIP3    H257741   5.628   5.400  12.252 -0.4759  0.0793  0.2510
12084TIP3   OH257742   2.674   2.964   1.039 -0.0484 -0.1916 -0.0442
12084TIP3    H157743   2.662   3.058   1.021 -0.2522 -0.1116  0.4831
12084TIP3    H257744   2.592   2.937   1.080 -0.3509 -0.8242 -1.0613
12085TIP3   OH257745   3.142   2.509   1.489  0.4587 -0.2565  0.3676
12085TIP3    H157746   3.160   2.526   1.396 -2.5507  0.0658 -0.2529
12085TIP3    H257747   3.155   2.594   1.532 -1.4872  0.5185 -0.4328
12086TIP3   OH257748   4.973   3.462   1.357 -0.3736 -0.9212  0.1489
12086TIP3    H157749   5.014   3.526   1.298 -0.1065 -1.7834 -0.6318
12086TIP3    H257750   4.993   3.494   1.445 -0.3606  0.1346 -0.2207
12087TIP3   OH257751   3.796   6.576   5.526 -0.3972 -0.4237  1.0340
12087TIP3    H157752   3.764   6.517   5.594  1.0200 -0.1561  1.9782
12087TIP3    H257753   3.752   6.659   5.545 -2.6211 -1.1540 -0.4742
12088TIP3   OH257754   4.963   5.857  11.672 -0.3263 -0.3928  0.3938
12088TIP3    H157755   4.939   5.770  11.641 -2.5247 -0.0291  0.8539
12088TIP3    H257756   5.015   5.841  11.750  0.9260 -1.2775 -0.5940
12089TIP3   OH257757   2.092   6.195   1.820 -0.1684 -0.0661  0.5872
12089TIP3    H157758   2.015   6.217   1.872  0.8505  1.1868  1.6533
12089TIP3    H257759   2.083   6.247   1.740 -0.5744 -0.1603  0.5701
12090TIP3   OH257760   4.670   2.124   4.505  0.1972 -0.4844  0.3013
12090TIP3    H157761   4.675   2.137   4.410  2.0215 -0.5906  0.3497
12090TIP3    H257762   4.621   2.200   4.537  2.6756  1.5545 -0.3897
12091TIP3   OH257763   3.660   2.838   2.394 -0.1786 -0.4256 -0.1323
12091TIP3    H157764   3.691   2.818   2.306  0.0340  2.5271 -0.8156
12091TIP3    H257765   3.573   2.875   2.381  0.1499  0.7297  0.8057
12092TIP3   OH257766   2.213   2.089   2.222  0.2224 -0.1212 -0.1048
12092TIP3    H157767   2.189   1.997   2.235  0.6700 -0.2741 -0.3370
12092TIP3    H257768   2.257   2.114   2.304  1.4840 -0.5734 -0.6250
12093TIP3   OH257769   2.207   3.356   5.214 -0.1502 -0.0820 -0.0402
12093TIP3    H157770   2.260   3.322   5.286  0.5517  1.1905  0.0890
12093TIP3    H257771   2.125   3.308   5.219  1.2129 -2.6193 -0.6731
12094TIP3   OH257772   3.345   2.765  12.968  0.5110 -0.1417  0.6363
12094TIP3    H157773   3.320   2.702  12.900 -2.5432 -0.2024  1.6690
12094TIP3    H257774   3.400   2.829  12.922  0.3725 -1.3681 -1.3640
12095TIP3   OH257775   5.599   3.962  16.896 -0.0831  0.2035 -0.2384
12095TIP3    H157776   5.503   3.956  16.899 -0.2580  0.4878 -3.1212
12095TIP3    H257777   5.617   4.055  16.881  0.6987  0.2343  0.7797
12096TIP3   OH257778   4.396   3.457  10.565  0.6730 -0.1410 -0.0995
12096TIP3    H157779   4.428   3.390  10.505  1.9929  1.7595 -1.6544
12096TIP3    H257780   4.325   3.500  10.517  0.9849  0.6833  0.1604
12097TIP3   OH257781   5.847   5.282   4.804  0.4569 -0.2991  0.1725
12097TIP3    H157782   5.794   5.210   4.769  1.5696 -0.7779 -0.6078
12097TIP3    H257783   5.937   5.258   4.780  0.8436  1.4093 -0.1910
12098TIP3   OH257784   4.244   0.241   6.195 -0.3883  0.1224  0.2517
12098TIP3    H157785   4.331   0.252   6.157  0.8194  1.6334  3.1406
12098TIP3    H257786   4.258   0.187   6.273 -1.9957  0.6195  0.9429
12099TIP3   OH257787   2.474   2.414   0.541 -0.3087 -0.5948 -1.0838
12099TIP3    H157788   2.408   2.379   0.481  1.4526 -2.1804 -2.2572
12099TIP3    H257789   2.425   2.447   0.615 -2.4074 -1.7637 -1.8565
12100TIP3   OH257790   0.474   0.496   2.131  0.1601  0.2575 -0.3972
12100TIP3    H157791   0.441   0.503   2.221  1.2061 -1.5925  0.2058
12100TIP3    H257792   0.557   0.544   2.133  1.2717 -1.5632  0.3063
12101TIP3   OH257793   1.337   0.473  16.232 -0.1372 -0.1814  0.7382
12101TIP3    H157794   1.427   0.474  16.262  0.3550  0.1034 -0.6909
12101TIP3    H257795   1.321   0.561  16.199 -0.5244 -0.5768 -0.1699
12102TIP3   OH257796   1.129   1.893  15.609  0.5696  0.9976  0.1181
12102TIP3    H157797   1.152   1.812  15.563 -1.9810  0.0033  0.4351
12102TIP3    H257798   1.076   1.942  15.547  1.5614  2.1572  0.1590
12103TIP3   OH257799   0.165   4.615  13.870  0.4934 -0.3928 -0.0161
12103TIP3    H157800   0.091   4.600  13.811  0.4669  0.6511 -0.2637
12103TIP3    H257801   0.138   4.576  13.953 -0.7845  0.8570  0.1984
12104TIP3   OH257802   1.074   1.824   5.200 -0.5804  0.0338 -0.0634
12104TIP3    H157803   1.067   1.899   5.259 -2.2273 -0.8170  0.9045
12104TIP3    H257804   1.104   1.752   5.256  0.3151 -0.2067 -0.8328
12105TIP3   OH257805   6.769   1.909  15.820  0.3187 -0.4237  0.3347
12105TIP3    H157806   6.686   1.872  15.789 -0.1460 -1.0574  2.1705
12105TIP3    H257807   6.836   1.854  15.780 -0.0896  0.3193 -1.4707
12106TIP3   OH257808   5.211   0.799   5.724  0.5267  0.0328  0.2276
12106TIP3    H157809   5.238   0.730   5.663  0.7871 -0.0346  0.4145
12106TIP3    H257810   5.123   0.774   5.751  0.5992 -0.2024  0.2512
12107TIP3   OH257811   6.612   5.170  12.352  0.4774  0.5292  0.0322
12107TIP3    H157812   6.646   5.256  12.376  1.1145  0.3570 -0.2108
12107TIP3    H257813   6.688   5.112  12.360  0.4625  0.2857 -1.4057
12108TIP3   OH257814   6.722   4.205   5.996 -0.2143  0.2135 -0.0620
12108TIP3    H157815   6.718   4.211   5.900 -0.1543 -0.2050 -0.0909
12108TIP3    H257816   6.633   4.226   6.024 -0.3441 -0.1116 -0.2324
12109TIP3   OH257817   5.076   5.784   2.789 -0.6674 -0.3460 -0.2383
12109TIP3    H157818   5.065   5.869   2.831 -1.9709  0.3172 -1.7907
12109TIP3    H257819   5.149   5.797   2.728  0.8889 -1.1572  1.3744
12110TIP3   OH257820   1.536   1.687  15.028  0.0446  0.9644  0.2406
12110TIP3    H157821   1.591   1.693  15.106  2.0193 -1.0239 -0.8940
12110TIP3    H257822   1.581   1.625  14.971 -2.1955  1.0531 -1.7991
12111TIP3   OH257823   2.901   1.941  13.380 -0.0025  0.4850  0.2031
12111TIP3    H157824   2.952   2.010  13.338 -0.0559 -0.4645 -1.5417
12111TIP3    H257825   2.820   1.937  13.328 -1.1712  0.8486  1.9004
12112TIP3   OH257826   5.332   6.538   1.707 -0.1620 -0.1605 -0.0526
12112TIP3    H157827   5.361   6.623   1.674  0.7260 -0.7928 -0.9472
12112TIP3    H257828   5.259   6.514   1.651 -1.2381  0.5495  0.9860
12113TIP3   OH257829   0.144   4.105  11.778  0.2308  0.1980 -0.2507
12113TIP3    H157830   0.224   4.156  11.787  0.8216 -0.6329 -0.6921
12113TIP3    H257831   0.145   4.072  11.688  0.2184 -1.1406  0.2089
12114TIP3   OH257832   6.359   6.811   2.622 -0.6308  0.1596 -0.0429
12114TIP3    H157833   6.426   6.876   2.645  0.1853 -0.7606  0.2473
12114TIP3    H257834   6.305   6.804   2.701  0.8138 -1.3355  0.8946
12115TIP3   OH257835   3.127   5.324   1.774 -0.0331 -0.0973 -0.0497
12115TIP3    H157836   3.114   5.393   1.838  1.5216  0.8024 -0.6521
12115TIP3    H257837   3.158   5.249   1.825  0.1195  0.2643  0.3919
12116TIP3   OH257838   6.045   6.044  15.964 -0.0572 -0.3358  0.0224
12116TIP3    H157839   6.062   6.072  15.874 -0.7482  0.9691  0.2705
12116TIP3    H257840   6.132   6.034  16.003  0.2611  1.3042 -0.1658
12117TIP3   OH257841   4.905   5.660  16.852 -0.5297 -0.2601  0.6225
12117TIP3    H157842   4.842   5.716  16.809  0.2712 -1.0311 -1.6766
12117TIP3    H257843   4.859   5.577  16.865 -0.3568 -0.4470  0.0359
12118TIP3   OH257844   4.098   0.593  17.169  0.7997  0.0470  0.5406
12118TIP3    H157845   4.117   0.687  17.179  2.8251 -0.3094  0.2648
12118TIP3    H257846   4.179   0.549  17.195  0.5980 -1.5618 -1.3905
12119TIP3   OH257847   1.018   2.927  14.849 -0.3551 -0.3783 -0.1385
12119TIP3    H157848   0.988   2.954  14.762  0.8627  0.4385 -0.3288
12119TIP3    H257849   1.024   3.009  14.898 -1.9049 -0.9166  1.0315
12120TIP3   OH257850   0.057   6.767  14.925  0.2549  0.1481  0.4302
12120TIP3    H157851   0.087   6.818  14.850 -0.7081  0.9725  0.5713
12120TIP3    H257852  -0.037   6.787  14.931  0.2105 -0.3097  1.5342
12121TIP3   OH257853   2.770   5.853  14.006  0.2170 -0.1194  0.0623
12121TIP3    H157854   2.703   5.786  14.026 -1.0805  1.0139 -0.3537
12121TIP3    H257855   2.851   5.816  14.042 -0.0306 -2.7971 -1.7862
12122TIP3   OH257856   5.198   2.333   5.690 -0.0842 -0.3186  0.3114
12122TIP3    H157857   5.179   2.386   5.768 -1.1688 -0.1800 -0.0211
12122TIP3    H257858   5.237   2.253   5.725 -0.3043 -0.1443  0.9814
12123TIP3   OH257859   5.058   5.489   2.808 -0.5803 -0.3551 -0.3082
12123TIP3    H157860   5.061   5.584   2.820  0.3541 -0.4427  0.2953
12123TIP3    H257861   5.012   5.457   2.885  1.3067 -0.5583  0.8012
12124TIP3   OH257862   4.801   6.340   4.254 -0.0996  0.1519 -0.0427
12124TIP3    H157863   4.853   6.402   4.203 -0.6982  0.3354 -0.4458
12124TIP3    H257864   4.827   6.254   4.221  0.1286  0.2321 -0.0705
12125TIP3   OH257865   5.059   0.564   6.574  0.0596 -0.1381 -0.5143
12125TIP3    H157866   5.059   0.645   6.524  0.2967 -0.9123 -1.8039
12125TIP3    H257867   5.008   0.503   6.521  2.4713 -1.7413 -1.1538
12126TIP3   OH257868   3.986   0.705   5.153  0.3282  0.2476 -0.3706
12126TIP3    H157869   3.953   0.790   5.184  1.0431 -0.0905  1.4471
12126TIP3    H257870   3.965   0.644   5.224  1.3821 -0.7438 -0.8853
12127TIP3   OH257871   1.601   5.466  10.722 -0.8809 -0.3015  0.2328
12127TIP3    H157872   1.654   5.491  10.646  0.5858 -0.7759  1.0601
12127TIP3    H257873   1.542   5.398  10.689  1.4794 -2.3920  0.0261
12128TIP3   OH257874   2.576   3.687   1.365  0.1290 -0.2499 -0.4550
12128TIP3    H157875   2.490   3.722   1.341 -0.3276 -0.0819  1.2649
12128TIP3    H257876   2.636   3.761   1.350 -0.4863  0.5929  0.9805
12129TIP3   OH257877   4.268   6.002   2.075  0.3723 -0.1018  0.2802
12129TIP3    H157878   4.265   5.907   2.069  2.6270 -0.2080  0.0112
12129TIP3    H257879   4.335   6.020   2.141  2.6609  1.2395 -2.1891
12130TIP3   OH257880   5.049   1.459  16.633 -0.3163 -0.6933  0.1205
12130TIP3    H157881   5.077   1.373  16.664 -0.2595 -0.4258  0.8380
12130TIP3    H257882   4.955   1.450  16.618  0.0454 -1.4790 -1.8950
12131TIP3   OH257883   5.297   3.942   1.359  0.5719 -0.2364 -0.3141
12131TIP3    H157884   5.265   3.955   1.270 -1.4898  0.3240  0.4480
12131TIP3    H257885   5.233   3.883   1.399 -1.3370  3.1855  2.1683
12132TIP3   OH257886   2.257   4.955   2.615  0.0551 -0.3505 -0.3077
12132TIP3    H157887   2.225   4.994   2.533 -2.9780 -2.1162 -0.1338
12132TIP3    H257888   2.328   5.012   2.643 -0.2523  1.5553 -3.0505
12133TIP3   OH257889   1.007   1.582   0.168 -0.2572  0.4184 -0.0622
12133TIP3    H157890   0.960   1.547   0.243 -1.3016  1.6148 -0.1323
12133TIP3    H257891   0.943   1.584   0.098 -0.7727  3.8524  0.3402
12134TIP3   OH257892   1.233   2.635  13.609  0.3665  0.3500  0.4158
12134TIP3    H157893   1.144   2.661  13.630  0.0113  0.5038 -1.1490
12134TIP3    H257894   1.234   2.540  13.620  0.4115  0.4874  1.7582
12135TIP3   OH257895   4.056   3.210  14.726  0.7293 -0.6987 -0.3408
12135TIP3    H157896   4.083   3.277  14.664 -1.3256 -1.2025 -1.9092
12135TIP3    H257897   4.010   3.258  14.795  0.1694 -0.3741 -0.9296
12136TIP3   OH257898   5.029   4.909  10.939 -0.0181  0.3716  0.3818
12136TIP3    H157899   5.029   4.938  11.031  0.4318 -0.3148  0.5996
12136TIP3    H257900   4.953   4.954  10.901  0.0036  0.9543  0.9912
12137TIP3   OH257901   1.559   4.904   4.074 -0.3610 -0.1133  0.7755
12137TIP3    H157902   1.603   4.897   3.989  0.7152  1.3055  1.1818
12137TIP3    H257903   1.502   4.828   4.077  0.0016 -0.5092 -0.9789
12138TIP3   OH257904   4.769   2.697   1.354  0.3291  0.0924  0.4019
12138TIP3    H157905   4.783   2.778   1.305 -0.2609 -0.4377 -0.6648
12138TIP3    H257906   4.674   2.689   1.361  0.3924  0.0939  1.5559
12139TIP3   OH257907   6.448   5.109  12.653 -0.9320 -0.0360 -0.0053
12139TIP3    H157908   6.512   5.049  12.616  0.8778  0.7242  1.7437
12139TIP3    H257909   6.381   5.051  12.691 -0.3540 -0.8928 -0.2524
12140TIP3   OH257910   0.848   1.852   3.821 -0.0587  0.1176 -0.2048
12140TIP3    H157911   0.846   1.766   3.864  0.3773  0.7030  1.0600
12140TIP3    H257912   0.837   1.914   3.893 -2.0888  1.1120 -1.2802
12141TIP3   OH257913   2.706   3.353   5.743  0.5113 -0.0464  0.5261
12141TIP3    H157914   2.742   3.406   5.814  0.7126  0.9756 -0.2975
12141TIP3    H257915   2.686   3.417   5.674  2.6238 -1.1922 -1.2994
12142TIP3   OH257916   1.620   4.607  11.244  0.5221  0.1292  0.1391
12142TIP3    H157917   1.642   4.658  11.322  0.7006  1.9535 -1.0540
12142TIP3    H257918   1.704   4.591  11.202  0.2738  0.6827 -0.5801
12143TIP3   OH257919   1.067   3.826   4.401  0.4562 -0.3284  0.1177
12143TIP3    H157920   1.074   3.742   4.446  0.3585 -1.3215 -1.6060
12143TIP3    H257921   1.131   3.882   4.444  1.0107 -1.5031  0.8760
12144TIP3   OH257922   3.575   4.291  16.842 -0.5661  0.2084 -0.0889
12144TIP3    H157923   3.596   4.381  16.816 -0.0867  0.2901  0.5784
12144TIP3    H257924   3.659   4.248  16.849 -0.7273  0.0082  0.6823
12145TIP3   OH257925   2.818   1.341  12.259 -0.1786  0.0111  0.7003
12145TIP3    H157926   2.880   1.380  12.320  0.3691 -1.5124  1.1603
12145TIP3    H257927   2.842   1.378  12.174  0.9223 -0.0288  0.9756
12146TIP3   OH257928   6.280   6.569   4.040 -0.2519 -0.5626  0.1599
12146TIP3    H157929   6.314   6.658   4.052 -1.1414 -0.0220 -1.0745
12146TIP3    H257930   6.356   6.513   4.051  0.2734  0.3223  1.2634
12147TIP3   OH257931   4.165   2.056  14.496  0.8398 -0.0157  0.0591
12147TIP3    H157932   4.226   1.983  14.506 -0.6389 -1.3198 -0.0096
12147TIP3    H257933   4.131   2.071  14.584  1.7263  1.1711  0.2238
12148TIP3   OH257934   4.113   2.813  15.092 -0.2260 -0.1060 -0.4631
12148TIP3    H157935   4.153   2.893  15.126 -0.9950 -0.1674  0.6346
12148TIP3    H257936   4.052   2.843  15.025 -0.0662  0.1746 -0.4829
12149TIP3   OH257937   4.730   0.680   3.153  0.1287 -0.1118  0.1672
12149TIP3    H157938   4.695   0.742   3.089  0.9778 -1.7979 -2.0780
12149TIP3    H257939   4.807   0.723   3.188 -0.0980  0.6830 -0.2703
12150TIP3   OH257940   3.453   3.035  13.484  0.1103 -0.1729 -0.9095
12150TIP3    H157941   3.434   3.026  13.391  0.5541 -3.2774 -0.8081
12150TIP3    H257942   3.368   3.025  13.527  0.0710  0.0834 -0.9246
12151TIP3   OH257943   6.258   5.759  16.519  0.1191 -0.0306 -0.2256
12151TIP3    H157944   6.164   5.763  16.532 -0.0109 -0.3478 -1.0544
12151TIP3    H257945   6.288   5.690  16.579  0.1561  1.5907  1.7549
12152TIP3   OH257946   0.465   4.273   0.682 -0.4536  0.4908 -0.3077
12152TIP3    H157947   0.467   4.186   0.721 -0.4001  0.9855  0.8192
12152TIP3    H257948   0.413   4.262   0.603 -0.3411 -0.5887 -0.2496
12153TIP3   OH257949   3.656   5.234   5.325  0.0065 -0.0235 -0.0681
12153TIP3    H157950   3.566   5.251   5.353 -0.4872 -0.7186 -1.2105
12153TIP3    H257951   3.663   5.139   5.323  0.8286  0.0287  0.1959
12154TIP3   OH257952   4.426   4.344   4.200  0.0229  0.1970 -0.2813
12154TIP3    H157953   4.483   4.342   4.276 -0.2502 -0.0854 -0.0809
12154TIP3    H257954   4.340   4.318   4.233 -0.2560  0.7407 -0.5507
12155TIP3   OH257955   0.983   5.824   4.853  0.5202  0.3171 -0.1751
12155TIP3    H157956   0.944   5.736   4.848  1.0897  0.0520 -0.0047
12155TIP3    H257957   1.073   5.809   4.882  0.5156  0.9876  0.2046
12156TIP3   OH257958   1.910   0.661  11.014  0.5924  0.8116 -0.0845
12156TIP3    H157959   1.827   0.694  11.049  0.5153  0.2549  0.2622
12156TIP3    H257960   1.914   0.698  10.925  0.6427  1.9848  0.3851
12157TIP3   OH257961   4.745   6.425  16.863  0.3228  0.1636  0.2466
12157TIP3    H157962   4.805   6.486  16.820  2.4377  0.2540  3.0609
12157TIP3    H257963   4.780   6.339  16.843  0.6547  0.1549  0.8580
12158TIP3   OH257964   1.384   5.829   1.584 -0.3693  0.3284 -0.1576
12158TIP3    H157965   1.442   5.777   1.639  0.0680  0.1862 -0.7442
12158TIP3    H257966   1.389   5.917   1.620 -2.4480 -0.2966  1.9405
12159TIP3   OH257967   1.115   4.688   4.539  0.2043  1.0091  0.3551
12159TIP3    H157968   1.200   4.723   4.510  0.5962 -0.7673 -0.8030
12159TIP3    H257969   1.053   4.721   4.475  1.2091 -3.7795 -3.7787
12160TIP3   OH257970   2.010   5.591   6.075  0.3846  0.2636  0.2901
12160TIP3    H157971   2.064   5.669   6.066  0.7861 -0.0444 -0.0557
12160TIP3    H257972   2.012   5.551   5.988 -0.4260  0.2567  0.2646
12161TIP3   OH257973   3.294   1.208   6.076 -0.0617  0.1222  0.3113
12161TIP3    H157974   3.378   1.217   6.122  0.0051  0.1681  0.1784
12161TIP3    H257975   3.248   1.139   6.125  0.0917  0.0295  0.3247
12162TIP3   OH257976   6.190   1.592  16.210  0.1516 -0.0299 -0.4040
12162TIP3    H157977   6.136   1.513  16.222 -1.3764  1.1527  0.9485
12162TIP3    H257978   6.136   1.651  16.159  0.9723  0.4549 -0.7369
12163TIP3   OH257979   2.075   0.315  11.689  0.2815  0.0818 -0.2596
12163TIP3    H157980   2.119   0.371  11.626  0.1131  0.5916  0.0726
12163TIP3    H257981   2.053   0.236  11.639  1.1715 -0.0025 -0.5428
12164TIP3   OH257982   6.029   5.012   4.184 -0.3676  0.3285 -0.0619
12164TIP3    H157983   6.098   4.995   4.119 -0.5207  3.1712 -1.1252
12164TIP3    H257984   5.953   5.037   4.132 -1.0501  0.9423  1.1930
12165TIP3   OH257985   1.141   4.325   3.255 -0.1667  0.3940 -0.1019
12165TIP3    H157986   1.054   4.289   3.241  0.1524 -0.3439 -0.2306
12165TIP3    H257987   1.182   4.267   3.319  0.1975  0.7818  0.0235
12166TIP3   OH257988   5.484   0.241   1.731 -0.3061 -0.1873 -0.2590
12166TIP3    H157989   5.415   0.287   1.779  0.7388  1.1270  0.0486
12166TIP3    H257990   5.560   0.243   1.790 -0.0802 -1.8950 -0.4536
12167TIP3   OH257991   3.364   5.098   1.090  0.2804  0.4816 -0.0709
12167TIP3    H157992   3.291   5.048   1.128  0.3426  1.3959  1.3280
12167TIP3    H257993   3.326   5.183   1.069  0.4019  0.1931 -1.5615
12168TIP3   OH257994   2.531   2.960   1.486  0.1186 -0.0817 -0.3889
12168TIP3    H157995   2.591   2.964   1.411  1.0505  0.8629  0.3706
12168TIP3    H257996   2.565   3.025   1.548 -0.7918 -0.6269  0.7357
12169TIP3   OH257997   6.202   6.496  14.048 -0.1845  0.8261 -0.2677
12169TIP3    H157998   6.235   6.560  13.985 -0.9678  0.0929 -1.4445
12169TIP3    H257999   6.107   6.508  14.047 -0.3132 -0.0996 -0.2359
12170TIP3   OH258000   1.700   0.444  11.371 -0.3339 -0.4541 -0.1900
12170TIP3    H158001   1.767   0.510  11.352 -1.1994 -0.0415 -1.9647
12170TIP3    H258002   1.730   0.402  11.452  0.9439  1.1688  0.2181
12171TIP3   OH258003   5.716   4.607   2.684  0.1358 -0.2113 -0.1973
12171TIP3    H158004   5.727   4.591   2.590 -0.4821 -1.4550 -0.0733
12171TIP3    H258005   5.638   4.663   2.690  1.5587  1.9393 -0.5461
12172TIP3   OH258006   1.024   4.474   0.591  0.2986  0.3000  0.2155
12172TIP3    H158007   1.014   4.468   0.496  0.9029 -0.5482  0.1973
12172TIP3    H258008   1.090   4.543   0.603  0.8683 -0.1911 -0.0288
12173TIP3   OH258009   0.278   0.534   4.070 -0.4118  0.1654  0.5610
12173TIP3    H158010   0.284   0.629   4.065 -2.0803  0.3074  0.7752
12173TIP3    H258011   0.249   0.507   3.983 -1.2359 -0.0080  0.8774
12174TIP3   OH258012   3.194   6.265   4.459 -0.1139 -0.1455 -0.4018
12174TIP3    H158013   3.116   6.307   4.495 -0.4156 -0.3891 -0.7651
12174TIP3    H258014   3.240   6.230   4.536  0.7399  1.7841  0.0329
12175TIP3   OH258015   6.399   2.601  13.392  0.7605  0.6205 -0.1212
12175TIP3    H158016   6.309   2.584  13.363  0.9018  0.5597 -0.5317
12175TIP3    H258017   6.448   2.614  13.311  1.0637  0.9545  0.1141
12176TIP3   OH258018   0.223   0.557  13.272 -0.2317 -0.9489 -0.4053
12176TIP3    H158019   0.286   0.621  13.239 -0.8294 -1.2007 -2.1942
12176TIP3    H258020   0.177   0.527  13.193 -3.4453  0.1179  0.8747
12177TIP3   OH258021   4.498   5.328  16.794  0.1026  0.0978 -0.4727
12177TIP3    H158022   4.419   5.338  16.741  0.0602 -1.0657 -0.6538
12177TIP3    H258023   4.493   5.239  16.828 -0.3559  1.0950  2.3010
12178TIP3   OH258024   4.779   2.934  16.825  0.3448  0.1142  0.5987
12178TIP3    H158025   4.688   2.940  16.795 -0.5931  1.7347  3.3240
12178TIP3    H258026   4.776   2.869  16.895  1.4077 -0.2065  0.3538
12179TIP3   OH258027   0.836   6.601   1.353 -0.0626 -0.5162 -0.6183
12179TIP3    H158028   0.756   6.577   1.306  0.3119 -0.8537 -1.0993
12179TIP3    H258029   0.873   6.674   1.303 -0.0124 -0.4360 -0.4650
12180TIP3   OH258030   5.812   0.279  17.105 -0.2644  0.3596 -0.1203
12180TIP3    H158031   5.723   0.305  17.128  0.0696  0.8766  0.6255
12180TIP3    H258032   5.814   0.285  17.010 -0.7905  1.1534 -0.0987
12181TIP3   OH258033   2.493   4.072  13.932 -0.1698  0.2190  0.0958
12181TIP3    H158034   2.456   4.017  14.001  2.8850 -1.6699  0.4108
12181TIP3    H258035   2.582   4.090  13.961  1.1265 -0.3417 -3.1202
12182TIP3   OH258036   5.825   4.521  15.151  0.9002  0.3920  0.0660
12182TIP3    H158037   5.844   4.477  15.068 -0.6854 -0.3187  0.0503
12182TIP3    H258038   5.770   4.595  15.127  1.8901  1.2454  0.3243
12183TIP3   OH258039   4.731   3.613   2.513 -0.0400 -0.0758 -0.0962
12183TIP3    H158040   4.790   3.598   2.586 -0.9081 -1.2510  0.3977
12183TIP3    H258041   4.671   3.682   2.544 -0.0991 -0.2247  0.1249
12184TIP3   OH258042   2.734   6.487  16.702 -0.4305  0.3011 -0.0592
12184TIP3    H158043   2.707   6.543  16.630 -0.8891  0.2678  0.0823
12184TIP3    H258044   2.810   6.532  16.740 -1.2473  1.2295  0.5260
12185TIP3   OH258045   2.397   1.750  16.694  0.0055 -0.3970  0.2000
12185TIP3    H158046   2.409   1.658  16.668 -0.3251 -0.5935  0.7506
12185TIP3    H258047   2.469   1.795  16.650 -0.6345 -0.6951 -1.2136
12186TIP3   OH258048   1.175   4.423  11.651  0.1044  0.1420 -0.7496
12186TIP3    H158049   1.194   4.338  11.613  0.6449  0.3505 -0.9488
12186TIP3    H258050   1.083   4.438  11.630  0.5531  0.5505 -2.5710
12187TIP3   OH258051   0.954   4.891  13.219  0.8147 -0.4880 -0.5923
12187TIP3    H158052   0.899   4.832  13.167  0.1069 -1.4362  1.1438
12187TIP3    H258053   1.042   4.857  13.210  0.6524 -0.8239 -0.9263
12188TIP3   OH258054   3.995   4.868  14.881 -0.1216 -0.6810  0.0637
12188TIP3    H158055   4.041   4.933  14.934 -0.9184  0.9143 -1.1055
12188TIP3    H258056   3.919   4.844  14.934 -0.6655  0.5520 -0.1163
12189TIP3   OH258057   6.024   0.677  16.592 -0.4867 -0.1172  0.1301
12189TIP3    H158058   5.977   0.630  16.661 -1.0948 -0.0862 -0.2515
12189TIP3    H258059   6.088   0.731  16.638  1.1361 -2.2700  0.5195
12190TIP3   OH258060   4.223   2.638  17.067  0.2997  0.0745  0.1974
12190TIP3    H158061   4.137   2.599  17.050  0.5079 -0.3077  0.0236
12190TIP3    H258062   4.264   2.642  16.980  0.1604  0.9618  0.1620
12191TIP3   OH258063   2.691   0.500  16.414  0.4971  0.3464 -0.0044
12191TIP3    H158064   2.671   0.501  16.508  0.6000 -0.2467  0.0271
12191TIP3    H258065   2.640   0.427  16.380  0.4687  0.5530 -0.4169
12192TIP3   OH258066   3.357   1.043  11.698 -0.0558 -0.5766  0.5872
12192TIP3    H158067   3.344   0.979  11.768  1.5050 -1.7790 -0.1632
12192TIP3    H258068   3.324   0.999  11.619  1.0552 -0.4890  0.0594
12193TIP3   OH258069   0.980   2.184   3.215  0.1186  0.2253  0.4456
12193TIP3    H158070   0.986   2.246   3.142  0.9987 -0.0017  0.3055
12193TIP3    H258071   1.070   2.177   3.247  0.0545 -1.0757  0.3794
12194TIP3   OH258072   5.969   3.832  15.177  0.1777 -0.1766  0.2368
12194TIP3    H158073   5.931   3.897  15.235  0.9426 -0.4207  1.0458
12194TIP3    H258074   5.931   3.749  15.205 -0.1928 -0.1824 -0.2661
12195TIP3   OH258075   5.425   6.339  16.058  0.5402 -0.7061 -0.6787
12195TIP3    H158076   5.456   6.348  15.968 -0.8917  1.6608 -1.0246
12195TIP3    H258077   5.436   6.426  16.096  0.0097 -1.3531  1.0554
12196TIP3   OH258078   5.535   2.721   4.707 -0.1086  0.5939 -0.3076
12196TIP3    H158079   5.541   2.679   4.621 -1.8616  0.3340 -0.3283
12196TIP3    H258080   5.578   2.660   4.767 -1.7464 -0.8355 -0.4986
12197TIP3   OH258081   6.030   6.190  12.408 -0.1989  0.2637 -0.0360
12197TIP3    H158082   6.107   6.143  12.439 -1.4986 -1.6048  0.4915
12197TIP3    H258083   6.008   6.250  12.479 -0.2490 -0.4357  0.5362
12198TIP3   OH258084   5.213   1.443   5.405 -0.5947  0.0279  0.4655
12198TIP3    H158085   5.204   1.519   5.462  0.8274  0.1045  0.6350
12198TIP3    H258086   5.123   1.418   5.383 -1.1188  2.4221 -0.4903
12199TIP3   OH258087   1.145   0.264  14.598 -0.1282 -0.2432 -0.3088
12199TIP3    H158088   1.112   0.351  14.577  0.9375  0.6053  1.3397
12199TIP3    H258089   1.086   0.233  14.667 -0.3782 -0.7663 -0.7457
12200TIP3   OH258090   3.034   2.415   1.725 -0.1239 -0.7113 -0.7170
12200TIP3    H158091   3.058   2.323   1.729  1.5824 -0.2800 -0.3777
12200TIP3    H258092   3.074   2.447   1.644  0.0128 -0.0742 -0.4027
12201TIP3   OH258093   0.129   2.651   0.626  0.0193 -0.2322 -0.3916
12201TIP3    H158094   0.092   2.673   0.540  1.9621 -0.8083 -1.4208
12201TIP3    H258095   0.052   2.638   0.682 -1.2847  0.6293 -1.9052
12202TIP3   OH258096   1.234   1.428   0.445 -0.2886  0.1333  0.0198
12202TIP3    H158097   1.206   1.518   0.463 -0.0641 -0.3875  3.7609
12202TIP3    H258098   1.248   1.390   0.532  0.7693 -3.1829 -1.4655
12203TIP3   OH258099   2.590   1.342   2.808 -0.0015 -0.1375 -0.0180
12203TIP3    H158100   2.528   1.401   2.852 -0.0156 -0.4496  0.3872
12203TIP3    H258101   2.628   1.290   2.879  1.1105  0.3928 -0.1940
12204TIP3   OH258102   5.377   1.133   1.349 -0.0856  1.3459  0.4612
12204TIP3    H158103   5.422   1.076   1.412 -0.9591 -1.1388 -1.0231
12204TIP3    H258104   5.291   1.092   1.337 -0.1276  2.0193 -1.9538
12205TIP3   OH258105   1.778   6.306  11.559  0.4315  0.2174 -0.3739
12205TIP3    H158106   1.796   6.348  11.475  0.2487  1.7791  0.3409
12205TIP3    H258107   1.746   6.376  11.615 -2.0277 -1.2572  0.2302
12206TIP3   OH258108   5.509   0.046  14.004  0.1598 -0.2908 -0.1480
12206TIP3    H158109   5.575  -0.011  14.044 -0.5484 -1.4269 -0.5360
12206TIP3    H258110   5.547   0.069  13.919 -0.2594 -1.6432 -0.7413
12207TIP3   OH258111   0.698   3.680  13.808 -0.5524 -0.1525  0.6386
12207TIP3    H158112   0.761   3.658  13.739 -0.5254 -0.6639  0.8203
12207TIP3    H258113   0.741   3.651  13.889 -1.1266 -0.7423  0.7393
12208TIP3   OH258114   5.426   0.888  17.023 -0.5937  0.2453  0.0605
12208TIP3    H158115   5.407   0.890  17.116 -0.4883 -0.4068  0.1005
12208TIP3    H258116   5.354   0.936  16.982 -1.9239 -1.4995  0.2684
12209TIP3   OH258117   0.235   2.528  16.241  0.8476 -0.1248 -0.6248
12209TIP3    H158118   0.180   2.606  16.246  1.3844  0.3856 -2.1205
12209TIP3    H258119   0.178   2.456  16.269  0.0490  0.6612 -0.1907
12210TIP3   OH258120   4.039   4.308   2.127 -0.7281 -0.3395  0.7751
12210TIP3    H158121   4.105   4.298   2.058 -0.4683  0.5710  0.8844
12210TIP3    H258122   4.087   4.293   2.209 -0.9475 -0.9964  0.7899
12211TIP3   OH258123   1.524   4.373   5.646  0.4955 -0.1372 -0.2647
12211TIP3    H158124   1.478   4.455   5.667  1.0088  0.0114  0.3352
12211TIP3    H258125   1.553   4.340   5.731  0.8945 -0.5860 -0.5695
12212TIP3   OH258126   4.081   1.376  11.380  0.1246  0.0195 -0.0027
12212TIP3    H158127   4.093   1.449  11.440 -0.1743  0.6986 -0.7511
12212TIP3    H258128   4.141   1.308  11.412 -0.1116  0.3264  1.1092
12213TIP3   OH258129   0.071   3.439  16.219 -0.3330 -0.1201 -0.1784
12213TIP3    H158130  -0.001   3.415  16.160  0.0208  0.2542 -0.7745
12213TIP3    H258131   0.073   3.535  16.217 -0.2108 -0.1123  0.3138
12214TIP3   OH258132   2.383   1.772   5.366  0.0972 -0.3067  0.1745
12214TIP3    H158133   2.453   1.707   5.360  1.3105  0.9948 -0.2823
12214TIP3    H258134   2.424   1.849   5.406 -0.6484  0.9989 -1.4377
12215TIP3   OH258135   2.281   4.467  12.772  0.6704 -0.1119 -0.2249
12215TIP3    H158136   2.331   4.448  12.851  0.7848 -0.4199 -0.3719
12215TIP3    H258137   2.263   4.561  12.777 -0.7985 -0.4259  1.0353
12216TIP3   OH258138   1.541   0.574   3.516 -0.0216 -0.0169  0.1138
12216TIP3    H158139   1.503   0.627   3.587  1.6588  2.2539 -0.5761
12216TIP3    H258140   1.623   0.618   3.494  1.3980 -2.8385 -0.7009
12217TIP3   OH258141   4.614   2.755  11.843 -0.1454 -0.3291 -0.0740
12217TIP3    H158142   4.681   2.823  11.834 -0.0769 -0.1694  1.3722
12217TIP3    H258143   4.627   2.698  11.767  3.6631 -2.0408  1.5640
12218TIP3   OH258144   3.117   4.825   5.081  0.1999 -0.7386 -0.8207
12218TIP3    H158145   3.077   4.894   5.027 -1.0062  0.6538  1.6704
12218TIP3    H258146   3.196   4.865   5.116  1.3743 -1.8896 -2.0628
12219TIP3   OH258147   6.627   2.789   0.920  0.2431  0.8627 -0.4166
12219TIP3    H158148   6.551   2.839   0.890 -0.2866  0.5511  0.3530
12219TIP3    H258149   6.595   2.742   0.998  1.4801  1.4301  0.4643
12220TIP3   OH258150   0.374   1.394  15.235  0.3826 -0.0339 -0.0555
12220TIP3    H158151   0.460   1.355  15.254  0.2016  0.5948  2.3871
12220TIP3    H258152   0.394   1.483  15.205  0.6401 -0.7309 -2.0931
12221TIP3   OH258153   5.220   5.191  14.946 -0.0649 -0.3616 -0.0798
12221TIP3    H158154   5.187   5.152  15.027  0.4258 -3.0313 -1.0642
12221TIP3    H258155   5.272   5.266  14.975 -1.7998  0.1947  1.8701
12222TIP3   OH258156   0.956   4.392   5.172 -0.2377  0.1969  0.0019
12222TIP3    H158157   0.922   4.383   5.083  0.7901  0.1372 -0.4049
12222TIP3    H258158   0.969   4.302   5.202 -1.8430  0.1775  0.7447
12223TIP3   OH258159   6.680   6.070   2.088 -0.1956 -0.4958 -0.0009
12223TIP3    H158160   6.757   6.028   2.125 -0.9758 -2.3956 -0.4155
12223TIP3    H258161   6.682   6.160   2.122  2.0711 -0.5533  0.1298
12224TIP3   OH258162   5.547   4.152   0.614 -0.6769  0.6291  0.3080
12224TIP3    H158163   5.607   4.159   0.539 -1.0730  1.8586  0.0781
12224TIP3    H258164   5.495   4.074   0.595  0.5422 -0.2130  0.3005
12225TIP3   OH258165   4.835   5.077  14.341 -0.7850 -0.3627 -0.2161
12225TIP3    H158166   4.893   5.152  14.330 -0.8110 -0.3310 -0.1379
12225TIP3    H258167   4.862   5.037  14.423 -0.1743 -0.9674 -0.6961
12226TIP3   OH258168   2.735   3.509  14.553  0.3094  0.1559  0.0057
12226TIP3    H158169   2.645   3.493  14.526  0.5327 -1.5059  0.1025
12226TIP3    H258170   2.729   3.548  14.640 -0.3241 -1.7570  0.8688
12227TIP3   OH258171   5.734   5.092  13.740  0.0155  0.2313  0.1156
12227TIP3    H158172   5.707   5.184  13.741  0.8004  0.4861 -0.4220
12227TIP3    H258173   5.759   5.076  13.649  0.2464 -0.4041  0.2892
12228TIP3   OH258174   5.674   4.451  14.917  0.4405 -0.6054 -0.8867
12228TIP3    H158175   5.738   4.515  14.887 -0.5020  0.3765 -0.8459
12228TIP3    H258176   5.597   4.465  14.863 -0.5266 -0.2556  0.5140
12229TIP3   OH258177   2.076   4.614  15.597  0.5192  0.5973 -0.4777
12229TIP3    H158178   1.998   4.563  15.578  0.6604 -0.1201  0.7453
12229TIP3    H258179   2.139   4.588  15.529  0.5380 -0.7674  0.0241
12230TIP3   OH258180   6.588   2.684   2.826 -0.4335 -0.3700 -0.0979
12230TIP3    H158181   6.663   2.666   2.882 -0.5284  0.1824  0.2118
12230TIP3    H258182   6.591   2.779   2.811 -2.0487 -0.0253  1.3612
12231TIP3   OH258183   0.448   3.453   1.512  0.4136 -0.6281  0.1663
12231TIP3    H158184   0.357   3.422   1.515  0.1184  0.0406 -1.1440
12231TIP3    H258185   0.500   3.373   1.503 -0.0961 -0.9690  0.2038
12232TIP3   OH258186   1.214   3.903  16.113 -0.6849 -0.1100  0.3398
12232TIP3    H158187   1.305   3.930  16.112 -0.4947 -0.3731  3.0857
12232TIP3    H258188   1.164   3.984  16.123 -0.7224 -0.0389 -0.3679
12233TIP3   OH258189   1.533   5.669  10.444  0.6668  0.3266 -0.0273
12233TIP3    H158190   1.462   5.693  10.384  0.8546  2.5606  0.5375
12233TIP3    H258191   1.500   5.592  10.490 -0.9249  0.6291 -0.5767
12234TIP3   OH258192   1.054   5.234  15.165 -0.0605 -0.7802  0.0991
12234TIP3    H158193   0.963   5.205  15.164 -0.1623 -0.5578  1.4173
12234TIP3    H258194   1.096   5.185  15.094 -1.4265 -0.0929 -1.2293
12235TIP3   OH258195   0.346   6.829  11.462  0.2065 -0.1803 -0.3598
12235TIP3    H158196   0.342   6.891  11.389  0.7032  0.4275  0.1145
12235TIP3    H258197   0.415   6.864  11.519  1.4118 -1.8749 -0.7066
12236TIP3   OH258198   0.874   0.987   1.070 -0.1947 -0.1798 -0.1291
12236TIP3    H158199   0.918   1.017   1.150  3.3091  0.2774 -2.0201
12236TIP3    H258200   0.898   0.894   1.063  0.3852  0.0334 -1.1184
12237TIP3   OH258201   0.904   6.745   0.906  0.2915  0.4053 -0.1719
12237TIP3    H158202   0.875   6.655   0.889  0.9717  0.4047 -1.4684
12237TIP3    H258203   0.829   6.799   0.882  0.0945  0.2224  0.0240
12238TIP3   OH258204   6.032   5.184   3.056  0.0382 -0.1283  0.0786
12238TIP3    H158205   5.990   5.234   3.127 -0.3330  0.1579 -0.3383
12238TIP3    H258206   5.981   5.103   3.051 -0.2103  0.0416 -0.1529
12239TIP3   OH258207   5.847   1.084  16.236  0.0527  0.0775  0.1701
12239TIP3    H158208   5.880   1.027  16.305 -1.9081 -0.6736  0.5727
12239TIP3    H258209   5.776   1.132  16.277  0.2201  1.1706 -0.7825
12240TIP3   OH258210   3.458   4.271   3.885 -1.5453  0.1856  0.0870
12240TIP3    H158211   3.385   4.272   3.947 -2.0496 -0.5919 -0.4752
12240TIP3    H258212   3.445   4.350   3.832 -1.4080  0.5752  0.6255
12241TIP3   OH258213   5.356   1.676   1.641 -0.3259  0.0042 -0.0771
12241TIP3    H158214   5.274   1.651   1.599 -0.8851 -1.4744  1.7694
12241TIP3    H258215   5.420   1.681   1.569 -1.6194 -0.6109 -1.3032
12242TIP3   OH258216   4.362   2.353  11.619  0.0694 -0.1685 -0.3712
12242TIP3    H158217   4.309   2.329  11.543 -1.1084  0.6505  0.1551
12242TIP3    H258218   4.302   2.402  11.675  1.2151  0.1820  0.5838
12243TIP3   OH258219   1.054   1.702  16.552 -0.2314 -0.0081 -0.3131
12243TIP3    H158220   1.069   1.794  16.531 -0.2984  0.3800  1.1889
12243TIP3    H258221   1.003   1.669  16.479  0.4708  0.9368 -1.2604
12244TIP3   OH258222   4.315   5.718  14.298  0.0858  0.2448 -0.5853
12244TIP3    H158223   4.307   5.706  14.203  1.9395 -0.6077 -0.6858
12244TIP3    H258224   4.407   5.741  14.311 -0.1140  0.2152  1.0287
12245TIP3   OH258225   4.383   6.090  13.487 -0.7288  0.3326  0.1188
12245TIP3    H158226   4.426   6.025  13.543 -1.1115 -0.1570 -0.1448
12245TIP3    H258227   4.446   6.162  13.481  0.1855 -0.4926 -0.5109
12246TIP3   OH258228   1.475   4.459  13.414  0.1847 -0.2661  0.3487
12246TIP3    H158229   1.431   4.510  13.481 -0.2941 -0.8417  0.4767
12246TIP3    H258230   1.564   4.493  13.412 -0.4040  1.3502 -0.3467
12247TIP3   OH258231   5.136   2.866   3.301  0.2811 -0.8797 -0.9460
12247TIP3    H158232   5.177   2.792   3.347  0.7152 -0.6540 -0.9676
12247TIP3    H258233   5.209   2.922   3.275 -0.0537 -0.3511 -0.7760
12248TIP3   OH258234   4.423   5.172  12.235  0.0506 -0.2348 -0.7646
12248TIP3    H158235   4.339   5.135  12.211  0.0264  1.2268 -3.2679
12248TIP3    H258236   4.480   5.154  12.161  1.1368  1.1640 -0.3234
12249TIP3   OH258237   5.333   0.463   1.114 -0.2819 -0.0842  0.2530
12249TIP3    H158238   5.366   0.378   1.141 -0.5161 -1.2191 -2.7475
12249TIP3    H258239   5.406   0.504   1.067 -0.6635  0.7449  0.3570
12250TIP3   OH258240   0.361   6.295  16.447 -0.4879  0.3387  0.4481
12250TIP3    H158241   0.361   6.367  16.385  3.9214  0.6196  0.4738
12250TIP3    H258242   0.354   6.216  16.392 -0.8692  0.6911 -0.0113
12251TIP3   OH258243   2.499   0.638   5.524 -0.7086 -0.1526  0.1033
12251TIP3    H158244   2.431   0.704   5.539  0.6635  1.5780 -0.9614
12251TIP3    H258245   2.457   0.555   5.546 -2.5238  1.0466  1.4198
12252TIP3   OH258246   0.636   0.975  13.375  0.0371 -0.2476  0.4380
12252TIP3    H158247   0.688   0.991  13.454 -1.5444  0.1413  1.4445
12252TIP3    H258248   0.566   0.916  13.403  0.1738 -1.1450 -0.9952
12253TIP3   OH258249   2.130   3.582  15.753  0.0810  0.5483 -1.4527
12253TIP3    H158250   2.079   3.548  15.680 -0.8989 -1.8823  0.2273
12253TIP3    H258251   2.079   3.560  15.831  2.4554  0.3576  0.1535
12254TIP3   OH258252   1.373   2.846   1.572 -0.4154  0.1997  0.2522
12254TIP3    H158253   1.402   2.914   1.634 -1.3087 -0.2555  1.1842
12254TIP3    H258254   1.345   2.896   1.495 -0.1956  0.8378  0.5708
12255TIP3   OH258255   0.711   5.977  15.910  0.2044  0.5562 -0.5305
12255TIP3    H158256   0.781   6.035  15.879 -0.2657  1.2546 -0.3011
12255TIP3    H258257   0.740   5.949  15.997  2.0073 -2.1935 -1.8632
12256TIP3   OH258258   0.894   0.169   2.930  0.3820 -0.4828  0.0288
12256TIP3    H158259   0.984   0.184   2.901  0.3336 -0.5135 -0.1414
12256TIP3    H258260   0.883   0.074   2.927  0.2463 -0.4591 -0.2528
12257TIP3   OH258261   1.595   0.679  15.414  0.6271  0.2223  0.2392
12257TIP3    H158262   1.648   0.705  15.489 -0.8088  0.4512  1.2153
12257TIP3    H258263   1.542   0.756  15.394 -0.8369 -0.6525  0.6456
12258TIP3   OH258264   3.919   1.087  10.390 -0.6132 -0.4995 -0.0727
12258TIP3    H158265   3.981   1.151  10.426  0.1681 -1.2940  0.0294
12258TIP3    H258266   3.974   1.021  10.348 -1.3495 -1.5489  0.5623
12259TIP3   OH258267   2.286   2.147   0.820  0.3793 -0.0616 -0.0766
12259TIP3    H158268   2.246   2.172   0.737  3.1588  1.9354 -0.9526
12259TIP3    H258269   2.214   2.107   0.870 -2.5522  2.7722 -1.6544
12260TIP3   OH258270   1.080   0.786  15.628  0.1088  0.2008  0.0506
12260TIP3    H158271   1.053   0.796  15.719 -0.8055 -0.1941 -0.1575
12260TIP3    H258272   1.114   0.696  15.623  2.7859  1.1098  0.6054
12261TIP3   OH258273   1.364   3.558  16.504 -0.3161  0.6649 -0.2980
12261TIP3    H158274   1.380   3.582  16.595 -1.4721 -0.4799  0.2358
12261TIP3    H258275   1.302   3.623  16.472  0.0944  1.0693 -0.2932
12262TIP3   OH258276   2.529   6.087  15.045  0.0475 -0.7460  0.4075
12262TIP3    H158277   2.534   6.081  14.950 -0.0393 -0.3873  0.3778
12262TIP3    H258278   2.468   6.159  15.061  0.2591 -0.6358  0.7297
12263TIP3   OH258279   4.470   3.109  13.714 -0.2572 -0.6839  0.0861
12263TIP3    H158280   4.438   3.143  13.630 -0.4943 -0.3680  0.2998
12263TIP3    H258281   4.565   3.098  13.701  0.1324  1.6454  0.5063
12264TIP3   OH258282   5.267   2.997   1.825  0.4305 -0.0101 -0.5202
12264TIP3    H158283   5.309   3.065   1.877 -0.0804 -0.0814 -0.0085
12264TIP3    H258284   5.174   3.006   1.844  0.4306 -1.4403  0.2642
12265TIP3   OH258285   3.364   2.261  10.778 -0.3692 -0.1471 -0.1854
12265TIP3    H158286   3.290   2.321  10.770 -1.4107 -1.4661 -0.7024
12265TIP3    H258287   3.421   2.284  10.705  0.1642  1.3891  0.6514
12266TIP3   OH258288   4.016   4.263  14.263 -0.2074  0.1671 -1.2915
12266TIP3    H158289   3.983   4.174  14.270 -0.2092  0.2589  0.3510
12266TIP3    H258290   4.091   4.265  14.324  0.7586  0.8651 -2.4672
12267TIP3   OH258291   1.516   0.157   2.145  0.0335 -0.2480 -0.2412
12267TIP3    H158292   1.428   0.122   2.132 -0.8639  1.1706  1.6503
12267TIP3    H258293   1.562   0.087   2.193 -1.5931  0.7432  3.0707
12268TIP3   OH258294   3.792   5.519   6.805 -0.1838  0.1774  0.3543
12268TIP3    H158295   3.844   5.594   6.775 -0.4444  1.0779  2.0257
12268TIP3    H258296   3.857   5.450   6.820  0.2407  0.5248  0.1420
12269TIP3   OH258297   2.938   4.610   5.988  0.0076 -0.5815 -0.3582
12269TIP3    H158298   2.934   4.517   5.964  1.0432 -0.3011 -1.7579
12269TIP3    H258299   2.913   4.657   5.908 -0.7365  0.3532  0.4007
12270TIP3   OH258300   1.205   3.372   3.144 -0.4527 -0.8123 -0.3981
12270TIP3    H158301   1.176   3.342   3.058  0.8732  0.2121 -1.2423
12270TIP3    H258302   1.147   3.446   3.164 -0.2887 -0.5864 -0.7499
12271TIP3   OH258303   2.530   2.510  12.641  0.2856 -0.0324  0.3840
12271TIP3    H158304   2.449   2.462  12.620  1.1572 -2.1005  1.4025
12271TIP3    H258305   2.511   2.601  12.618 -1.1042 -0.9973 -2.7638
12272TIP3   OH258306   6.418   2.356  16.983  0.3734  0.8643 -0.1289
12272TIP3    H158307   6.354   2.386  16.919  0.0032 -0.2704 -0.3245
12272TIP3    H258308   6.397   2.404  17.063 -1.6119 -0.4005  0.1879
12273TIP3   OH258309   0.114   5.094   2.092 -0.3257  0.3947  0.1388
12273TIP3    H158310   0.165   5.118   2.170 -2.3731 -0.1984  1.7445
12273TIP3    H258311   0.096   5.177   2.049  0.6554  0.7585  0.4004
12274TIP3   OH258312   3.376   6.758   5.411  0.3576 -0.3366 -0.5931
12274TIP3    H158313   3.359   6.667   5.436  0.7690  0.2402  2.0511
12274TIP3    H258314   3.443   6.752   5.342  0.7001 -2.0082 -0.1548
12275TIP3   OH258315   0.074   4.356  14.790  0.3107  0.0417  0.3146
12275TIP3    H158316   0.102   4.330  14.703  0.5797 -0.1621  0.4619
12275TIP3    H258317   0.003   4.419  14.775  2.2476  2.2744 -0.1364
12276TIP3   OH258318   2.022   3.264   5.760 -0.0555  0.5962  0.0996
12276TIP3    H158319   1.996   3.202   5.828  0.6709 -0.3300 -0.4333
12276TIP3    H258320   2.071   3.332   5.806  2.3863 -1.1698  0.3100
12277TIP3   OH258321   3.159   6.142  15.278 -0.1954 -0.6544 -0.5474
12277TIP3    H158322   3.083   6.144  15.219 -0.1714  1.1849 -0.5608
12277TIP3    H258323   3.225   6.092  15.231 -1.2288 -1.8905 -0.7342
12278TIP3   OH258324   6.467   2.964  11.530  0.1582  0.4159  0.0970
12278TIP3    H158325   6.535   2.990  11.593  1.1134  0.3507 -0.8699
12278TIP3    H258326   6.427   2.887  11.568  1.3236 -0.1486  0.2295
12279TIP3   OH258327   2.331   3.622   6.246  0.0695  0.0742  0.5419
12279TIP3    H158328   2.366   3.567   6.317  2.5920 -0.8949 -1.2771
12279TIP3    H258329   2.249   3.580   6.222  1.2131 -2.0994  0.1890
12280TIP3   OH258330   2.216   3.758   4.828 -0.6358  0.0444 -0.5507
12280TIP3    H158331   2.133   3.792   4.861 -0.0103  0.9762  0.0998
12280TIP3    H258332   2.250   3.703   4.899 -0.2549  0.4189 -0.4383
12281TIP3   OH258333   2.032   4.541   1.648 -0.5174 -0.2815 -0.6172
12281TIP3    H158334   2.105   4.551   1.587  0.1441 -0.6721  0.1043
12281TIP3    H258335   1.996   4.454   1.629  1.2743 -1.5084  1.2060
12282TIP3   OH258336   1.788   1.939  16.038 -0.2002  0.3223 -0.3597
12282TIP3    H158337   1.797   1.950  15.943 -1.3697  3.4195 -0.2572
12282TIP3    H258338   1.873   1.965  16.074  0.5447 -1.7281 -0.5266
12283TIP3   OH258339   6.272   5.053  17.009  0.0034 -0.0173  0.7623
12283TIP3    H158340   6.185   5.015  17.018  0.4972 -1.5189 -0.3039
12283TIP3    H258341   6.266   5.110  16.933  0.2423 -1.1353 -0.1228
12284TIP3   OH258342   4.032   5.310   0.077 -0.0979 -0.7364 -0.3256
12284TIP3    H158343   3.958   5.354   0.120  0.3181  0.8217 -1.1151
12284TIP3    H258344   4.108   5.336   0.127  0.2737  0.3016 -1.3877
12285TIP3   OH258345   3.385   1.685  14.717  0.2632  0.4482  0.3838
12285TIP3    H158346   3.345   1.649  14.795 -0.5853 -0.4630 -0.4435
12285TIP3    H258347   3.409   1.775  14.741  1.2991 -0.2421  2.1045
12286TIP3   OH258348   6.743   4.650  17.004 -0.3982 -0.1984  0.1156
12286TIP3    H158349   6.680   4.681  17.069  1.1466 -1.7322  2.4863
12286TIP3    H258350   6.820   4.623  17.055  0.9670 -1.4010 -2.3649
12287TIP3   OH258351   2.599   1.660  16.125  0.5490  0.2795  0.2609
12287TIP3    H158352   2.595   1.642  16.031  0.3528  0.3509  0.2548
12287TIP3    H258353   2.687   1.695  16.139 -0.4167  3.3061 -0.4353
12288TIP3   OH258354   5.336   3.179   4.182 -0.4329  0.4311  0.6162
12288TIP3    H158355   5.416   3.153   4.229 -0.4958 -1.9672 -0.4175
12288TIP3    H258356   5.274   3.108   4.201 -1.2008  0.5609 -1.1943
12289TIP3   OH258357   2.831   4.278  15.981  0.1961 -0.0368  0.5959
12289TIP3    H158358   2.766   4.209  15.962 -0.6496  0.5448  1.3158
12289TIP3    H258359   2.896   4.269  15.911 -0.6228 -0.6802 -0.1072
12290TIP3   OH258360   2.650   3.526  11.627  0.4444  0.8280 -1.0491
12290TIP3    H158361   2.594   3.534  11.704  0.2299 -1.4974 -0.8837
12290TIP3    H258362   2.625   3.599  11.571 -1.1755  1.1202  0.0024
12291TIP3   OH258363   2.522   0.121  14.120  0.0437  0.0095 -0.3106
12291TIP3    H158364   2.483   0.132  14.033  0.1423 -1.2811 -0.5325
12291TIP3    H258365   2.606   0.077  14.103 -1.3475 -3.2578  0.6378
12292TIP3   OH258366   4.015   4.817  16.001  0.8051 -0.4410  0.1634
12292TIP3    H158367   3.992   4.872  16.076 -0.3783  0.5386 -0.8751
12292TIP3    H258368   4.075   4.871  15.950 -0.7778  0.1476 -1.1376
12293TIP3   OH258369   3.991   1.179   3.277 -0.5728  0.4012  0.0766
12293TIP3    H158370   4.058   1.244   3.294 -1.0959  0.8376  0.4835
12293TIP3    H258371   3.908   1.227   3.280 -1.2067 -0.6990  3.0190
12294TIP3   OH258372   4.389   3.656  14.508  0.2969 -0.4077 -0.6477
12294TIP3    H158373   4.441   3.735  14.523 -0.8606  0.2245  0.1478
12294TIP3    H258374   4.302   3.689  14.485 -0.0266 -1.4569 -0.9764
12295TIP3   OH258375   6.766   3.507  11.026 -0.6989  0.5300 -0.3211
12295TIP3    H158376   6.857   3.519  10.998 -0.4006  1.0645  0.8278
12295TIP3    H258377   6.714   3.551  10.958 -0.1583 -0.3706 -1.3465
12296TIP3   OH258378   5.615   3.466   6.063 -0.0958  0.2357  0.1939
12296TIP3    H158379   5.681   3.422   6.117  0.0424 -1.3469 -1.2054
12296TIP3    H258380   5.537   3.469   6.118 -0.2778 -2.3016  0.1585
12297TIP3   OH258381   1.185   4.323   4.934 -0.0105  0.1902 -0.2749
12297TIP3    H158382   1.263   4.332   4.880 -0.4365  1.9741 -0.6505
12297TIP3    H258383   1.218   4.302   5.021  0.8165 -0.1400 -0.6575
12298TIP3   OH258384   1.752   6.407   3.071 -0.2692  0.1617  0.0265
12298TIP3    H158385   1.705   6.368   2.997  0.8480 -2.1333  0.4476
12298TIP3    H258386   1.698   6.388   3.147 -0.1697  0.2521  0.1197
12299TIP3   OH258387   5.715   6.202   2.768  0.1027 -0.1411 -0.0234
12299TIP3    H158388   5.626   6.234   2.755 -0.4513 -1.9265 -0.8591
12299TIP3    H258389   5.711   6.149   2.847  0.1078 -1.2849 -0.7739
12300TIP3   OH258390   0.943   2.764  17.042  0.8678 -0.0491 -0.3650
12300TIP3    H158391   0.853   2.768  17.010  1.3225 -0.3119 -1.7878
12300TIP3    H258392   0.938   2.795  17.132 -0.1275  3.7032 -1.5078
12301TIP3   OH258393   2.743   4.830  11.869 -0.4022  0.0463 -0.1925
12301TIP3    H158394   2.702   4.774  11.935  1.3160 -0.9273  0.1100
12301TIP3    H258395   2.679   4.835  11.798 -1.4878 -0.4637  0.7223
12302TIP3   OH258396   1.281   2.175   2.870 -0.7680 -0.2870 -0.2572
12302TIP3    H158397   1.242   2.121   2.801 -0.1849 -0.6889 -0.2780
12302TIP3    H258398   1.375   2.169   2.854 -0.6220 -0.4455  0.6262
12303TIP3   OH258399   1.562   4.890  16.292 -0.0756 -0.0873  0.0434
12303TIP3    H158400   1.579   4.858  16.381 -0.5198 -1.3851 -0.3226
12303TIP3    H258401   1.648   4.890  16.250  0.7742  3.5943  1.3485
12304TIP3   OH258402   5.955   0.445   0.195 -0.2434  0.0148 -0.6807
12304TIP3    H158403   5.930   0.428   0.285 -0.2758  0.2150 -0.6510
12304TIP3    H258404   5.984   0.360   0.161 -0.3870 -0.0926 -0.5322
12305TIP3   OH258405   5.614   5.962  15.197 -0.8100  0.2862 -0.0840
12305TIP3    H158406   5.544   6.017  15.232 -1.4726  0.5064 -1.6723
12305TIP3    H258407   5.594   5.955  15.103  0.3605 -1.0450 -0.2588
12306TIP3   OH258408   4.325   2.966  13.432  0.0190 -0.0425  0.1770
12306TIP3    H158409   4.251   3.013  13.470 -1.4534 -1.5498 -0.7110
12306TIP3    H258410   4.301   2.951  13.341  1.7858  0.1064 -0.3559
12307TIP3   OH258411   3.462   0.975  16.187 -0.6702  0.2395 -0.2049
12307TIP3    H158412   3.540   1.011  16.144 -1.5700  1.5249 -0.8127
12307TIP3    H258413   3.397   1.045  16.181 -1.8453 -0.7699  0.3974
12308TIP3   OH258414   6.110   0.657   1.652  0.7616  0.0420 -0.1495
12308TIP3    H158415   6.187   0.711   1.670  1.1669 -0.8785  1.0006
12308TIP3    H258416   6.145   0.576   1.614  0.1459  0.6358 -2.1053
12309TIP3   OH258417   2.546   3.219   0.607 -0.0936  0.2700 -0.3917
12309TIP3    H158418   2.517   3.304   0.640  0.0157 -0.6544  2.3965
12309TIP3    H258419   2.469   3.163   0.612  0.4599 -0.4573  0.4999
12310TIP3   OH258420   0.639   4.902  16.177  0.4596  0.3247 -0.0799
12310TIP3    H158421   0.676   4.914  16.090  1.1481 -0.2166  0.1257
12310TIP3    H258422   0.697   4.953  16.234 -0.0712  0.7922  0.0416
12311TIP3   OH258423   4.755   6.771  11.590  0.4209  0.2689 -0.6177
12311TIP3    H158424   4.728   6.792  11.501  0.8227 -0.1266 -0.8341
12311TIP3    H258425   4.774   6.677  11.588  2.3511  0.6206 -0.6209
12312TIP3   OH258426   6.792   2.198   0.317  0.6475 -0.0767 -0.0038
12312TIP3    H158427   6.826   2.288   0.317  1.0138 -0.1982  1.0510
12312TIP3    H258428   6.867   2.144   0.296  0.7364 -0.2234  0.6670
12313TIP3   OH258429   5.499   4.764  15.891 -0.0358  0.6617  0.2201
12313TIP3    H158430   5.470   4.828  15.955 -0.6043 -0.6171  1.2742
12313TIP3    H258431   5.523   4.686  15.942 -1.4501 -0.7618 -1.1398
12314TIP3   OH258432   0.380   1.920  11.365  1.0828  0.0682  0.4166
12314TIP3    H158433   0.419   1.835  11.343  0.0656 -0.5330  0.9054
12314TIP3    H258434   0.304   1.899  11.419  0.5836  1.2678  0.2162
12315TIP3   OH258435   5.533   2.113  14.483 -0.0565  0.3141  0.0260
12315TIP3    H158436   5.458   2.120  14.423 -0.4405  2.0255  0.6498
12315TIP3    H258437   5.546   2.202  14.515 -0.2705 -0.5956  2.9547
12316TIP3   OH258438   4.537   2.895  14.932 -0.5123  0.5912  0.5173
12316TIP3    H158439   4.477   2.913  14.860 -1.6824  0.7013  1.4960
12316TIP3    H258440   4.590   2.975  14.939  2.7293 -0.9066 -2.9994
12317TIP3   OH258441   2.071   4.927   2.392  0.2387  0.1670 -0.5504
12317TIP3    H158442   2.012   4.997   2.364  0.8692  0.5588 -0.9157
12317TIP3    H258443   2.018   4.873   2.450 -1.6315 -1.5061 -3.4983
12318TIP3   OH258444   4.267   4.140  11.204 -0.0198 -0.0241  0.5710
12318TIP3    H158445   4.240   4.102  11.120  1.6411  1.2789 -0.6355
12318TIP3    H258446   4.342   4.087  11.231  0.4339  0.5201  0.4050
12319TIP3   OH258447   4.546   4.765   3.304 -0.2454  0.2768  0.2351
12319TIP3    H158448   4.457   4.729   3.298 -0.3266  0.5931 -0.6522
12319TIP3    H258449   4.563   4.773   3.398 -1.3639  0.7224  0.4104
12320TIP3   OH258450   3.999   5.192  13.032  0.2151 -0.9626 -0.5391
12320TIP3    H158451   3.965   5.265  13.085 -0.1184  0.3727 -2.5033
12320TIP3    H258452   4.092   5.190  13.052 -0.1490 -1.5638  1.3002
12321TIP3   OH258453   2.977   1.986   4.680  0.3507 -0.4319  0.3612
12321TIP3    H158454   2.894   2.028   4.703  0.6671  0.1009  0.5642
12321TIP3    H258455   2.981   1.992   4.584  0.4510  0.1455  0.3930
12322TIP3   OH258456   0.924   3.699  12.809 -0.2702  0.1549  0.1116
12322TIP3    H158457   0.878   3.781  12.826 -0.6321 -0.4305  2.1561
12322TIP3    H258458   0.869   3.654  12.745  0.4067  1.8439 -1.7774
12323TIP3   OH258459   2.823   2.969   2.129  0.6987  0.1969 -0.4039
12323TIP3    H158460   2.845   3.022   2.205  0.1845 -0.0534 -0.0755
12323TIP3    H258461   2.856   2.882   2.150  3.0621  0.7062 -1.6421
12324TIP3   OH258462   6.508   2.975  15.672 -0.1514  0.5636  0.1294
12324TIP3    H158463   6.460   2.986  15.755  0.6687 -1.2401  0.9080
12324TIP3    H258464   6.440   2.953  15.609 -0.5760 -0.3234  0.8586
12325TIP3   OH258465   2.315   5.844  11.869  0.3682  0.3909  0.3888
12325TIP3    H158466   2.382   5.842  11.938 -0.3258  0.1390  1.0735
12325TIP3    H258467   2.304   5.752  11.844  0.9563  0.5265 -0.4097
12326TIP3   OH258468   3.337   6.624   5.677 -0.1520 -0.4367  0.0282
12326TIP3    H158469   3.257   6.626   5.624 -0.6887 -0.4192  0.8228
12326TIP3    H258470   3.401   6.580   5.622 -0.2995  0.7853 -1.1842
12327TIP3   OH258471   4.257   1.843  11.097  0.4371 -0.2063 -0.3633
12327TIP3    H158472   4.241   1.936  11.078  1.0291 -0.1566 -0.6508
12327TIP3    H258473   4.195   1.822  11.166 -0.3340  0.1620 -0.9306
12328TIP3   OH258474   1.789   2.048  12.716  0.1082 -0.3015 -0.7994
12328TIP3    H158475   1.852   2.107  12.758 -1.2734  0.8193 -0.2274
12328TIP3    H258476   1.770   2.089  12.632  1.7235 -1.7677 -1.9656
12329TIP3   OH258477   1.032   4.946   3.378  0.5102 -0.0746  0.0805
12329TIP3    H158478   0.959   4.884   3.386  0.6040 -0.1514  0.3390
12329TIP3    H258479   1.110   4.894   3.395  0.6302  0.0025 -0.2233
12330TIP3   OH258480   4.365   6.646  16.853  0.0794 -0.4639  0.0415
12330TIP3    H158481   4.374   6.572  16.914  0.5157 -0.7053 -0.3108
12330TIP3    H258482   4.282   6.686  16.877 -0.1805 -1.0902  0.2252
12331TIP3   OH258483   0.085   4.623  14.635  0.1955  0.4023 -0.3793
12331TIP3    H158484   0.139   4.642  14.713 -0.9286 -1.8673  1.0607
12331TIP3    H258485   0.003   4.668  14.652 -0.4314 -0.9497  0.3098
12332TIP3   OH258486   3.793   4.745   5.147  0.0512  0.2908  0.0658
12332TIP3    H158487   3.725   4.690   5.109  0.8716 -0.2237 -0.6957
12332TIP3    H258488   3.755   4.833   5.147 -0.9035 -0.1093  0.3938
12333TIP3   OH258489   6.405   0.217   2.835 -0.1114 -0.5550 -0.0716
12333TIP3    H158490   6.442   0.202   2.748 -0.0997 -1.8340  0.1327
12333TIP3    H258491   6.382   0.309   2.836 -1.0922 -0.7462 -1.8105
12334TIP3   OH258492   2.219   5.743   0.160 -0.0070 -0.0807 -0.0092
12334TIP3    H158493   2.129   5.774   0.152  0.2886  0.3767 -2.3473
12334TIP3    H258494   2.262   5.776   0.082  2.2733 -0.0975  1.1601
12335TIP3   OH258495   1.067   3.867  13.061  0.4486  0.4875 -0.3761
12335TIP3    H158496   1.029   3.864  13.149 -1.0080  0.4030 -0.9788
12335TIP3    H258497   1.041   3.954  13.027 -1.0034 -0.3405 -1.5379
12336TIP3   OH258498   2.012   0.218   2.095  0.2048 -0.0714 -0.4241
12336TIP3    H158499   1.928   0.211   2.141  0.4484 -0.9673 -0.0999
12336TIP3    H258500   2.078   0.217   2.165  0.5808 -1.4389 -0.7703
12337TIP3   OH258501   0.598   1.514  11.370  0.4547  0.2119  0.0132
12337TIP3    H158502   0.644   1.485  11.449  0.3169  0.9853  0.3920
12337TIP3    H258503   0.536   1.443  11.351 -1.8123  1.3133  2.4886
12338TIP3   OH258504   4.563   4.466  12.913  0.1121 -0.0916 -0.1216
12338TIP3    H158505   4.655   4.452  12.938  0.0561  0.9512  0.7414
12338TIP3    H258506   4.556   4.561  12.902 -0.3324 -0.3258 -2.4010
12339TIP3   OH258507   1.039   0.555  11.439 -0.4939 -1.3138  0.2687
12339TIP3    H158508   0.964   0.508  11.402 -0.3403 -0.9871 -0.4750
12339TIP3    H258509   1.086   0.590  11.363 -0.3847 -0.2911  0.7857
12340TIP3   OH258510   0.884   4.254   0.673 -0.2170 -0.5260  0.3301
12340TIP3    H158511   0.943   4.323   0.642 -2.0148 -0.0144 -2.3502
12340TIP3    H258512   0.843   4.291   0.752 -0.6802  1.3033 -0.6964
12341TIP3   OH258513   0.960   5.079   0.164 -0.2904  0.1500  0.8036
12341TIP3    H158514   0.923   5.009   0.218  0.8555 -0.6378  0.6183
12341TIP3    H258515   0.926   5.062   0.076 -0.2423 -0.0018  0.8145
12342TIP3   OH258516   3.722   4.250  15.330 -0.1905 -0.4248  0.0714
12342TIP3    H158517   3.711   4.186  15.401 -0.4843 -0.5111 -0.0517
12342TIP3    H258518   3.673   4.327  15.358  1.4582  0.3710  0.9664
12343TIP3   OH258519   2.823   2.737  16.852 -0.8349 -0.4293  0.2737
12343TIP3    H158520   2.887   2.678  16.891 -0.0141 -0.8774 -1.5979
12343TIP3    H258521   2.769   2.766  16.925 -0.0770 -2.0151  1.5356
12344TIP3   OH258522   0.826   0.724   2.308  0.3178  0.1077 -0.5280
12344TIP3    H158523   0.768   0.766   2.371 -0.4339 -3.2613  1.2820
12344TIP3    H258524   0.894   0.683   2.362  0.5497 -1.5747 -1.9993
12345TIP3   OH258525   6.502   5.637  12.533  0.0462  0.2122  0.0655
12345TIP3    H158526   6.569   5.691  12.574  0.1495  0.4956 -0.4744
12345TIP3    H258527   6.420   5.686  12.546  0.0198  0.1212  0.2560
12346TIP3   OH258528   3.274   1.499  11.756 -0.5105 -0.2635 -0.3521
12346TIP3    H158529   3.322   1.432  11.805  1.3278  0.9954 -0.3595
12346TIP3    H258530   3.297   1.484  11.665  0.7516  0.9876 -0.2619
12347TIP3   OH258531   5.947   2.318   4.005  0.2388 -0.2475  0.1742
12347TIP3    H158532   5.997   2.392   4.040 -1.3107  0.7145  0.4279
12347TIP3    H258533   5.956   2.326   3.910 -0.1290  0.4229  0.1924
12348TIP3   OH258534   1.600   4.240  14.815 -0.2738 -0.2913 -0.4352
12348TIP3    H158535   1.664   4.244  14.886  0.2305  0.1081 -0.9042
12348TIP3    H258536   1.515   4.250  14.859  0.0875  1.1088  0.0213
12349TIP3   OH258537   0.757   2.504   0.294  0.4130 -0.1249  0.5689
12349TIP3    H158538   0.760   2.526   0.387 -0.3337  0.2713  0.5086
12349TIP3    H258539   0.663   2.498   0.274  0.5723 -0.4794 -0.0915
12350TIP3   OH258540   0.588   4.405  12.969 -0.2787 -0.6699 -0.2576
12350TIP3    H158541   0.683   4.405  12.955 -0.3233  0.8855 -0.7559
12350TIP3    H258542   0.553   4.449  12.892 -1.3461 -0.5243  0.2943
12351TIP3   OH258543   3.674   0.559   1.490  0.1902  0.5211  0.1496
12351TIP3    H158544   3.626   0.479   1.469 -0.2535  0.3233  1.7683
12351TIP3    H258545   3.757   0.550   1.443 -0.1548 -0.5421 -0.2915
12352TIP3   OH258546   1.202   4.022  14.646 -0.1654  0.5118 -0.5145
12352TIP3    H158547   1.293   4.026  14.616 -0.1992  0.4393 -0.6273
12352TIP3    H258548   1.189   4.103  14.696 -0.4518  1.1960 -1.6690
12353TIP3   OH258549   2.634   4.541  16.646 -0.2584  0.0929  0.2964
12353TIP3    H158550   2.666   4.493  16.722  0.6614 -2.1336 -1.3656
12353TIP3    H258551   2.539   4.531  16.649 -0.3106  0.7911  1.5862
12354TIP3   OH258552   6.542   0.689   4.562  0.4482  0.6742 -0.4016
12354TIP3    H158553   6.517   0.778   4.587  0.6553  0.4594  0.6239
12354TIP3    H258554   6.610   0.701   4.496 -1.6887  1.2604 -2.6132
12355TIP3   OH258555   3.430   1.294   0.840 -0.1366 -0.0254 -0.2919
12355TIP3    H158556   3.344   1.275   0.879  0.5876 -0.6887  1.0741
12355TIP3    H258557   3.458   1.375   0.882  0.0129  0.0636 -0.5602
12356TIP3   OH258558   2.826   5.107   1.539  0.4787 -0.3008 -0.3207
12356TIP3    H158559   2.863   5.179   1.489  1.2028 -0.3613  0.1234
12356TIP3    H258560   2.817   5.141   1.628 -0.5254 -0.2933 -0.4046
12357TIP3   OH258561   5.627   6.027  12.803  0.2733 -0.1507 -0.0024
12357TIP3    H158562   5.544   5.993  12.768 -0.4447  3.9997 -3.0388
12357TIP3    H258563   5.694   5.988  12.747  0.1640 -1.3372  0.6560
12358TIP3   OH258564   1.141   5.915  13.029  0.2529 -0.0557  0.1467
12358TIP3    H158565   1.079   5.871  13.087  0.9898  0.7612  1.6310
12358TIP3    H258566   1.195   5.845  12.993 -0.9185 -0.6842 -0.4331
12359TIP3   OH258567   1.932   3.940   2.841 -0.3923  0.0831 -0.0475
12359TIP3    H158568   1.921   4.018   2.786 -0.6795  0.9264  1.1879
12359TIP3    H258569   2.010   3.960   2.894 -1.3357  0.1845  1.3355
12360TIP3   OH258570   0.680   4.551  13.718  0.4752 -0.2901 -0.0698
12360TIP3    H158571   0.731   4.488  13.668 -1.0270 -0.2605 -1.7564
12360TIP3    H258572   0.659   4.621  13.655 -1.5813 -0.3034  0.5051
12361TIP3   OH258573   1.724   3.968  16.747 -0.1769  0.7081  0.2914
12361TIP3    H158574   1.737   3.911  16.672 -2.4862  1.7394 -1.0119
12361TIP3    H258575   1.801   4.025  16.748  0.6385 -0.3405 -0.2815
12362TIP3   OH258576   1.927   1.140   0.746  0.3094  0.2148 -0.4043
12362TIP3    H158577   2.000   1.126   0.807  0.7477 -0.7950 -1.1221
12362TIP3    H258578   1.864   1.072   0.769 -0.2717  0.8878  0.0062
12363TIP3   OH258579   5.505   0.129  12.850  0.0167  0.0974  0.2683
12363TIP3    H158580   5.598   0.143  12.832 -0.6919  2.7668 -2.1040
12363TIP3    H258581   5.484   0.191  12.919 -0.0549 -0.3901  0.6912
12364TIP3   OH258582   0.091   5.581  12.765 -0.0915  0.3451 -0.0125
12364TIP3    H158583   0.128   5.669  12.761 -0.3559  0.4600  0.0736
12364TIP3    H258584   0.038   5.580  12.844 -0.3240  0.2016 -0.1676
12365TIP3   OH258585   6.277   1.645  13.782  0.2709  0.0183 -0.6000
12365TIP3    H158586   6.262   1.735  13.756 -0.3611  0.2991  0.6921
12365TIP3    H258587   6.274   1.646  13.878  0.9569 -1.2500 -0.5381
12366TIP3   OH258588   0.214   2.663  14.046 -0.0808  0.2020 -0.2090
12366TIP3    H158589   0.283   2.727  14.060 -1.6511  2.2450 -1.2373
12366TIP3    H258590   0.173   2.653  14.132  0.5118  0.1687  0.0741
12367TIP3   OH258591   4.911   2.727  15.951 -0.2128  0.5043  0.2643
12367TIP3    H158592   4.818   2.729  15.976 -0.1487 -1.6089  0.8015
12367TIP3    H258593   4.956   2.769  16.025 -0.7189  1.6634 -0.0591
12368TIP3   OH258594   6.517   3.281   5.716  0.6215 -0.5109  0.4036
12368TIP3    H158595   6.475   3.286   5.802 -1.0723  1.0143 -0.4406
12368TIP3    H258596   6.611   3.277   5.736  0.2844 -0.1270  2.3169
12369TIP3   OH258597   1.100   1.950  16.408  0.5840 -0.2972  0.2492
12369TIP3    H158598   1.118   2.043  16.397 -1.5235  0.3105  1.3405
12369TIP3    H258599   1.071   1.920  16.322 -0.6253  0.5716  0.3227
12370TIP3   OH258600   6.772   1.036   4.065 -0.4783  0.4886  0.0849
12370TIP3    H158601   6.777   1.120   4.020  0.1753  0.5053  0.1862
12370TIP3    H258602   6.813   0.974   4.005 -0.8458  0.2575  0.0659
12371TIP3   OH258603   6.580   0.265   5.169  0.2426  0.2703 -0.2955
12371TIP3    H158604   6.603   0.173   5.179 -0.7806  0.1175  0.9502
12371TIP3    H258605   6.562   0.276   5.075 -1.3695 -1.2579 -0.2312
12372TIP3   OH258606   4.579   1.628  15.696  0.1412 -0.1384 -0.2968
12372TIP3    H158607   4.664   1.644  15.738  0.2733  0.0770 -0.6409
12372TIP3    H258608   4.551   1.714  15.665 -0.0919 -0.2486 -0.3939
12373TIP3   OH258609   5.852   4.661  14.856 -0.2038  0.8119 -0.3394
12373TIP3    H158610   5.895   4.733  14.903 -0.7911  0.6895  0.3993
12373TIP3    H258611   5.864   4.682  14.764  1.0681  1.0034 -0.1474
12374TIP3   OH258612   4.478   3.297   4.021  0.3153  0.0920 -0.0173
12374TIP3    H158613   4.572   3.289   4.036  0.0511 -1.1467  1.2631
12374TIP3    H258614   4.451   3.370   4.075  0.7732  1.6542 -1.7858
12375TIP3   OH258615   4.338   4.615  14.590 -0.5765  0.2576  0.4508
12375TIP3    H158616   4.292   4.655  14.664  0.0653  0.9980  0.4630
12375TIP3    H258617   4.429   4.642  14.601 -0.3299 -0.3032 -0.1663
12376TIP3   OH258618   2.288   0.257  14.405  0.2546 -0.3852  0.4624
12376TIP3    H158619   2.306   0.163  14.414  0.1482 -0.5396 -0.7999
12376TIP3    H258620   2.343   0.298  14.471  0.9073 -1.2745  0.4950
12377TIP3   OH258621   2.549   5.032   5.222  0.1692  0.1583  0.2299
12377TIP3    H158622   2.601   5.036   5.302 -1.0765  0.8080  1.0543
12377TIP3    H258623   2.528   5.123   5.202  1.9160  0.1677 -1.8924
12378TIP3   OH258624   0.898   4.549   5.588  0.7377  0.1024  0.2121
12378TIP3    H158625   0.899   4.597   5.506 -0.4041 -1.8004 -0.9876
12378TIP3    H258626   0.884   4.458   5.563 -2.0083 -0.2884  2.5854
12379TIP3   OH258627   5.793   2.534  16.804 -0.5093  0.0247  0.1032
12379TIP3    H158628   5.780   2.491  16.720 -1.1689 -1.8021  1.0753
12379TIP3    H258629   5.728   2.604  16.806 -0.1522  0.4129 -1.0793
12380TIP3   OH258630   6.000   2.029   1.664  0.3446 -0.1442  0.0434
12380TIP3    H158631   5.928   2.024   1.726 -0.6854  2.0742 -0.8659
12380TIP3    H258632   6.071   2.069   1.714  0.3011 -0.5038  0.4017
12381TIP3   OH258633   1.881   4.870  13.174 -0.2212  0.1129  0.0689
12381TIP3    H158634   1.968   4.865  13.213 -0.2359  2.3875  0.5670
12381TIP3    H258635   1.820   4.862  13.247 -0.4665 -1.4669 -0.2763
12382TIP3   OH258636   2.819   2.671  12.448  0.0660  0.0249  0.5447
12382TIP3    H158637   2.885   2.605  12.428  1.2005  0.6798  1.9001
12382TIP3    H258638   2.739   2.638  12.409  0.9644 -1.3381 -0.2137
12383TIP3   OH258639   0.744   6.059   5.702 -0.2684  0.2743 -0.0084
12383TIP3    H158640   0.698   6.037   5.621 -3.1498 -0.7032  1.7417
12383TIP3    H258641   0.723   5.987   5.762  1.0037  1.4091  1.9080
12384TIP3   OH258642   1.151   0.988   3.498 -0.2665  0.2735  0.0410
12384TIP3    H158643   1.108   0.909   3.464 -2.0522  1.4907 -0.7217
12384TIP3    H258644   1.238   0.987   3.459  0.5501 -2.3169  1.6493
12385TIP3   OH258645   4.595   0.994  16.693 -0.8378  0.2570 -0.0904
12385TIP3    H158646   4.627   1.084  16.698  1.0363 -0.4057  0.8793
12385TIP3    H258647   4.576   0.981  16.600 -0.5193  1.4515 -0.3506
12386TIP3   OH258648   3.686   5.248   4.186  0.5114 -0.6569  0.2713
12386TIP3    H158649   3.767   5.197   4.178 -0.5308 -2.3119 -0.3915
12386TIP3    H258650   3.639   5.206   4.258 -0.4369 -0.7456 -0.3817
12387TIP3   OH258651   1.647   1.007   3.033  0.3722  0.0408 -0.5171
12387TIP3    H158652   1.677   0.984   2.945  0.3719  0.5482 -0.6552
12387TIP3    H258653   1.650   1.103   3.034  0.8800  0.0172  0.2182
12388TIP3   OH258654   0.347   3.702  17.012  0.1615  0.3835 -0.4140
12388TIP3    H158655   0.330   3.687  16.919  0.1396  1.5455 -0.6116
12388TIP3    H258656   0.263   3.687  17.055  0.0161  0.4859 -0.6633
12389TIP3   OH258657   5.816   4.972  12.619 -0.1542  0.0319 -0.0708
12389TIP3    H158658   5.814   4.924  12.702  1.5396 -0.0159 -0.0290
12389TIP3    H258659   5.856   4.912  12.557 -0.3463  0.4875 -0.6444
12390TIP3   OH258660   6.090   6.831  15.598 -0.2736  0.3780  0.3876
12390TIP3    H158661   6.132   6.754  15.560 -0.4716  1.1902 -1.6300
12390TIP3    H258662   6.047   6.799  15.677  1.1338 -1.1916  0.5538
12391TIP3   OH258663   4.492   4.848  17.130 -0.4129 -0.0100  0.1451
12391TIP3    H158664   4.411   4.850  17.079  0.2585 -0.3319 -0.9674
12391TIP3    H258665   4.562   4.843  17.065  0.4380 -1.5013  1.1112
12392TIP3   OH258666   0.782   6.821   3.368  0.0525  0.3021  0.2260
12392TIP3    H158667   0.750   6.813   3.457  1.6894 -0.6400  0.7842
12392TIP3    H258668   0.746   6.744   3.323 -0.2264  0.4152  0.2533
12393TIP3   OH258669   0.637   6.498  14.097 -0.4641 -0.3652  0.1097
12393TIP3    H158670   0.700   6.475  14.029  0.6836  3.3573 -0.2969
12393TIP3    H258671   0.553   6.467  14.064 -0.0202  1.6334 -3.3348
12394TIP3   OH258672   6.731   2.840   5.957  0.5886  0.1401 -0.0110
12394TIP3    H158673   6.788   2.764   5.945  2.9798  1.6696  0.8653
12394TIP3    H258674   6.736   2.887   5.874  1.8152  1.0174  0.5430
12395TIP3   OH258675   2.165   5.885   6.402  0.5599 -0.5517 -0.2327
12395TIP3    H158676   2.234   5.864   6.339  0.4916 -1.5351 -0.0069
12395TIP3    H258677   2.103   5.940   6.354  1.8072  0.8954 -0.2456
12396TIP3   OH258678   5.119   2.436  12.291  0.2271  0.0528  0.1794
12396TIP3    H158679   5.127   2.344  12.314  0.5506 -0.6876 -2.5726
12396TIP3    H258680   5.109   2.437  12.196 -2.1122  2.7343  0.3032
12397TIP3   OH258681   2.396   4.621  11.748 -0.7996  0.1750  0.0775
12397TIP3    H158682   2.384   4.555  11.680  1.6544  0.5602 -0.8012
12397TIP3    H258683   2.419   4.700  11.701  0.3496  0.6105  1.3139
12398TIP3   OH258684   4.733   4.209  14.337 -0.8726 -0.3316  0.3906
12398TIP3    H158685   4.725   4.294  14.379  0.2690 -0.5570  1.0987
12398TIP3    H258686   4.826   4.201  14.314 -0.5831 -2.0673  1.8982
12399TIP3   OH258687   6.337   5.357   5.291 -0.3137 -0.5761 -0.8172
12399TIP3    H158688   6.356   5.300   5.365 -0.5682 -2.2129 -1.9724
12399TIP3    H258689   6.264   5.315   5.246 -1.4398  1.3853 -0.9665
12400TIP3   OH258690   0.436   3.509  15.775  0.4656 -0.4006  0.2344
12400TIP3    H158691   0.350   3.544  15.752  0.6153  0.2033  0.5696
12400TIP3    H258692   0.490   3.587  15.790  0.8404 -0.7755  0.8819
12401TIP3   OH258693   5.002   5.682   0.953 -0.4709 -0.1792 -0.5047
12401TIP3    H158694   5.056   5.617   0.997  1.1651 -0.0009 -2.1114
12401TIP3    H258695   5.060   5.722   0.888 -2.3565  0.4768 -1.9024
12402TIP3   OH258696   0.025   1.278   4.637 -0.1758  0.1702  0.0713
12402TIP3    H158697   0.076   1.353   4.668 -1.0579  0.9839 -0.4001
12402TIP3    H258698   0.045   1.208   4.699 -1.1178  1.4482  1.9148
12403TIP3   OH258699   4.751   4.756  15.701  0.9904  0.0431 -0.5175
12403TIP3    H158700   4.802   4.771  15.621 -1.3624  0.7218 -1.9808
12403TIP3    H258701   4.724   4.843  15.729  2.4624 -0.1028  1.5686
12404TIP3   OH258702   4.352   6.488   1.174  0.4610 -0.1194 -0.2625
12404TIP3    H158703   4.360   6.440   1.256 -2.6070 -0.5353 -0.0850
12404TIP3    H258704   4.310   6.571   1.199 -1.7266 -0.7870 -1.4820
12405TIP3   OH258705   2.133   3.996  14.056  0.0544 -0.7854 -0.4246
12405TIP3    H158706   2.154   4.036  13.971 -1.4317  3.8486  1.0512
12405TIP3    H258707   2.216   3.997  14.104  0.2787 -0.5145 -0.8120
12406TIP3   OH258708   6.776   6.770  16.757  0.0261  0.2673 -0.4665
12406TIP3    H158709   6.726   6.689  16.749  0.3574  0.0676 -0.5477
12406TIP3    H258710   6.779   6.786  16.852 -1.7441  1.2762 -0.5345
12407TIP3   OH258711   1.302   1.170  13.569  0.2581 -0.3327 -0.7282
12407TIP3    H158712   1.297   1.079  13.539 -0.3667 -0.9636  1.1651
12407TIP3    H258713   1.225   1.180  13.625  0.2634  1.4222 -0.9861
12408TIP3   OH258714   1.927   1.761   3.218 -0.2799  0.0669 -0.5000
12408TIP3    H158715   1.883   1.804   3.291  1.8123  0.8427  0.3634
12408TIP3    H258716   1.901   1.812   3.141 -2.0702 -0.4363 -0.2762
12409TIP3   OH258717   2.302   6.045   5.045 -0.3250 -0.2906 -0.5580
12409TIP3    H158718   2.378   6.048   4.988 -1.1900 -1.3301 -1.8186
12409TIP3    H258719   2.309   5.962   5.093 -0.1519  0.0852  0.0870
12410TIP3   OH258720   5.124   5.491  14.419  0.6604  0.2474 -0.4325
12410TIP3    H158721   5.196   5.486  14.357  0.2705  0.8563 -0.9378
12410TIP3    H258722   5.134   5.575  14.462 -0.1389  0.6424 -0.9967
12411TIP3   OH258723   2.349   3.882  16.484  0.1535 -0.0302 -0.5046
12411TIP3    H158724   2.398   3.932  16.550 -0.6567 -0.0029  0.0808
12411TIP3    H258725   2.324   3.947  16.419  0.1687  0.1079 -0.3728
12412TIP3   OH258726   5.685   0.894  16.886  0.1848  0.1807 -0.4939
12412TIP3    H158727   5.722   0.854  16.965  1.5643  0.9490 -0.7060
12412TIP3    H258728   5.760   0.903  16.827 -0.5749  0.7797 -1.3954
12413TIP3   OH258729   0.906   4.444  16.436 -0.2369 -0.0573  0.0382
12413TIP3    H158730   0.894   4.532  16.400  0.1083  0.2319  0.6223
12413TIP3    H258731   0.936   4.392  16.361 -1.5069  0.0581 -0.5776
12414TIP3   OH258732   3.739   5.475   3.213  0.3347 -0.0488 -0.1880
12414TIP3    H158733   3.738   5.570   3.217 -3.9772  0.1104 -0.7084
12414TIP3    H258734   3.729   5.447   3.304 -0.5577  0.1034 -0.2330
12415TIP3   OH258735   1.131   2.943  11.875  0.2494 -0.5672  0.0952
12415TIP3    H158736   1.140   2.904  11.788 -0.8065  0.3134 -0.4384
12415TIP3    H258737   1.175   2.881  11.934  0.1692 -1.6454 -0.9416
12416TIP3   OH258738   1.073   2.112  13.039  0.1136  0.5341  0.1729
12416TIP3    H158739   1.144   2.080  13.095 -0.0501  1.7301  1.1162
12416TIP3    H258740   1.115   2.169  12.975  0.1369  0.3321  0.0092
12417TIP3   OH258741   4.391   5.435  15.246  0.6870 -0.3418  0.1507
12417TIP3    H158742   4.353   5.523  15.241  0.5174 -0.4639 -1.0397
12417TIP3    H258743   4.479   5.449  15.281  0.2179  0.1503  1.1716
12418TIP3   OH258744   6.147   5.055  15.081 -0.1796 -0.3249  0.1655
12418TIP3    H158745   6.082   4.992  15.112  0.5177 -0.8256  0.6402
12418TIP3    H258746   6.096   5.130  15.050 -1.0165 -1.0960 -0.3413
12419TIP3   OH258747   5.377   6.337  16.760  0.5555 -0.1016 -0.0839
12419TIP3    H158748   5.357   6.295  16.676  1.7872  1.0299 -0.9785
12419TIP3    H258749   5.452   6.393  16.742  1.5927 -0.6893  2.0552
12420TIP3   OH258750   4.044   4.343  15.663  0.4050  0.0575 -0.0814
12420TIP3    H158751   3.975   4.298  15.615 -0.5639  1.0562  0.3333
12420TIP3    H258752   4.003   4.370  15.745  1.3616  0.4221  0.2924
12421TIP3   OH258753   5.524   1.241  10.656  0.2087  0.1863  1.0081
12421TIP3    H158754   5.443   1.204  10.692  0.1296 -1.3843 -0.6360
12421TIP3    H258755   5.494   1.310  10.596  0.0757 -0.2363  0.5780
12422TIP3   OH258756   1.779   5.115   6.650 -0.3396  0.3418  0.1596
12422TIP3    H158757   1.749   5.103   6.559  0.2851  0.3849 -0.0599
12422TIP3    H258758   1.861   5.066   6.654 -0.3171  0.4246  0.6758
12423TIP3   OH258759   6.067   6.377  16.157  0.0186 -0.6667  0.2790
12423TIP3    H158760   6.031   6.463  16.135 -0.0229 -0.7529  0.0026
12423TIP3    H258761   6.161   6.387  16.145 -0.1336 -1.2220 -1.7940
12424TIP3   OH258762   2.468   4.210   0.197 -0.4773 -0.1901 -0.2587
12424TIP3    H158763   2.550   4.188   0.241 -1.5122 -2.3984  0.7444
12424TIP3    H258764   2.404   4.220   0.268 -1.0327  2.0441 -0.9807
12425TIP3   OH258765   2.049   3.041   3.793 -0.1602  0.3354  0.5174
12425TIP3    H158766   2.064   2.960   3.841 -0.9147 -0.0292  0.1648
12425TIP3    H258767   2.017   3.012   3.707  1.4701  0.9536 -0.3517
12426TIP3   OH258768   3.486   0.574   2.744 -0.3434 -0.2935  0.6250
12426TIP3    H158769   3.509   0.497   2.691 -1.7142 -0.9246  0.8847
12426TIP3    H258770   3.490   0.647   2.683  0.0724 -0.7098  0.1411
12427TIP3   OH258771   0.470   1.430  16.845 -0.0078 -0.2484  0.3274
12427TIP3    H158772   0.531   1.416  16.917  0.8792  0.5542 -0.2418
12427TIP3    H258773   0.509   1.384  16.770  1.5964  2.8071 -0.8736
12428TIP3   OH258774   4.874   0.718   4.333  0.2178 -0.4037  0.2722
12428TIP3    H158775   4.830   0.712   4.418  2.6208 -1.7518  1.5242
12428TIP3    H258776   4.853   0.636   4.289 -1.4435  0.4992 -0.7589
12429TIP3   OH258777   4.350   1.992  12.713 -0.0280 -0.4609 -0.5327
12429TIP3    H158778   4.256   1.982  12.725  0.1534  0.2628  1.9604
12429TIP3    H258779   4.381   2.030  12.795  2.4182 -0.4846 -1.3714
12430TIP3   OH258780   2.875   2.081  13.634 -0.4966 -0.0864 -0.0900
12430TIP3    H158781   2.940   2.063  13.702 -0.6111 -2.0864 -0.4512
12430TIP3    H258782   2.920   2.064  13.551 -0.8902  0.4940 -0.4293
12431TIP3   OH258783   3.048   5.586  12.715  0.0307 -0.8893 -0.0648
12431TIP3    H158784   2.991   5.644  12.664  0.5423 -0.2911  0.0242
12431TIP3    H258785   2.988   5.528  12.761 -0.4410 -1.7075 -1.6415
12432TIP3   OH258786   1.470   1.658  13.445 -0.0875 -0.1225  0.0083
12432TIP3    H158787   1.422   1.619  13.518 -0.7121 -0.7131 -0.7040
12432TIP3    H258788   1.402   1.697  13.390  0.3472  0.0349 -0.4219
12433TIP3   OH258789   5.699   5.636   1.680 -0.0778 -0.1085 -0.6444
12433TIP3    H158790   5.763   5.704   1.661 -0.3232 -0.0549 -1.2815
12433TIP3    H258791   5.630   5.648   1.615 -0.2959 -0.7348 -0.5368
12434TIP3   OH258792   4.040   3.691   0.006  0.1663 -0.0787 -0.6425
12434TIP3    H158793   4.075   3.662   0.090 -1.3717 -0.0754  0.0424
12434TIP3    H258794   4.099   3.653  -0.059  1.9937  0.8017  0.4448
12435TIP3   OH258795   2.455   1.225  16.541 -0.3889  0.6237  0.2451
12435TIP3    H158796   2.453   1.320  16.530 -2.4639  0.4353 -1.8933
12435TIP3    H258797   2.544   1.200  16.518 -0.2209  1.9264 -0.6507
12436TIP3   OH258798   2.655   5.329  14.408  0.3055 -0.2622 -0.3143
12436TIP3    H158799   2.701   5.404  14.445  0.6820 -0.3003 -0.7007
12436TIP3    H258800   2.696   5.253  14.449 -0.5672 -0.2345  0.6277
12437TIP3   OH258801   6.469   5.640   1.802 -0.3092 -0.1539  0.3320
12437TIP3    H158802   6.514   5.658   1.884 -0.1029 -0.2103  0.2309
12437TIP3    H258803   6.437   5.725   1.773  1.9897  0.3627 -0.9373
12438TIP3   OH258804   3.641   2.867  14.079 -0.1455  0.5739 -0.1175
12438TIP3    H158805   3.650   2.795  14.016 -2.3623  0.6564 -0.6347
12438TIP3    H258806   3.596   2.827  14.154  2.5719  0.4490  1.5578
12439TIP3   OH258807   2.401   1.820  12.075 -0.1611 -0.7175  0.0732
12439TIP3    H158808   2.364   1.734  12.055 -0.9560 -0.3447 -0.0892
12439TIP3    H258809   2.365   1.878  12.008  0.5728 -0.3039  0.0279
12440TIP3   OH258810   3.063   4.787  14.417  0.4062 -0.0166  0.2504
12440TIP3    H158811   3.104   4.745  14.342 -2.8535 -0.0938 -1.6950
12440TIP3    H258812   3.020   4.864  14.381 -2.6515 -0.9206  1.6087
12441TIP3   OH258813   4.042   3.735   1.718 -0.0753 -0.4897 -0.3908
12441TIP3    H158814   4.121   3.783   1.693 -0.1380  0.5978  1.3248
12441TIP3    H258815   3.997   3.718   1.635  0.6620  1.2016 -1.1840
12442TIP3   OH258816   2.412   0.753   4.880  1.1696 -0.2223  0.1200
12442TIP3    H158817   2.453   0.838   4.867  2.1085 -0.4815  1.2099
12442TIP3    H258818   2.340   0.751   4.817  3.6289 -0.3125 -2.9351
12443TIP3   OH258819   2.522   4.685  15.297 -0.0966 -0.2839  0.8038
12443TIP3    H158820   2.504   4.769  15.339 -0.2677  0.1998 -0.2047
12443TIP3    H258821   2.467   4.685  15.218  1.0207 -0.6879 -0.0095
12444TIP3   OH258822   4.063   1.201  16.628  0.0606 -0.2540 -0.0795
12444TIP3    H158823   4.054   1.145  16.705 -0.1706 -1.9640 -1.2793
12444TIP3    H258824   4.138   1.165  16.581 -1.1641 -0.7415 -1.7781
12445TIP3   OH258825   6.137   4.573  14.972 -0.2928 -0.6615 -0.0962
12445TIP3    H158826   6.109   4.585  15.063  2.1911 -0.3056  0.7076
12445TIP3    H258827   6.122   4.480  14.954 -0.9707 -0.6960  0.6100
12446TIP3   OH258828   0.810   0.502  14.376  0.3749 -0.2983 -0.1272
12446TIP3    H158829   0.812   0.410  14.351 -2.4193 -0.7628  1.0130
12446TIP3    H258830   0.854   0.505  14.460 -0.6131 -0.8714  0.4350
12447TIP3   OH258831   2.732   1.769   1.231  0.3089  0.1019  0.1256
12447TIP3    H158832   2.671   1.737   1.297  0.2121 -1.2258 -0.5806
12447TIP3    H258833   2.766   1.690   1.189  1.7257  0.8550 -0.2007
12448TIP3   OH258834   0.486   3.919  11.449 -0.1228 -0.1328  0.2014
12448TIP3    H158835   0.543   3.891  11.521 -0.4994 -0.0134  0.5469
12448TIP3    H258836   0.524   4.001  11.419  0.4631 -0.5479 -0.2239
12449TIP3   OH258837   0.398   2.915   1.058  0.0836 -0.6600  0.3433
12449TIP3    H158838   0.432   2.989   1.007  1.7783 -2.3566 -1.1422
12449TIP3    H258839   0.327   2.880   1.005 -1.2490  0.2910  1.4165
12450TIP3   OH258840   6.495   0.194   3.643  0.7931  0.2239  1.1177
12450TIP3    H158841   6.434   0.131   3.683 -1.0093  0.6218 -0.7996
12450TIP3    H258842   6.524   0.151   3.563  1.0960  1.0478  0.7766
12451TIP3   OH258843   0.878   4.916   2.602 -0.2555 -0.2156 -0.3495
12451TIP3    H158844   0.897   4.833   2.645 -1.3562 -0.0744  0.4725
12451TIP3    H258845   0.786   4.909   2.576  0.3499 -0.2625 -2.6669
12452TIP3   OH258846   4.214   2.978   4.688  0.3823  0.0527  0.6143
12452TIP3    H158847   4.253   2.941   4.609  1.5802 -0.6727  1.5011
12452TIP3    H258848   4.272   3.050   4.712  1.5377 -1.3231  2.2011
12453TIP3   OH258849   4.118   5.214   5.975 -0.0315  0.4141 -0.3042
12453TIP3    H158850   4.172   5.245   5.902 -0.7565  0.4063 -0.8659
12453TIP3    H258851   4.174   5.219   6.051  0.6803  0.6317 -0.8345
12454TIP3   OH258852   2.843   1.886   5.028 -0.2410  0.3598 -0.0319
12454TIP3    H158853   2.906   1.958   5.027 -0.2791  0.3942 -0.7413
12454TIP3    H258854   2.804   1.889   5.115  2.1724 -0.9417  1.1735
12455TIP3   OH258855   4.402   3.294   5.377  0.5796  0.1380 -0.2324
12455TIP3    H158856   4.375   3.203   5.364  0.7419  0.2970 -1.8041
12455TIP3    H258857   4.493   3.296   5.348  0.9935  0.5359  1.0258
12456TIP3   OH258858   1.932   5.804   3.085  0.0082 -0.2714 -0.0917
12456TIP3    H158859   1.865   5.808   3.154  1.3074  0.9062  1.1484
12456TIP3    H258860   1.967   5.715   3.091 -0.5003 -0.4645  0.1433
12457TIP3   OH258861   4.526   4.483  11.292  0.1064  0.6309 -0.3958
12457TIP3    H158862   4.553   4.434  11.214  3.3750  1.8773 -0.1961
12457TIP3    H258863   4.476   4.557  11.257  0.4974  0.5264 -1.2014
12458TIP3   OH258864   0.797   1.382  13.164  0.3000  0.0097  0.2732
12458TIP3    H158865   0.715   1.351  13.125 -0.0760 -0.7572  1.6121
12458TIP3    H258866   0.862   1.317  13.137  0.1801 -0.1441  0.3528
12459TIP3   OH258867   0.148   2.396   1.622 -0.6056 -0.2449  0.5121
12459TIP3    H158868   0.162   2.304   1.604 -0.7591 -0.1575 -0.0667
12459TIP3    H258869   0.067   2.398   1.673 -0.9970 -0.3772 -0.0957
12460TIP3   OH258870   3.453   6.641  10.814 -0.4733  0.5180  0.4712
12460TIP3    H158871   3.378   6.696  10.835 -0.2293  1.5904 -1.2853
12460TIP3    H258872   3.415   6.555  10.796 -1.3072  1.0372 -0.3578
12461TIP3   OH258873   3.410   3.460  11.690 -0.3402  0.1728  0.2938
12461TIP3    H158874   3.369   3.381  11.654  0.1997 -0.1187  0.3127
12461TIP3    H258875   3.465   3.493  11.619  1.8365 -1.1898  1.2668
12462TIP3   OH258876   3.061   1.017  12.888 -0.1327  0.3130  0.3404
12462TIP3    H158877   3.102   1.102  12.873 -1.3065  0.9482  0.6078
12462TIP3    H258878   2.983   1.037  12.940 -2.3787 -0.4675 -2.4818
12463TIP3   OH258879   6.516   6.805  16.973 -0.1077  0.0706 -0.3367
12463TIP3    H158880   6.442   6.745  16.973 -1.3042  1.3882  2.1951
12463TIP3    H258881   6.564   6.784  17.053 -1.2197  3.0931  1.2773
12464TIP3   OH258882   5.704   2.869   3.441 -0.8132 -0.2080 -0.0781
12464TIP3    H158883   5.754   2.788   3.441 -0.5994 -0.0802  0.2051
12464TIP3    H258884   5.709   2.900   3.532 -2.8862 -1.0980  0.3826
12465TIP3   OH258885   3.150   0.580   3.301 -0.0781 -0.1254 -0.0080
12465TIP3    H158886   3.199   0.544   3.228  1.3659  1.4691  0.1110
12465TIP3    H258887   3.059   0.556   3.283  0.5836 -2.1677 -0.8327
12466TIP3   OH258888   3.062   6.168   6.098  0.5130  0.1713  0.1850
12466TIP3    H158889   3.022   6.142   6.181  1.7188 -1.5326  0.2707
12466TIP3    H258890   3.082   6.261   6.109  0.6507 -0.0213  1.8052
12467TIP3   OH258891   1.193   2.095  16.074  0.2413  0.4128 -0.2422
12467TIP3    H158892   1.202   2.145  15.993 -3.0077 -0.5631 -1.3572
12467TIP3    H258893   1.247   2.018  16.060  1.4887  1.3101 -0.5136
12468TIP3   OH258894   2.090   6.771  13.822 -0.6250  0.5690  0.0653
12468TIP3    H158895   2.090   6.681  13.854 -0.0881  0.4700 -0.1978
12468TIP3    H258896   2.150   6.817  13.881  1.0618  0.1930 -1.2772
12469TIP3   OH258897   6.220   3.171   2.378  1.1533 -0.0167  0.0096
12469TIP3    H158898   6.290   3.145   2.438  0.9900 -1.1535 -0.2594
12469TIP3    H258899   6.233   3.116   2.301 -0.4577 -0.8021  0.2503
12470TIP3   OH258900   0.492   4.592   1.416  0.7760  0.3224  0.7123
12470TIP3    H158901   0.480   4.572   1.323 -1.3531 -0.8280  1.1633
12470TIP3    H258902   0.559   4.530   1.445 -0.2711 -1.0025  0.4166
12471TIP3   OH258903   4.731   3.579   0.706  0.3435 -0.4913  0.2962
12471TIP3    H158904   4.826   3.567   0.708  0.2846 -1.2109 -0.7552
12471TIP3    H258905   4.696   3.490   0.706 -0.3353 -0.2287  0.4341
12472TIP3   OH258906   3.800   1.363   4.209  0.8828 -0.5739 -0.4994
12472TIP3    H158907   3.758   1.438   4.250  0.4303 -0.1710 -1.6487
12472TIP3    H258908   3.822   1.305   4.281  1.1952  0.6362  0.4121
12473TIP3   OH258909   5.887   2.078  11.186 -0.3167 -0.4720 -0.4018
12473TIP3    H158910   5.974   2.058  11.149  0.1117 -0.4526  0.5634
12473TIP3    H258911   5.885   2.174  11.191 -0.0940 -0.5022  0.2729
12474TIP3   OH258912   3.124   1.360  12.441  0.1339  0.6020  0.7101
12474TIP3    H158913   3.128   1.265  12.454 -0.6821  0.3719 -0.5082
12474TIP3    H258914   3.131   1.397  12.529  1.0236 -0.5528  1.1591
12475TIP3   OH258915   2.686   2.734  17.100 -0.2057 -0.3717 -0.0591
12475TIP3    H158916   2.629   2.807  17.125  2.4965  1.4455  1.2571
12475TIP3    H258917   2.692   2.680  17.178  0.5367 -0.0759  0.0924
12476TIP3   OH258918   1.613   0.948  12.469  0.7397  1.3714 -0.0770
12476TIP3    H158919   1.547   1.017  12.468 -1.6594 -0.7202  0.4473
12476TIP3    H258920   1.595   0.900  12.550  2.5663  0.3627 -0.2198
12477TIP3   OH258921   0.958   2.270   4.744  0.4726  0.2786  0.1278
12477TIP3    H158922   1.027   2.212   4.712 -0.4358 -0.2429 -0.9651
12477TIP3    H258923   0.904   2.288   4.667  0.2327  1.8872  0.6371
12478TIP3   OH258924   3.725   6.330  16.398 -0.3270  0.4642 -0.7572
12478TIP3    H158925   3.817   6.316  16.377  0.4422  3.7072 -0.1763
12478TIP3    H258926   3.696   6.248  16.438  2.7615 -0.1188  0.5431
12479TIP3   OH258927   4.697   2.574   3.538 -0.0066 -0.3905  0.0582
12479TIP3    H158928   4.685   2.617   3.623  0.5888 -1.0788  0.4969
12479TIP3    H258929   4.622   2.516   3.530 -0.9351  0.8468 -0.6362
12480TIP3   OH258930   0.533   3.764  14.351 -0.0289 -0.4402 -0.0731
12480TIP3    H158931   0.518   3.819  14.274  0.9415  0.3712  0.3039
12480TIP3    H258932   0.596   3.698  14.321 -0.1977 -0.5644 -0.1606
12481TIP3   OH258933   2.948   6.034  13.482 -0.3753  0.6004  0.0891
12481TIP3    H158934   2.861   6.048  13.446 -0.2060  1.5988  0.0371
12481TIP3    H258935   2.951   5.941  13.503 -1.0340  0.3204 -1.0026
12482TIP3   OH258936   2.401   0.932   2.348  0.4758 -0.5136  0.5610
12482TIP3    H158937   2.322   0.916   2.400  0.9712 -0.8198  1.2340
12482TIP3    H258938   2.371   0.931   2.257 -0.2710 -0.7414  0.8072
12483TIP3   OH258939   6.783   6.483   5.193 -0.2983  0.0308 -0.6123
12483TIP3    H158940   6.765   6.442   5.277 -1.2180 -0.4559 -1.0192
12483TIP3    H258941   6.806   6.410   5.135  0.5807  0.3886 -0.7281
12484TIP3   OH258942   2.647   3.234  16.032  0.7846  0.1419 -0.1001
12484TIP3    H158943   2.566   3.285  16.033  0.4407 -0.3998  0.3332
12484TIP3    H258944   2.625   3.155  15.983 -0.3676 -2.1944  3.7526
12485TIP3   OH258945   2.208   2.639  12.527 -0.1853  0.2290 -0.3804
12485TIP3    H158946   2.243   2.613  12.442  0.1715 -0.0174 -0.1585
12485TIP3    H258947   2.180   2.558  12.568 -1.9335  0.5139 -0.9464
12486TIP3   OH258948   2.717   0.443   5.275 -0.2722 -0.0854 -0.2786
12486TIP3    H158949   2.659   0.411   5.344 -0.3215 -0.1364 -0.3444
12486TIP3    H258950   2.783   0.495   5.322 -0.6158  0.3278 -0.2399
12487TIP3   OH258951   6.486   0.724   4.156 -0.0892  0.2382  0.0032
12487TIP3    H158952   6.515   0.773   4.234 -3.3119  1.4061  0.6476
12487TIP3    H258953   6.486   0.633   4.184 -0.0783  0.5289  1.0070
12488TIP3   OH258954   4.877   0.695  15.723 -0.0658 -0.0918 -0.3990
12488TIP3    H158955   4.910   0.623  15.778  1.8809  0.9703 -0.0664
12488TIP3    H258956   4.891   0.773  15.776  1.2573  0.8959 -2.0883
12489TIP3   OH258957   3.894   6.402  12.346 -0.0784 -0.0862 -0.0625
12489TIP3    H158958   3.943   6.375  12.269  0.6595  0.7895  0.0873
12489TIP3    H258959   3.897   6.325  12.404 -0.4719 -0.6777 -0.8077
12490TIP3   OH258960   6.267   1.741   1.602 -0.0933 -0.4368  0.2836
12490TIP3    H158961   6.236   1.683   1.671 -0.5546  1.4534  1.7489
12490TIP3    H258962   6.346   1.781   1.637  0.8391 -0.9676 -1.1427
12491TIP3   OH258963   3.587   4.796   0.248 -0.5523 -0.3640 -0.5104
12491TIP3    H158964   3.648   4.849   0.196  1.6286 -1.3954  0.8424
12491TIP3    H258965   3.589   4.710   0.206  0.2539 -0.8520  0.4761
12492TIP3   OH258966   2.034   3.203  17.030  0.0732 -0.2414 -0.1859
12492TIP3    H158967   1.946   3.177  17.055 -0.7674  0.5699 -2.1105
12492TIP3    H258968   2.084   3.202  17.112 -1.5308 -1.3729  0.8228
12493TIP3   OH258969   6.020   1.881   2.152 -0.4888  0.4885  0.0133
12493TIP3    H158970   5.972   1.964   2.154 -1.2313  0.0774 -0.6195
12493TIP3    H258971   5.952   1.813   2.153  0.1213 -0.1473  1.5621
12494TIP3   OH258972   3.045   2.615  16.607 -0.3926  0.2661 -0.1218
12494TIP3    H158973   3.037   2.614  16.702  0.6774 -0.9599 -0.0122
12494TIP3    H258974   3.136   2.642  16.592 -0.3924 -0.1011 -0.7804
12495TIP3   OH258975   3.024   2.374  14.660  0.3866  0.2898  0.0287
12495TIP3    H158976   3.074   2.454  14.643  1.9706 -0.6226  0.1791
12495TIP3    H258977   2.933   2.404  14.669  0.6962  1.8650 -1.4658
12496TIP3   OH258978   2.514   2.481  12.932  0.3080  0.0510  0.0649
12496TIP3    H158979   2.608   2.489  12.945  0.4371  2.2076 -1.5685
12496TIP3    H258980   2.503   2.470  12.838 -1.0826  0.1514  0.1912
12497TIP3   OH258981   0.196   6.021   3.024 -0.5688  0.7587 -0.4375
12497TIP3    H158982   0.249   6.009   3.103 -0.2938 -1.4847 -0.8982
12497TIP3    H258983   0.260   6.032   2.954 -0.7070 -0.3531 -0.7618
12498TIP3   OH258984   3.609   1.216  13.923  0.5788  0.7527 -0.1872
12498TIP3    H158985   3.574   1.255  13.843 -0.9070  2.0880  1.0464
12498TIP3    H258986   3.644   1.290  13.972  0.0937  0.1846  1.0537
12499TIP3   OH258987   4.648   2.182  16.174 -0.0679  0.4718  0.1811
12499TIP3    H158988   4.567   2.132  16.189  0.6372 -0.5638  0.6645
12499TIP3    H258989   4.652   2.242  16.248 -1.0579  1.4612 -0.5412
12500TIP3   OH258990   5.062   2.444  16.248 -0.3048  0.2370 -0.5840
12500TIP3    H158991   4.993   2.507  16.264 -2.0926 -1.7977  0.1882
12500TIP3    H258992   5.023   2.379  16.190  0.3327 -1.8524  1.1965
12501TIP3   OH258993   3.115   1.261  14.821  0.1400  0.3243 -0.4615
12501TIP3    H158994   3.095   1.339  14.872 -0.9357 -1.0386  1.3219
12501TIP3    H258995   3.209   1.269  14.801  0.6425  0.9248  1.7980
12502TIP3   OH258996   3.669   6.319  12.896 -0.0724  0.1471  0.2439
12502TIP3    H158997   3.764   6.334  12.900  0.3238 -1.2827 -2.0293
12502TIP3    H258998   3.659   6.224  12.896 -1.5444  0.2712  0.5570
12503TIP3   OH258999   1.490   6.652  14.386  0.8204 -0.0232  0.3200
12503TIP3    H159000   1.489   6.644  14.290 -0.5150 -1.4681  0.4110
12503TIP3    H259001   1.520   6.741  14.402  1.0899  0.2415 -1.4482
12504TIP3   OH259002   4.554   4.317  15.123  0.3151  0.0547  0.1081
12504TIP3    H159003   4.638   4.294  15.085 -0.2304 -0.7502 -0.6499
12504TIP3    H259004   4.543   4.256  15.196  0.4685  0.2864  0.3269
12505TIP3   OH259005   3.360   1.288  14.715  0.2271 -0.1586  1.0723
12505TIP3    H159006   3.414   1.211  14.696 -1.1377 -0.8532 -0.1663
12505TIP3    H259007   3.405   1.360  14.671  0.5717 -0.5793  0.7172
12506TIP3   OH259008   5.725   0.493   0.746 -0.1717 -0.0399 -0.5587
12506TIP3    H159009   5.721   0.421   0.808  0.8528 -0.5135 -1.0195
12506TIP3    H259010   5.741   0.451   0.661 -2.1704  0.5341 -1.2789
12507TIP3   OH259011   2.920   1.079  12.188 -0.0626  0.4694 -0.2147
12507TIP3    H159012   2.834   1.108  12.159 -0.1425  0.6051  0.1530
12507TIP3    H259013   2.965   1.160  12.215  0.4742  0.5038 -1.1516
12508TIP3   OH259014   0.195   4.478  13.398  0.3355  0.4687 -1.0378
12508TIP3    H159015   0.151   4.561  13.378  0.0418  0.2693 -1.2376
12508TIP3    H259016   0.267   4.473  13.335  0.6571  0.8032 -0.7020
12509TIP3   OH259017   6.289   4.984  11.420 -0.3660  0.2477 -0.0673
12509TIP3    H159018   6.351   4.984  11.493  0.9039  3.6163 -0.9558
12509TIP3    H259019   6.279   4.892  11.397  1.8518 -0.6645  2.1755
12510TIP3   OH259020   0.083   5.828  16.746  0.2107 -0.0981  0.2951
12510TIP3    H159021   0.152   5.880  16.704  1.2573 -1.3675  0.3743
12510TIP3    H259022   0.054   5.767  16.679 -1.1940  0.7096  0.1250
12511TIP3   OH259023   6.553   4.501  14.479 -0.0689 -1.0151 -0.2282
12511TIP3    H159024   6.558   4.596  14.495  0.8556 -0.9424 -0.8422
12511TIP3    H259025   6.557   4.493  14.383 -0.4135 -1.6644 -0.1903
12512TIP3   OH259026   5.596   5.917   1.542 -0.1005  0.5636 -0.0912
12512TIP3    H159027   5.528   5.949   1.482 -0.6120 -1.2159 -0.5398
12512TIP3    H259028   5.549   5.900   1.624  0.4449  2.2556  0.6016
12513TIP3   OH259029   1.218   4.848   2.327  0.1245 -0.1416  0.2602
12513TIP3    H159030   1.200   4.898   2.407  0.0551 -0.0358  0.1787
12513TIP3    H259031   1.313   4.834   2.329  0.4446  1.5974 -0.6430
12514TIP3   OH259032   1.967   0.502   5.247  0.3559  0.4769  0.7407
12514TIP3    H159033   2.047   0.465   5.209 -0.3793 -2.5132  1.8322
12514TIP3    H259034   1.956   0.586   5.202  2.6938 -0.1757 -1.2760
12515TIP3   OH259035   2.876   5.604   4.970 -0.2613  0.3369 -0.2929
12515TIP3    H159036   2.935   5.548   4.920  0.2674  1.8661 -1.4729
12515TIP3    H259037   2.913   5.692   4.960 -0.0425  0.7157  2.9705
12516TIP3   OH259038   6.237   1.183   3.882 -0.5842  0.0658 -0.4231
12516TIP3    H159039   6.318   1.156   3.925 -0.9910 -2.6196 -1.1425
12516TIP3    H259040   6.189   1.232   3.949  1.0792  0.6510  0.3953
12517TIP3   OH259041   0.290   0.717   1.816  0.0759 -0.4098  0.1645
12517TIP3    H159042   0.386   0.710   1.817  0.0077 -2.2953 -0.9337
12517TIP3    H259043   0.273   0.804   1.781  1.3885  0.0074  0.4985
12518TIP3   OH259044   2.470   1.046  11.243  0.5245  0.5810  0.0047
12518TIP3    H159045   2.519   1.103  11.303  1.6452 -0.6656  0.3165
12518TIP3    H259046   2.479   0.958  11.280 -2.4037  0.3310  0.3543
12519TIP3   OH259047   4.214   0.836   1.660 -0.1138  0.3319  0.5192
12519TIP3    H159048   4.229   0.752   1.704 -0.2291  0.3819  0.6544
12519TIP3    H259049   4.279   0.895   1.698 -0.0283  0.3045  0.4191
12520TIP3   OH259050   0.894   6.370  16.408  0.0258  0.2487  0.3940
12520TIP3    H159051   0.834   6.329  16.470  1.7985 -1.1392  1.3169
12520TIP3    H259052   0.961   6.411  16.463  0.1187  1.4505 -0.5893
12521TIP3   OH259053   2.600   0.544   3.428 -0.0951 -0.1751 -0.0566
12521TIP3    H159054   2.548   0.464   3.434  1.2040 -1.0286  0.0405
12521TIP3    H259055   2.660   0.539   3.502  0.2853  0.6942 -0.2976
12522TIP3   OH259056   0.121   1.626  13.563  0.5262  0.2381  0.2578
12522TIP3    H159057   0.072   1.544  13.565 -0.7992  1.0049  0.4764
12522TIP3    H259058   0.076   1.679  13.497  1.3339  0.8088  0.1546
12523TIP3   OH259059   5.857   3.324  16.225 -0.1546 -0.3049  0.3864
12523TIP3    H159060   5.818   3.354  16.308  0.5350  0.1308  0.5586
12523TIP3    H259061   5.804   3.367  16.158 -0.5782 -0.4852  0.5929
12524TIP3   OH259062   4.745   2.844   4.004  0.2142 -0.2980 -0.4986
12524TIP3    H159063   4.709   2.822   4.090  1.2930 -1.6215 -0.3561
12524TIP3    H259064   4.765   2.937   4.010 -0.9991 -0.0548  0.1925
12525TIP3   OH259065   1.694   5.783  12.766 -0.3269  0.5794  0.3474
12525TIP3    H159066   1.734   5.801  12.681 -1.0468  0.6155  0.0095
12525TIP3    H259067   1.722   5.855  12.822  0.4048  0.3904  0.2325
12526TIP3   OH259068   5.221   3.357   3.207  0.3051 -0.1599 -0.0220
12526TIP3    H159069   5.182   3.279   3.246 -0.3578  0.2342  0.1209
12526TIP3    H259070   5.292   3.381   3.268 -1.3856  1.0596  1.5628
12527TIP3   OH259071   2.576   5.799  16.704 -0.3080  0.2379 -0.6663
12527TIP3    H159072   2.617   5.739  16.641  0.3115  2.1691 -2.2168
12527TIP3    H259073   2.486   5.809  16.673 -0.7744 -0.7678  0.2953
12528TIP3   OH259074   6.807   1.087   1.304  0.1523 -0.3639 -0.5425
12528TIP3    H159075   6.731   1.144   1.291 -0.1411 -0.3155  1.2198
12528TIP3    H259076   6.773   0.999   1.293  0.2337 -0.2862 -1.5077
12529TIP3   OH259077   1.548   4.908   5.716 -0.3282  0.3095 -0.7941
12529TIP3    H159078   1.567   4.995   5.682 -0.1938 -0.0849 -1.7657
12529TIP3    H259079   1.473   4.921   5.774  0.9508  1.3878  0.6776
12530TIP3   OH259080   6.625   3.261  11.394 -0.0204  0.1460 -0.4393
12530TIP3    H159081   6.633   3.344  11.349 -1.4493  0.5608  0.0301
12530TIP3    H259082   6.540   3.226  11.367 -0.7394  0.2201  1.5612
12531TIP3   OH259083   5.803   2.725   0.621  0.8121 -0.5795  0.0239
12531TIP3    H159084   5.779   2.683   0.538  1.8166 -1.2145  0.0305
12531TIP3    H259085   5.895   2.700   0.634  0.2548 -1.8353  2.1049
12532TIP3   OH259086   5.598   3.244  15.241  0.3046 -0.2875 -0.0602
12532TIP3    H159087   5.519   3.291  15.214  0.8261  0.8811  0.3724
12532TIP3    H259088   5.643   3.222  15.159  0.6921  1.1347 -0.2545
12533TIP3   OH259089   0.172   1.650   5.087 -0.1976  0.3086 -0.3133
12533TIP3    H159090   0.078   1.648   5.071 -0.2034  0.8866 -0.3828
12533TIP3    H259091   0.190   1.741   5.110  0.4428  0.3285 -0.8870
12534TIP3   OH259092   4.966   3.413   5.910 -0.0999  0.0061 -0.2145
12534TIP3    H159093   5.014   3.338   5.946  0.5133  0.6599  0.3786
12534TIP3    H259094   4.888   3.375   5.870  0.0194 -0.9173  0.3906
12535TIP3   OH259095   2.506   3.517  13.121 -0.0730  0.1392 -0.4786
12535TIP3    H159096   2.503   3.459  13.044  0.2462  0.7039 -0.9213
12535TIP3    H259097   2.474   3.462  13.193 -2.0881  0.1149 -1.3160
12536TIP3   OH259098   5.947   5.200  12.739 -0.3815  0.3418 -0.1336
12536TIP3    H159099   5.944   5.111  12.703 -0.9081  0.3122 -0.0324
12536TIP3    H259100   6.037   5.229  12.725 -0.5388  0.2999 -1.4215
12537TIP3   OH259101   0.725   0.405  13.140  0.2393 -0.3450  0.6670
12537TIP3    H159102   0.763   0.418  13.226  1.7337  0.3126 -0.0502
12537TIP3    H259103   0.755   0.481  13.089 -0.8277 -0.5811 -0.3558
12538TIP3   OH259104   0.470   4.522  14.648 -0.2299  0.1693 -0.4367
12538TIP3    H159105   0.512   4.595  14.695 -0.6026  0.4264 -0.5006
12538TIP3    H259106   0.507   4.527  14.560 -2.6055  2.3143 -1.4489
12539TIP3   OH259107   6.320   0.266  15.491 -0.0923  0.1501  0.5856
12539TIP3    H159108   6.226   0.264  15.474 -0.1396  0.8163  0.7667
12539TIP3    H259109   6.335   0.188  15.545 -0.1410 -1.2534 -1.3159
12540TIP3   OH259110   2.275   0.385   1.963  0.2294 -0.0860  0.4049
12540TIP3    H159111   2.222   0.307   1.946 -0.5597  0.9536 -2.4370
12540TIP3    H259112   2.216   0.446   2.007 -0.1812  0.1176 -0.4152
12541TIP3   OH259113   0.807   1.393  12.105  0.1099 -0.6172 -0.6522
12541TIP3    H159114   0.805   1.297  12.101  1.8937 -0.7726  0.6723
12541TIP3    H259115   0.878   1.418  12.046 -0.4054 -0.1015 -1.0574
12542TIP3   OH259116   6.192   5.990   3.498 -0.0580 -0.2729  0.0635
12542TIP3    H159117   6.198   6.083   3.521  1.4754 -0.6527  1.4298
12542TIP3    H259118   6.268   5.974   3.441  0.1765 -0.8403  0.5210
12543TIP3   OH259119   6.690   1.299  13.901 -0.3545  0.1702 -0.4869
12543TIP3    H159120   6.640   1.223  13.929  0.2168  0.3221  1.0262
12543TIP3    H259121   6.781   1.270  13.898  0.1338  1.1779  1.8907
12544TIP3   OH259122   4.498   0.635  13.179  0.0804  0.3336  0.4738
12544TIP3    H159123   4.511   0.586  13.098  1.0751 -1.9968  1.9181
12544TIP3    H259124   4.512   0.570  13.248 -4.1706  1.2848  2.5512
12545TIP3   OH259125   2.294   1.722  15.330  0.8526  0.1302  0.4154
12545TIP3    H159126   2.328   1.698  15.417  0.5793 -1.2561  0.1602
12545TIP3    H259127   2.255   1.642  15.297 -1.7145  1.3574  0.2043
12546TIP3   OH259128   6.717   4.802  13.562  0.0478  0.1695  0.3991
12546TIP3    H159129   6.660   4.855  13.618  0.1363 -0.2738  0.9136
12546TIP3    H259130   6.754   4.736  13.621  0.6995  0.1401 -0.0371
12547TIP3   OH259131   2.497   2.848  11.618 -0.1280 -0.1120  0.0393
12547TIP3    H159132   2.410   2.836  11.654 -1.5731 -1.0578 -3.3638
12547TIP3    H259133   2.489   2.924  11.560  0.8957 -1.0227 -1.3513
12548TIP3   OH259134   6.037   0.488  15.132  0.3633  0.1618  0.2488
12548TIP3    H159135   6.129   0.503  15.154  0.4780  0.4331 -0.4250
12548TIP3    H259136   6.038   0.460  15.041  0.0777 -2.9777  1.0896
12549TIP3   OH259137   6.447   4.325   1.976  0.1411  0.2624 -0.2428
12549TIP3    H159138   6.423   4.416   1.994 -0.3488 -0.1814  1.5508
12549TIP3    H259139   6.404   4.305   1.893 -1.9620  0.8972  0.6184
12550TIP3   OH259140   1.505   2.622   6.776  0.2803 -0.0012  0.1191
12550TIP3    H159141   1.558   2.627   6.856  0.6730  0.2824 -0.1536
12550TIP3    H259142   1.555   2.565   6.718 -0.2460 -0.6052  0.2558
12551TIP3   OH259143   6.680   2.250  10.668 -0.0370 -0.0831 -0.0472
12551TIP3    H159144   6.653   2.158  10.660 -0.0162 -0.1141  0.2289
12551TIP3    H259145   6.605   2.300  10.637 -0.3023 -0.1777  0.4343
12552TIP3   OH259146   1.908   6.801  13.622 -0.0840  0.2940 -0.4169
12552TIP3    H159147   1.963   6.785  13.545  0.1994  0.7269 -0.3108
12552TIP3    H259148   1.966   6.785  13.697 -0.3675 -0.1592 -0.2901
12553TIP3   OH259149   2.684   5.589   5.548  0.2007 -0.2942 -0.1575
12553TIP3    H159150   2.771   5.550   5.537  0.6787  0.5508  0.5191
12553TIP3    H259151   2.693   5.678   5.513 -0.7178 -0.5705 -1.1517
12554TIP3   OH259152   5.171   3.319  10.865  0.2019 -0.3651  0.3970
12554TIP3    H159153   5.238   3.251  10.870  0.5642  0.0685  1.6342
12554TIP3    H259154   5.181   3.369  10.945  0.7063  1.8861 -0.9898
12555TIP3   OH259155   4.460   2.468   4.056  1.0182  0.3800  0.1500
12555TIP3    H159156   4.380   2.476   4.004  2.3068  0.0601 -1.9968
12555TIP3    H259157   4.525   2.433   3.995  3.0375  1.4028  1.6082
12556TIP3   OH259158   0.532   4.804  12.882  0.0547 -0.2937 -0.4472
12556TIP3    H159159   0.573   4.789  12.797  1.5393 -0.8589  0.3297
12556TIP3    H259160   0.526   4.717  12.922  1.2111  0.1709  0.8067
12557TIP3   OH259161   6.341   2.514  17.182 -0.0480 -0.0889  0.1286
12557TIP3    H159162   6.415   2.566  17.215  0.9885 -0.8876 -0.8408
12557TIP3    H259163   6.323   2.451  17.251 -0.4302  0.6805  0.7477
12558TIP3   OH259164   5.979   4.080   3.596 -0.3455 -0.3300 -0.0432
12558TIP3    H159165   5.897   4.041   3.625  0.0098 -2.3321 -1.5070
12558TIP3    H259166   5.970   4.088   3.501  1.1382 -0.5834 -0.2344
12559TIP3   OH259167   2.585   5.225  12.943  0.3365  0.6703 -0.0461
12559TIP3    H159168   2.493   5.249  12.933  0.0641  1.1481  2.7825
12559TIP3    H259169   2.610   5.190  12.857 -1.9533  2.1540 -1.4408
12560TIP3   OH259170   3.690   5.606   5.687 -0.2641  0.1577 -0.1121
12560TIP3    H159171   3.672   5.557   5.607  1.5152 -2.5981  1.0228
12560TIP3    H259172   3.785   5.620   5.685 -0.4353  1.6422  0.7053
12561TIP3   OH259173   5.875   4.258  14.704  0.3884 -0.2988  0.0986
12561TIP3    H159174   5.851   4.265  14.796 -0.4490  1.0863 -0.1840
12561TIP3    H259175   5.800   4.294  14.657  0.7163 -1.1650 -1.1450
12562TIP3   OH259176   5.061   1.417   3.337  0.3566  0.0324 -0.4614
12562TIP3    H159177   5.088   1.341   3.285  1.7293  1.2558 -1.6349
12562TIP3    H259178   5.143   1.462   3.358 -0.4236  1.1822  0.2417
12563TIP3   OH259179   3.839   0.607  16.038 -0.5582  0.1698  0.0561
12563TIP3    H159180   3.927   0.571  16.024 -1.3384 -2.1494  0.7302
12563TIP3    H259181   3.847   0.659  16.118  0.0034 -0.7466  0.6084
12564TIP3   OH259182   6.367   1.421  12.036  0.2532  0.8033  0.6212
12564TIP3    H159183   6.435   1.486  12.018  1.4895 -0.3816  0.9039
12564TIP3    H259184   6.398   1.375  12.114  0.3424 -1.3654 -0.6199
12565TIP3   OH259185   4.312   5.850   5.986  0.4106  0.1804  0.5733
12565TIP3    H159186   4.383   5.786   5.981 -1.1240 -1.5900  0.2439
12565TIP3    H259187   4.333   5.902   6.064  2.7293  0.6297 -0.2537
12566TIP3   OH259188   3.277   3.349   5.231  0.1023  0.5558 -0.3793
12566TIP3    H159189   3.307   3.336   5.141  0.9049  1.4073 -0.2496
12566TIP3    H259190   3.327   3.285   5.282 -0.6773 -0.2353 -0.5807
12567TIP3   OH259191   3.109   1.761   2.887 -0.1141  0.0357  0.6124
12567TIP3    H159192   3.183   1.819   2.869 -0.3679  0.3734  0.6253
12567TIP3    H259193   3.036   1.821   2.906 -0.0175 -0.3119  2.1377
12568TIP3   OH259194   6.822   0.679  15.827  0.5910  0.1854 -0.4904
12568TIP3    H159195   6.845   0.586  15.834  3.2916  0.8158 -0.0129
12568TIP3    H259196   6.864   0.708  15.746 -1.1503  0.8032 -1.2204
12569TIP3   OH259197   0.691   5.668   4.084 -0.2532  0.5021  0.4790
12569TIP3    H159198   0.688   5.644   4.177 -0.8381 -1.3874  0.0001
12569TIP3    H259199   0.642   5.600   4.039  1.9085  0.1141 -1.4855
12570TIP3   OH259200   3.555   0.194   5.069 -0.0683 -0.6350 -0.1959
12570TIP3    H159201   3.630   0.179   5.011 -0.7601  0.7885 -1.5364
12570TIP3    H259202   3.486   0.228   5.011 -1.1837 -0.2673  1.2795
12571TIP3   OH259203   6.737   0.279   0.196 -0.3726 -0.7076  0.1232
12571TIP3    H159204   6.809   0.326   0.238 -0.1383 -0.7935 -0.1778
12571TIP3    H259205   6.724   0.201   0.249 -1.4693  0.2097  1.2482
12572TIP3   OH259206   1.303   5.765  12.196  0.4231  0.0195 -0.7339
12572TIP3    H159207   1.211   5.786  12.216  1.2460  1.8783  1.5892
12572TIP3    H259208   1.315   5.677  12.232  0.4552  1.2858  2.7685
12573TIP3   OH259209   1.135   0.565  16.456  0.2147 -0.0519 -0.5871
12573TIP3    H159210   1.223   0.582  16.491  1.4906 -0.8874 -3.1971
12573TIP3    H259211   1.097   0.652  16.446 -0.1403  0.2502  2.4777
12574TIP3   OH259212   6.172   2.016  15.080 -0.2928 -0.2783  0.3957
12574TIP3    H159213   6.087   2.054  15.100 -0.6027 -1.5965  1.7214
12574TIP3    H259214   6.228   2.043  15.153  0.3856  0.4104 -0.3618
12575TIP3   OH259215   1.773   2.236  12.078  0.0482 -0.3573  0.6376
12575TIP3    H159216   1.837   2.205  12.142 -0.0514 -0.5305  0.6540
12575TIP3    H259217   1.783   2.176  12.004  0.2883 -0.0473  0.4174
12576TIP3   OH259218   2.863   3.568  13.621  0.2855  0.1808 -0.6144
12576TIP3    H159219   2.871   3.489  13.567  0.2875 -1.2336  1.3558
12576TIP3    H259220   2.774   3.600  13.603  0.2812 -0.2545 -1.4360
12577TIP3   OH259221   4.122   5.949   4.826 -0.3164  0.2253  0.6081
12577TIP3    H159222   4.217   5.944   4.823 -0.3125  0.4398  0.2193
12577TIP3    H259223   4.101   5.971   4.917 -0.0502 -0.7333  0.9079
12578TIP3   OH259224   2.485   3.076  15.875 -0.1506 -0.1490  0.0713
12578TIP3    H159225   2.399   3.112  15.896  0.8984  3.1435 -0.7618
12578TIP3    H259226   2.480   3.056  15.781 -0.0669 -0.2678  0.0919
12579TIP3   OH259227   4.546   3.440  15.573 -0.3449  0.1866 -0.2083
12579TIP3    H159228   4.493   3.382  15.628  0.9306 -1.7307 -0.8816
12579TIP3    H259229   4.520   3.418  15.484  1.0777 -0.2860 -0.5173
12580TIP3   OH259230   4.991   4.041   0.334 -0.8802 -0.1513 -0.5122
12580TIP3    H159231   5.079   4.024   0.299 -0.2761  1.9131 -0.1171
12580TIP3    H259232   4.956   3.954   0.353  1.8982 -0.9918  1.3242
12581TIP3   OH259233   1.018   4.598   3.173 -0.0340 -0.6243 -0.2531
12581TIP3    H159234   0.934   4.560   3.147  1.0073 -2.1574 -1.5473
12581TIP3    H259235   1.068   4.524   3.207  0.8147  0.2705  0.4923
12582TIP3   OH259236   4.934   0.592   0.743  0.1594 -0.4301  0.2229
12582TIP3    H159237   4.993   0.598   0.667  0.2194 -1.6645  0.1430
12582TIP3    H259238   4.992   0.576   0.817 -0.0554 -2.0414  0.0876
12583TIP3   OH259239   1.834   1.065  13.711  0.0947  0.1031 -0.3128
12583TIP3    H159240   1.812   1.149  13.752 -0.6248 -0.5772  0.7628
12583TIP3    H259241   1.749   1.024  13.692  0.3984 -1.0030  0.5629
12584TIP3   OH259242   2.578   6.597   3.327 -0.0063 -0.2348  0.3760
12584TIP3    H159243   2.592   6.642   3.411 -0.6500 -0.4573  0.6162
12584TIP3    H259244   2.509   6.647   3.284 -0.2452 -0.5900  0.3405
12585TIP3   OH259245   1.464   6.578  13.708  0.0367 -0.2353 -0.1663
12585TIP3    H159246   1.434   6.660  13.747 -1.3545 -0.9989  0.4440
12585TIP3    H259247   1.494   6.603  13.620 -1.2544  0.7778 -0.3447
12586TIP3   OH259248   0.368   2.372   2.962 -0.2260  0.6150  0.2829
12586TIP3    H159249   0.334   2.289   2.928 -1.2106  1.5066 -0.9983
12586TIP3    H259250   0.453   2.349   2.999 -0.9558 -1.1678  0.9839
12587TIP3   OH259251   4.797   5.491  16.226 -0.1503  0.0562  0.5654
12587TIP3    H159252   4.732   5.479  16.295 -0.0220 -2.0233  0.3907
12587TIP3    H259253   4.746   5.496  16.145 -0.1615 -2.7227  0.2938
12588TIP3   OH259254   2.773   3.119   2.430  0.6455  0.0840 -0.1858
12588TIP3    H159255   2.730   3.203   2.443 -0.2563 -0.6154  1.6519
12588TIP3    H259256   2.866   3.142   2.420  0.6176  1.2235  1.7175
12589TIP3   OH259257   0.843   0.401   4.260 -0.0308 -0.1385  0.0542
12589TIP3    H159258   0.786   0.338   4.304  1.6096 -1.3193  0.5778
12589TIP3    H259259   0.841   0.478   4.315  1.2297 -1.2597  1.7883
12590TIP3   OH259260   4.158   0.029   2.040 -0.0668  0.3280 -0.1931
12590TIP3    H159261   4.227  -0.029   2.008 -0.2215 -0.0325  0.1189
12590TIP3    H259262   4.205   0.103   2.080  0.3356 -1.6704  3.5299
12591TIP3   OH259263   3.498   5.520   4.696 -0.3832 -0.2831  0.4067
12591TIP3    H159264   3.412   5.515   4.656 -0.1005 -0.2225 -0.2212
12591TIP3    H259265   3.559   5.524   4.623  0.1423 -0.0919  0.8401
12592TIP3   OH259266   1.939   6.791  11.598  0.0602 -0.2354 -0.7033
12592TIP3    H159267   2.033   6.804  11.613  0.1204  0.5352 -1.6285
12592TIP3    H259268   1.916   6.857  11.533 -1.2387 -0.0846 -0.1231
12593TIP3   OH259269   3.051   2.475  16.873  0.7421 -0.5260  0.1254
12593TIP3    H159270   2.974   2.418  16.882  0.7566 -0.4120  1.0573
12593TIP3    H259271   3.126   2.417  16.892  0.7333 -0.1281  1.4571
12594TIP3   OH259272   1.630   3.932   2.583  0.4324 -0.1562 -0.7684
12594TIP3    H159273   1.666   4.012   2.544 -0.3834  0.2846 -0.6320
12594TIP3    H259274   1.535   3.943   2.576  0.1704  0.4660  2.3466
12595TIP3   OH259275   0.162   2.594  14.330  0.2038 -0.4768 -1.0477
12595TIP3    H159276   0.184   2.504  14.355 -2.0286 -0.7417  0.2887
12595TIP3    H259277   0.246   2.639  14.325  1.2425 -2.0853  0.5906
12596TIP3   OH259278   0.532   3.764  12.415  0.0774 -0.0742 -0.4071
12596TIP3    H159279   0.458   3.793  12.362 -1.0111 -0.5307  0.7970
12596TIP3    H259280   0.508   3.676  12.445  1.5313 -0.6189 -0.7333
12597TIP3   OH259281   3.685   0.778  17.192  0.1093 -0.1756  0.7084
12597TIP3    H159282   3.735   0.715  17.139 -1.4675 -0.6024 -0.3374
12597TIP3    H259283   3.660   0.729  17.271  0.8240 -0.1317  0.9708
12598TIP3   OH259284   5.819   1.373  16.140  0.6334 -0.1189  0.4095
12598TIP3    H159285   5.850   1.283  16.136 -0.2896 -0.4910  1.2280
12598TIP3    H259286   5.881   1.418  16.197  0.4125 -0.5499  1.0039
12599TIP3   OH259287   1.513   0.407   2.252  0.2556 -0.3081  0.3994
12599TIP3    H159288   1.565   0.473   2.205 -1.7014  0.1036 -1.3664
12599TIP3    H259289   1.530   0.326   2.205  1.5547 -0.8430  1.6984
12600TIP3   OH259290   5.319   6.597   4.635  0.4182  0.0316  1.2104
12600TIP3    H159291   5.360   6.524   4.587  0.1419  0.2412  0.6460
12600TIP3    H259292   5.367   6.601   4.718  0.2692 -0.9603  1.3560
12601TIP3   OH259293   2.452   5.667  15.501 -0.0086  0.4054 -0.5265
12601TIP3    H159294   2.532   5.719  15.503  0.3725 -0.2050  1.1389
12601TIP3    H259295   2.469   5.595  15.561 -1.8842  0.3542 -0.0158
12602TIP3   OH259296   6.767   0.053  13.593  0.3317  0.1745 -0.1323
12602TIP3    H159297   6.826   0.120  13.629  0.2942 -1.0435  2.4192
12602TIP3    H259298   6.822  -0.024  13.582 -0.6983 -1.0581  2.5224
12603TIP3   OH259299   3.386   1.855   1.288 -0.5782 -0.7113  0.2071
12603TIP3    H159300   3.445   1.886   1.219  0.5093 -0.9294  1.0236
12603TIP3    H259301   3.413   1.765   1.305 -0.4478 -0.4785  1.3155
12604TIP3   OH259302   5.053   2.880  13.990 -0.1802 -0.1754 -0.1794
12604TIP3    H159303   4.972   2.929  13.991 -1.1367 -1.5551 -2.5770
12604TIP3    H259304   5.122   2.946  13.995 -1.3286  0.9961  2.6239
12605TIP3   OH259305   1.952   3.381   2.322 -0.0941  0.5905 -0.7048
12605TIP3    H159306   1.990   3.347   2.403 -2.3697  1.5762  0.8968
12605TIP3    H259307   2.027   3.390   2.263  1.5404 -0.9465  0.9715
12606TIP3   OH259308   5.797   2.657  15.914 -0.5062  0.0552 -0.2349
12606TIP3    H159309   5.828   2.611  15.992  1.8792  0.3607 -0.9303
12606TIP3    H259310   5.781   2.587  15.850  0.2810 -0.0237 -0.3543
12607TIP3   OH259311   3.959   3.421  11.243  0.1651  0.3188  0.0118
12607TIP3    H159312   4.002   3.359  11.301  3.7742  1.2405 -1.3950
12607TIP3    H259313   3.961   3.504  11.291 -0.3559  0.3205  0.0383
12608TIP3   OH259314   1.242   6.802   1.006  0.4135 -0.3274 -0.0031
12608TIP3    H159315   1.332   6.794   1.038  0.6693 -0.7992 -0.8192
12608TIP3    H259316   1.222   6.717   0.968  0.1629  0.2540 -1.2061
12609TIP3   OH259317   6.675   3.328   1.214 -0.2678  0.5592  0.8758
12609TIP3    H159318   6.660   3.274   1.292 -0.9115 -2.8942 -1.4631
12609TIP3    H259319   6.767   3.316   1.192 -0.2927  0.8491  0.5942
12610TIP3   OH259320   0.032   4.101   1.044 -0.3355 -0.6577  0.0214
12610TIP3    H159321   0.060   4.147   1.122  1.2895 -1.3210 -0.1387
12610TIP3    H259322   0.016   4.170   0.979 -0.9532 -0.1593  0.6839
12611TIP3   OH259323   5.793   3.772   1.167  0.3758  0.0349  0.4247
12611TIP3    H159324   5.714   3.822   1.148  1.1790  0.9513 -0.6586
12611TIP3    H259325   5.768   3.712   1.237 -1.6665 -0.7202 -0.8792
12612TIP3   OH259326   1.214   4.127  16.399  0.1069  0.0869  0.6063
12612TIP3    H159327   1.263   4.190  16.451 -1.7058  1.0714  1.2134
12612TIP3    H259328   1.273   4.052  16.390  1.6317  1.1368  1.4095
12613TIP3   OH259329   0.531   3.101  14.235  0.3006 -0.0142  0.2915
12613TIP3    H159330   0.605   3.139  14.282  0.2490  0.7733 -0.2416
12613TIP3    H259331   0.486   3.047  14.300  0.5304  0.6255  0.9948
12614TIP3   OH259332   4.664   5.301  12.224  0.0720 -0.1932 -0.0197
12614TIP3    H159333   4.583   5.254  12.244  0.1235 -0.5414 -0.6154
12614TIP3    H259334   4.733   5.250  12.266 -0.2446  1.7470  3.2288
12615TIP3   OH259335   2.046   5.373   2.549 -0.1953  0.0299  0.2019
12615TIP3    H159336   2.076   5.380   2.459  0.5101  0.9119  0.4960
12615TIP3    H259337   1.954   5.400   2.546  0.0509  0.8373 -0.1183
12616TIP3   OH259338   0.474   2.827  15.518 -0.2555  0.3614 -0.0502
12616TIP3    H159339   0.423   2.753  15.486 -2.1292  0.1844  3.0156
12616TIP3    H259340   0.542   2.787  15.573  0.9853  0.7996 -1.2119
12617TIP3   OH259341   0.573   1.088  11.649  0.2131 -0.5974  0.1192
12617TIP3    H159342   0.505   1.021  11.646  1.8988 -2.4081  0.7093
12617TIP3    H259343   0.654   1.041  11.633  1.4036  1.4360 -0.1518
12618TIP3   OH259344   0.842   3.002  14.643 -0.2506  1.0036  0.6216
12618TIP3    H159345   0.819   2.912  14.622 -0.8583  0.7690  2.1719
12618TIP3    H259346   0.760   3.050  14.639 -0.1877  1.1759  1.2827
12619TIP3   OH259347   4.674   1.126  13.570  0.0571  0.6410  0.2200
12619TIP3    H159348   4.753   1.079  13.545 -1.1100 -0.9243 -0.7724
12619TIP3    H259349   4.641   1.163  13.488 -0.9043  0.1411  0.3546
12620TIP3   OH259350   4.096   5.048  14.083  0.0186  0.0469 -0.0193
12620TIP3    H159351   4.049   5.109  14.139  0.7513  0.7117 -0.1033
12620TIP3    H259352   4.042   4.969  14.082 -0.7832  0.5781  0.3509
12621TIP3   OH259353   3.450   5.736  12.407  0.0067  0.4686 -0.3292
12621TIP3    H159354   3.439   5.811  12.349 -1.2632  0.3536 -0.2690
12621TIP3    H259355   3.434   5.660  12.351  1.0742  0.2373 -0.3419
12622TIP3   OH259356   4.820   5.793  12.142  0.3035 -0.2202 -0.0662
12622TIP3    H159357   4.825   5.785  12.237  1.6979  0.6438 -0.0236
12622TIP3    H259358   4.835   5.705  12.109  0.9651 -0.3303  0.5079
12623TIP3   OH259359   2.715   2.730   2.651  0.3265 -0.3404  0.5313
12623TIP3    H159360   2.732   2.757   2.561 -0.3882 -0.2114  0.4272
12623TIP3    H259361   2.776   2.783   2.704 -1.4055  1.9713  0.3835
12624TIP3   OH259362   5.009   3.740   5.195 -0.1540  0.0998 -0.6054
12624TIP3    H159363   4.989   3.732   5.288  0.3480  1.7197 -0.3204
12624TIP3    H259364   4.928   3.770   5.155 -0.1208  0.2957 -0.5284
12625TIP3   OH259365   0.076   3.399  12.648 -0.2954 -0.6162 -0.5219
12625TIP3    H159366   0.123   3.317  12.637 -1.8542 -1.4876 -0.9261
12625TIP3    H259367   0.145   3.465  12.655  1.0008 -1.9872  0.3067
12626TIP3   OH259368   1.570   1.491  11.913 -0.0656 -0.6004 -0.4454
12626TIP3    H159369   1.484   1.525  11.936  0.9740  1.7610  0.2747
12626TIP3    H259370   1.571   1.401  11.947 -2.0002 -0.4541  0.0794
12627TIP3   OH259371   2.288   4.663   6.220  0.4688  0.2434 -0.6978
12627TIP3    H159372   2.361   4.602   6.211  1.6918  1.6805 -1.1437
12627TIP3    H259373   2.213   4.618   6.181  0.4944 -2.1949  1.7978
12628TIP3   OH259374   6.110   3.917   4.000  0.6903  0.0447  0.5809
12628TIP3    H159375   6.084   3.980   3.934 -0.7836 -1.4243 -0.3326
12628TIP3    H259376   6.100   3.963   4.083  0.4644  1.2447 -0.0915
12629TIP3   OH259377   6.153   2.529   0.237 -0.7635 -0.2496 -0.5578
12629TIP3    H159378   6.191   2.443   0.219 -0.4821 -0.2855  0.1909
12629TIP3    H259379   6.093   2.515   0.310 -1.5982 -0.0244 -1.1828
12630TIP3   OH259380   3.818   6.232   2.819 -0.5420  0.2906  0.6078
12630TIP3    H159381   3.851   6.191   2.739  1.5458  3.3045 -0.2426
12630TIP3    H259382   3.897   6.254   2.868 -1.7065  0.6722  2.3914
12631TIP3   OH259383   2.877   2.749  14.868  0.0972  0.5419 -0.0707
12631TIP3    H159384   2.959   2.773  14.826  0.6936  2.0401  1.7662
12631TIP3    H259385   2.824   2.830  14.865 -1.2118 -0.3088 -0.9619
12632TIP3   OH259386   4.184   1.530  12.637  0.4716  0.1099 -0.1130
12632TIP3    H159387   4.158   1.440  12.620 -0.4480  0.7845 -2.7334
12632TIP3    H259388   4.107   1.569  12.679  0.1998  0.1276 -0.6267
12633TIP3   OH259389   0.758   0.276   5.555 -0.7496 -0.9224  0.0339
12633TIP3    H159390   0.826   0.240   5.611 -2.0935  0.1557  2.4873
12633TIP3    H259391   0.729   0.201   5.502  1.0269 -1.8093  0.2344
12634TIP3   OH259392   0.638   0.715  15.782 -0.0745 -0.0539 -0.0256
12634TIP3    H159393   0.717   0.662  15.787  0.6219  0.8298 -1.1634
12634TIP3    H259394   0.645   0.775  15.856  0.7881  0.6034 -0.6149
12635TIP3   OH259395   0.949   1.579  16.873  0.7530  0.4354  0.1803
12635TIP3    H159396   1.023   1.638  16.867  0.7742  0.3010 -1.2512
12635TIP3    H259397   0.987   1.494  16.897  0.7398  0.9076  2.0565
12636TIP3   OH259398   1.288   6.507   4.817  0.3619 -0.3234 -0.0273
12636TIP3    H159399   1.298   6.591   4.773 -0.4749  0.2831  0.8957
12636TIP3    H259400   1.376   6.484   4.845  0.4537  0.7536  0.6066
12637TIP3   OH259401   0.415   6.200   3.589  0.0125  0.6593 -0.0797
12637TIP3    H159402   0.448   6.126   3.639  0.2062  0.9637  0.2435
12637TIP3    H259403   0.442   6.182   3.499  1.8013  1.3069  0.2885
12638TIP3   OH259404   4.406   5.336   2.894  0.4596 -0.3486  0.1427
12638TIP3    H159405   4.468   5.298   2.831 -0.7253 -0.2825 -1.1305
12638TIP3    H259406   4.428   5.295   2.978  0.7847 -2.0299 -0.7132
12639TIP3   OH259407   4.786   4.714   3.841  0.0666 -0.3714 -0.4491
12639TIP3    H159408   4.794   4.626   3.807  0.7391 -0.0059 -1.2567
12639TIP3    H259409   4.696   4.719   3.873 -0.1906 -1.1178 -1.0343
12640TIP3   OH259410   2.236   2.406  16.807  0.3379  0.3800 -0.0579
12640TIP3    H159411   2.192   2.327  16.839 -0.8097  0.2871 -1.7250
12640TIP3    H259412   2.182   2.435  16.733  2.7486  0.6266 -1.8449
12641TIP3   OH259413   5.294   0.192   0.932  0.3150  0.5755  0.5019
12641TIP3    H159414   5.365   0.211   0.872 -0.0971 -0.0930 -0.2119
12641TIP3    H259415   5.337   0.167   1.014  1.0659 -2.6736 -0.7192
12642TIP3   OH259416   6.779   2.711   4.898 -0.3481  0.1972  0.0243
12642TIP3    H159417   6.751   2.717   4.807 -1.1018  2.7763  0.3528
12642TIP3    H259418   6.715   2.654   4.939 -0.7228 -0.0049 -0.8166
12643TIP3   OH259419   0.512   4.846  13.271 -0.0231  0.3247 -0.1795
12643TIP3    H159420   0.418   4.848  13.290  0.3716  0.1447  2.1052
12643TIP3    H259421   0.524   4.912  13.203 -1.7792  0.4023 -0.4655
12644TIP3   OH259422   1.812   0.310   1.639 -0.1048  0.1063 -0.5009
12644TIP3    H159423   1.794   0.261   1.719  1.0731 -0.3150 -0.4805
12644TIP3    H259424   1.748   0.276   1.576  0.1523 -0.8765 -0.2489
12645TIP3   OH259425   1.057   3.313  16.991 -0.0832  0.2762 -0.1377
12645TIP3    H159426   0.998   3.350  16.925  1.9394  0.5637 -1.9378
12645TIP3    H259427   1.062   3.220  16.969 -0.0968  0.2056  0.1647
12646TIP3   OH259428   5.689   2.398   4.395 -0.3655 -0.2346 -0.4499
12646TIP3    H159429   5.723   2.394   4.306 -3.8445 -0.9557 -1.8995
12646TIP3    H259430   5.637   2.478   4.397  0.1303  0.0845  1.1925
12647TIP3   OH259431   0.580   0.877   0.301  0.1620  0.3897  0.4467
12647TIP3    H159432   0.652   0.862   0.363  0.9770 -2.2233 -0.9729
12647TIP3    H259433   0.511   0.817   0.330 -0.5599  1.1940  0.4239
12648TIP3   OH259434   4.451   5.422  11.352 -0.8214  0.8489  0.1683
12648TIP3    H159435   4.457   5.433  11.257 -0.4065 -0.1280  0.0691
12648TIP3    H259436   4.386   5.352  11.364  1.5279 -1.4267  0.4169
12649TIP3   OH259437   6.480   6.738   5.963 -0.2615  0.4646 -0.0330
12649TIP3    H159438   6.411   6.756   5.898 -1.4587  1.6784  1.4751
12649TIP3    H259439   6.455   6.792   6.039  3.0162  1.9422  0.1717
12650TIP3   OH259440   1.200   1.698  15.005  0.1145 -0.2254  0.3624
12650TIP3    H159441   1.204   1.694  14.910 -1.5222 -0.6149  0.2751
12650TIP3    H259442   1.160   1.783  15.024  2.0680  0.6479  0.8079
12651TIP3   OH259443   4.991   6.679  15.726 -0.3429  0.2287 -0.4517
12651TIP3    H159444   5.018   6.770  15.712  0.5901  0.0643  0.1758
12651TIP3    H259445   5.008   6.663  15.819  0.3154 -0.8388 -0.7386
12652TIP3   OH259446   4.733   1.595   2.670 -0.6348  0.1138 -0.1624
12652TIP3    H159447   4.709   1.574   2.760  0.2523 -2.6662 -0.4853
12652TIP3    H259448   4.823   1.625   2.675 -0.4348 -0.4838 -0.1711
12653TIP3   OH259449   6.703   1.506   0.240  0.2963  0.5285  0.4860
12653TIP3    H159450   6.788   1.514   0.284  0.0831  0.3774  0.9399
12653TIP3    H259451   6.652   1.451   0.299  0.1965 -0.1949 -0.2597
12654TIP3   OH259452   3.609   0.626  13.317  0.5097  0.2531  0.0601
12654TIP3    H159453   3.532   0.571  13.326 -0.5362  1.5683 -0.4081
12654TIP3    H259454   3.610   0.651  13.224  1.5097  0.2392  0.0549
12655TIP3   OH259455   6.535   4.588   2.045  0.2901 -0.1415  0.5490
12655TIP3    H159456   6.614   4.540   2.019  0.8344  0.6664  0.6783
12655TIP3    H259457   6.552   4.614   2.136 -0.8277 -1.3765  1.1361
12656TIP3   OH259458   1.771   3.636   0.156  0.0761  0.1009 -0.2063
12656TIP3    H159459   1.797   3.544   0.168  2.3957  0.8621  1.5749
12656TIP3    H259460   1.854   3.684   0.156 -1.1336  2.4473  1.6837
12657TIP3   OH259461   0.980   0.117  16.050  0.0877  0.3195  0.1822
12657TIP3    H159462   1.015   0.196  16.090  0.8876 -0.5053  1.1441
12657TIP3    H259463   0.919   0.082  16.114 -0.7506  0.4919 -0.5094
12658TIP3   OH259464   3.943   6.368  12.984 -0.0812 -0.1338 -0.0132
12658TIP3    H159465   3.927   6.448  13.034  0.9349  0.4682 -0.6150
12658TIP3    H259466   3.936   6.297  13.049 -1.2368  0.4116  0.4728
12659TIP3   OH259467   5.234   2.826   1.250  0.0294  0.3595 -0.0738
12659TIP3    H159468   5.176   2.753   1.230  0.1756  0.4246 -0.7890
12659TIP3    H259469   5.187   2.877   1.316 -0.7118  0.3762 -0.5949
12660TIP3   OH259470   1.925   5.123   2.253  0.1277 -0.0673 -0.7445
12660TIP3    H159471   1.900   5.063   2.183  1.5851 -1.4955 -0.1021
12660TIP3    H259472   1.971   5.195   2.209  0.9859 -0.9304 -1.2948
12661TIP3   OH259473   5.709   1.328  12.620 -0.0480 -0.3301  0.1668
12661TIP3    H159474   5.760   1.307  12.541  2.0129 -1.2631  1.6498
12661TIP3    H259475   5.695   1.243  12.662 -0.6856  0.1980  1.0526
12662TIP3   OH259476   6.556   6.754  14.220 -0.3514  0.0304  0.6158
12662TIP3    H159477   6.601   6.677  14.186 -0.3407  0.8305 -1.2890
12662TIP3    H259478   6.495   6.779  14.151  0.6646  2.5756  0.5335
12663TIP3   OH259479   4.685   5.588   2.175  0.0359  0.1332 -0.1466
12663TIP3    H159480   4.675   5.501   2.136 -1.2190  0.5931 -0.9138
12663TIP3    H259481   4.746   5.575   2.247  0.0165 -1.3540 -0.3698
12664TIP3   OH259482   2.395   2.808   4.143 -0.1153 -0.0071  0.0281
12664TIP3    H159483   2.361   2.895   4.161  0.4269  0.3091 -0.4415
12664TIP3    H259484   2.451   2.819   4.066 -2.3608 -1.3170 -1.9055
12665TIP3   OH259485   4.806   3.650   4.551 -0.6583  0.5687 -0.0426
12665TIP3    H159486   4.761   3.620   4.630 -0.3496 -1.3295 -0.5286
12665TIP3    H259487   4.754   3.613   4.479  0.0121  0.8540 -0.6867
12666TIP3   OH259488   3.084   6.485   0.721 -0.0496  0.5741  0.3337
12666TIP3    H159489   3.078   6.571   0.678  0.6198  0.1575 -0.6115
12666TIP3    H259490   3.141   6.434   0.664 -0.3686 -0.4744  0.9431
12667TIP3   OH259491   6.709   1.543  12.134 -0.2929 -0.9725  0.1336
12667TIP3    H159492   6.661   1.486  12.194 -0.2039 -0.6595  0.5068
12667TIP3    H259493   6.767   1.594  12.191 -1.0988  0.2130 -0.0630
12668TIP3   OH259494   4.450   5.095   4.507  0.5065  0.0934 -0.1685
12668TIP3    H159495   4.431   5.186   4.527  1.2432  0.2575 -0.1946
12668TIP3    H259496   4.364   5.053   4.503  0.2107  0.5990  0.7139
12669TIP3   OH259497   3.869   1.845   1.570 -0.2071  0.1262 -0.2841
12669TIP3    H159498   3.896   1.754   1.565 -1.5283 -0.2657 -0.7086
12669TIP3    H259499   3.900   1.875   1.655 -1.2972 -1.2459  0.6344
12670TIP3   OH259500   1.192   6.685  14.879  0.1702 -0.1288 -0.3256
12670TIP3    H159501   1.285   6.683  14.854 -0.2646  0.6932 -2.1856
12670TIP3    H259502   1.154   6.609  14.836 -0.3909  0.7201 -1.4108
12671TIP3   OH259503   3.662   4.386  11.360 -0.2101 -0.0220  0.0194
12671TIP3    H159504   3.580   4.414  11.401 -0.6084  0.5888 -1.1586
12671TIP3    H259505   3.716   4.465  11.359  0.9400 -0.7113  1.9781
12672TIP3   OH259506   3.296   4.308  16.876  0.4261  0.0672 -0.0073
12672TIP3    H159507   3.335   4.354  16.951  1.2559  0.1690 -0.4863
12672TIP3    H259508   3.358   4.238  16.856  1.0870  1.0481 -1.6278
12673TIP3   OH259509   2.376   6.212  15.706  0.6042  0.0485 -0.0785
12673TIP3    H159510   2.292   6.219  15.660  0.6779  0.3004 -0.1765
12673TIP3    H259511   2.387   6.118  15.721  0.7433 -0.0678 -0.8749
12674TIP3   OH259512   3.745   0.887  10.450 -0.2439 -0.0613  0.1352
12674TIP3    H159513   3.822   0.940  10.428  1.0230 -1.7758  0.2415
12674TIP3    H259514   3.778   0.822  10.512 -1.4107 -1.8017 -0.9875
12675TIP3   OH259515   3.280   1.207  13.074 -0.5364 -0.0204 -0.3983
12675TIP3    H159516   3.358   1.244  13.032 -0.8423  1.3683  0.1974
12675TIP3    H259517   3.207   1.240  13.022 -0.7702 -1.0164 -0.7321
12676TIP3   OH259518   4.355   5.739  13.157 -0.1819  0.0118 -0.3621
12676TIP3    H159519   4.448   5.716  13.150 -0.0589  0.0665  0.8989
12676TIP3    H259520   4.355   5.826  13.195 -0.7515  0.3018 -1.0076
12677TIP3   OH259521   1.847   6.356   1.358  0.0618  0.0242 -0.0058
12677TIP3    H159522   1.836   6.317   1.444 -0.4318 -0.1955 -0.1642
12677TIP3    H259523   1.760   6.353   1.319  0.1218  0.8371 -0.2113
12678TIP3   OH259524   0.581   5.222   3.206 -0.7222  0.8779  0.3112
12678TIP3    H159525   0.669   5.227   3.243  1.3161  0.3078 -3.8399
12678TIP3    H259526   0.542   5.145   3.246  1.5742 -0.1821  0.6751
12679TIP3   OH259527   6.752   5.416  11.375 -0.3145  0.1450  0.4246
12679TIP3    H159528   6.790   5.425  11.462 -0.0336 -1.1277  0.4450
12679TIP3    H259529   6.663   5.384  11.390  0.4049 -2.1324  0.2211
12680TIP3   OH259530   3.087   5.034  15.331  0.2728  0.2138  0.0336
12680TIP3    H159531   3.164   5.086  15.356  0.7144 -0.9844  1.3138
12680TIP3    H259532   3.122   4.945  15.317 -0.5597  0.0988 -1.4650
12681TIP3   OH259533   3.928   0.980  14.125  0.2480  0.1714 -0.1668
12681TIP3    H159534   3.966   0.969  14.212 -1.4168 -0.1715  0.5423
12681TIP3    H259535   4.000   0.956  14.065  1.1762 -0.3612  1.1050
12682TIP3   OH259536   6.016   3.985  14.708 -0.0383  0.3401 -0.6391
12682TIP3    H159537   6.078   4.039  14.660 -0.0339  0.7345 -0.1968
12682TIP3    H259538   5.932   3.999  14.663  0.1216  0.0494 -1.0420
12683TIP3   OH259539   0.800   0.884   0.469  0.4748  0.1805 -0.5489
12683TIP3    H159540   0.883   0.902   0.425  2.4659 -1.8085  2.0260
12683TIP3    H259541   0.813   0.798   0.509 -2.1348  0.6615  1.5776
12684TIP3   OH259542   2.115   6.719   0.804  0.1264  0.1440 -0.1463
12684TIP3    H159543   2.159   6.766   0.733  0.5009 -2.4573 -1.8004
12684TIP3    H259544   2.134   6.626   0.786 -1.0972 -0.7097  2.4963
12685TIP3   OH259545   2.578   3.785  11.603  0.3264 -0.6991 -0.0829
12685TIP3    H159546   2.499   3.824  11.566 -0.2020 -1.2291  0.4600
12685TIP3    H259547   2.581   3.818  11.693  0.9200 -0.4039 -0.2036
12686TIP3   OH259548   5.922   5.164   2.041  0.6865 -0.3314 -0.3050
12686TIP3    H159549   5.912   5.075   2.007  1.9816  0.1207 -2.0426
12686TIP3    H259550   5.874   5.219   1.979 -2.1965  0.0642  2.0727
12687TIP3   OH259551   5.538   2.844  13.721 -0.0671 -0.5495 -0.3074
12687TIP3    H159552   5.607   2.782  13.697  0.9222 -0.0398  1.0828
12687TIP3    H259553   5.531   2.903  13.645 -0.0581 -1.5232 -1.0795
12688TIP3   OH259554   3.822   0.260  12.711 -0.1772 -0.6147  0.4428
12688TIP3    H159555   3.836   0.280  12.804 -1.0615 -0.2437  0.5130
12688TIP3    H259556   3.742   0.207  12.710 -2.9068  3.0801 -0.3905
12689TIP3   OH259557   3.982   1.259  13.300 -0.2343 -0.0490 -0.1577
12689TIP3    H159558   3.904   1.312  13.288  0.9398  1.6083 -0.7669
12689TIP3    H259559   3.990   1.209  13.218  0.2372  1.0531 -0.8151
12690TIP3   OH259560   6.419   6.266  13.892  0.2253 -0.3541 -0.4100
12690TIP3    H159561   6.441   6.341  13.836  2.3951 -1.8745 -1.7515
12690TIP3    H259562   6.458   6.286  13.977 -0.0074  0.4371 -0.4857
12691TIP3   OH259563   6.020   5.553   1.865 -0.2082  0.8521  0.2635
12691TIP3    H159564   6.033   5.554   1.770  1.5697  1.4680  0.4742
12691TIP3    H259565   6.079   5.620   1.898  1.6117 -1.4485  2.0384
12692TIP3   OH259566   0.158   5.097   3.052 -0.0645  0.0233 -0.0341
12692TIP3    H159567   0.072   5.058   3.038  0.0542 -0.9152  1.5756
12692TIP3    H259568   0.217   5.047   2.996 -0.3042 -0.4737  0.1507
12693TIP3   OH259569   3.698   0.441  13.758 -0.1120 -0.1365  0.2026
12693TIP3    H159570   3.655   0.397  13.684 -0.2657  1.6614 -0.8308
12693TIP3    H259571   3.628   0.456  13.821 -0.2436 -0.5278  0.1534
12694TIP3   OH259572   1.584   3.320  15.210  0.3762  0.3721 -0.0974
12694TIP3    H159573   1.647   3.252  15.236  1.3755  1.4903  0.5460
12694TIP3    H259574   1.571   3.372  15.290 -1.6842 -0.0481 -0.1212
12695TIP3   OH259575   4.766   4.573   2.680  0.2838 -0.0417  0.5034
12695TIP3    H159576   4.814   4.618   2.610  0.1485 -1.5678 -0.6219
12695TIP3    H259577   4.684   4.621   2.687  0.1849 -0.0164 -0.6004
12696TIP3   OH259578   3.609   1.750  16.437 -0.2920 -0.0113 -0.2609
12696TIP3    H159579   3.515   1.731  16.435 -0.1384 -1.2522  1.9225
12696TIP3    H259580   3.615   1.841  16.408 -1.9988 -0.3570 -1.8626
12697TIP3   OH259581   4.923   1.830   3.046  0.0312 -0.3307 -0.3265
12697TIP3    H159582   4.870   1.856   2.971 -0.8528 -1.1040  0.0085
12697TIP3    H259583   4.859   1.800   3.111  0.7455  0.8070  0.9419
12698TIP3   OH259584   2.449   0.937   2.064  0.8661 -0.2610  0.3429
12698TIP3    H159585   2.458   1.032   2.075  0.6724  0.0082 -1.3924
12698TIP3    H259586   2.538   0.904   2.065  1.1005  0.2485 -1.0590
12699TIP3   OH259587   2.245   0.911  13.570 -0.7662  0.2251  0.5553
12699TIP3    H159588   2.152   0.932  13.563 -0.4433  1.1608 -2.7262
12699TIP3    H259589   2.267   0.932  13.661 -3.5384  0.8767  1.1819
12700TIP3   OH259590   3.909   0.029  13.271 -0.8348  0.0049 -0.0336
12700TIP3    H159591   3.937  -0.058  13.300  2.2390  0.9598  0.2246
12700TIP3    H259592   3.814   0.029  13.283 -0.7118 -2.6281  1.8332
12701TIP3   OH259593   2.334   4.673  16.315  0.4321  0.6464 -0.1490
12701TIP3    H159594   2.401   4.685  16.382  0.3316 -0.7204  0.2159
12701TIP3    H259595   2.270   4.742  16.332 -0.2410 -0.4234  1.9860
12702TIP3   OH259596   6.302   3.433   1.439  0.9873  0.3967 -0.0785
12702TIP3    H159597   6.347   3.497   1.384  1.0484  1.3880  1.1027
12702TIP3    H259598   6.253   3.378   1.377 -1.6573  3.5144 -0.9945
12703TIP3   OH259599   4.950   2.343   4.685  0.0296  0.1030  0.7218
12703TIP3    H159600   4.953   2.312   4.775 -4.0179 -1.6281  0.4856
12703TIP3    H259601   4.883   2.412   4.685  1.1808  1.2990 -0.7167
12704TIP3   OH259602   3.154   6.116  15.692 -0.4895 -0.0889  0.1530
12704TIP3    H159603   3.209   6.089  15.765 -0.6529 -0.4390  0.1471
12704TIP3    H259604   3.171   6.210  15.682  0.0284 -0.1734  0.2174
12705TIP3   OH259605   1.405   1.549   5.928  0.7715 -0.0723 -0.0595
12705TIP3    H159606   1.493   1.578   5.953  0.5865  0.3866  0.0574
12705TIP3    H259607   1.399   1.567   5.835  0.8350 -0.1918 -0.0871
12706TIP3   OH259608   0.431   4.195   3.359 -0.3114  0.7400  0.2302
12706TIP3    H159609   0.344   4.154   3.358 -1.2027  2.5238  0.4048
12706TIP3    H259610   0.480   4.145   3.424 -1.6271  0.4785  1.0670
12707TIP3   OH259611   3.913   5.787   5.472 -0.4837  0.6377  0.3987
12707TIP3    H159612   3.980   5.851   5.449  0.1181  0.5143  1.7186
12707TIP3    H259613   3.958   5.703   5.470 -0.6228  0.5344  1.1285
12708TIP3   OH259614   6.483   5.285  11.357 -0.5735  0.1990  0.0013
12708TIP3    H159615   6.428   5.359  11.332 -0.9258  0.3230  1.1182
12708TIP3    H259616   6.458   5.215  11.296 -0.2320  0.9700 -1.0630
12709TIP3   OH259617   2.217   0.356  16.270 -0.0610  0.0029 -0.0871
12709TIP3    H159618   2.252   0.427  16.324 -0.9196 -0.1356  0.6645
12709TIP3    H259619   2.215   0.280  16.328  0.9358 -0.6854 -0.9079
12710TIP3   OH259620   1.202   3.284   1.427 -0.5756  0.1467 -0.2046
12710TIP3    H159621   1.145   3.296   1.503  0.4177  1.0403  0.4312
12710TIP3    H259622   1.279   3.336   1.447  0.6520 -1.3506 -0.8668
12711TIP3   OH259623   4.846   3.644  11.058 -0.4124 -0.1992  0.1736
12711TIP3    H159624   4.850   3.552  11.083 -3.5933 -0.0226  1.8151
12711TIP3    H259625   4.754   3.659  11.036  0.1922  2.3867 -0.9638
12712TIP3   OH259626   2.483   5.142  10.738  0.5217 -0.5940  0.4800
12712TIP3    H159627   2.565   5.095  10.720  0.2982 -1.2886  1.2228
12712TIP3    H259628   2.501   5.232  10.711  1.6999 -0.6335  1.0526
12713TIP3   OH259629   6.828   6.395  13.673  0.2097 -0.3064 -0.1918
12713TIP3    H159630   6.786   6.433  13.596 -0.1737 -2.1743 -0.9672
12713TIP3    H259631   6.914   6.367  13.642  0.5638  0.0881  0.4106
12714TIP3   OH259632   4.065   6.544  12.000  0.5354  0.0430  0.1125
12714TIP3    H159633   4.016   6.465  12.019  0.8380  0.0080  0.8019
12714TIP3    H259634   4.000   6.614  12.000  0.4821  0.0043  1.0710
12715TIP3   OH259635   1.148   3.052  16.667 -0.0796  0.2793 -0.9060
12715TIP3    H159636   1.226   3.005  16.697  1.2229  1.0943 -2.8021
12715TIP3    H259637   1.110   2.996  16.600  0.1116  0.8052 -1.4727
12716TIP3   OH259638   2.471   1.479   5.186 -0.3237 -0.2718  0.3512
12716TIP3    H159639   2.515   1.395   5.190  1.3670  0.6033  1.2908
12716TIP3    H259640   2.516   1.533   5.252 -3.7582  0.2626  2.5392
12717TIP3   OH259641   2.650   1.292   3.573  0.4521 -0.2220  1.0672
12717TIP3    H159642   2.693   1.373   3.600  2.3525 -1.2406  1.3278
12717TIP3    H259643   2.644   1.240   3.653  0.6260 -0.9065  0.6499
12718TIP3   OH259644   3.718   1.209   6.310 -0.6281 -0.2802 -0.0546
12718TIP3    H159645   3.685   1.156   6.383 -0.2707  1.6159  1.5594
12718TIP3    H259646   3.806   1.176   6.294 -0.7444 -0.7771  0.3028
12719TIP3   OH259647   1.741   0.214  16.776 -0.3132 -0.1476  0.2210
12719TIP3    H159648   1.738   0.156  16.699 -0.4949  0.1352  0.0128
12719TIP3    H259649   1.812   0.275  16.756 -1.0978  0.6325 -0.2331
12720TIP3   OH259650   5.520   3.172   5.407  0.5141  0.0913 -0.4212
12720TIP3    H159651   5.476   3.106   5.353  1.6539  0.3520 -1.7576
12720TIP3    H259652   5.576   3.121   5.466 -1.1545 -0.2193  0.9700
12721TIP3   OH259653   1.190   6.669  12.097 -0.3695 -0.0821  0.1781
12721TIP3    H159654   1.141   6.605  12.045 -1.1659 -0.5027  1.4300
12721TIP3    H259655   1.153   6.753  12.072 -0.7212 -0.2773  0.0391
12722TIP3   OH259656   2.965   6.374   4.562 -0.0953 -0.3000  1.1460
12722TIP3    H159657   2.924   6.309   4.618 -1.0675 -0.9702 -0.2684
12722TIP3    H259658   2.901   6.445   4.557  0.5112  0.3105  1.8434
12723TIP3   OH259659   4.803   0.949  11.062  0.6231 -0.4312 -0.0491
12723TIP3    H159660   4.861   1.024  11.075  0.3139 -0.0830 -0.6360
12723TIP3    H259661   4.716   0.980  11.087  0.8078 -1.2328  1.7466
12724TIP3   OH259662   4.989   1.748  14.808  0.1803  0.0280  0.3397
12724TIP3    H159663   5.059   1.758  14.872 -0.1936  0.1246  0.7321
12724TIP3    H259664   4.986   1.654  14.791  1.8558  0.2045 -1.3126
12725TIP3   OH259665   0.952   3.137   2.300  0.1921  0.4928 -0.1575
12725TIP3    H159666   1.006   3.203   2.344 -0.4045  0.6040  0.4372
12725TIP3    H259667   0.866   3.179   2.291 -0.1965 -0.1927  0.2370
12726TIP3   OH259668   0.903   6.631  13.563 -0.2466 -0.1301  0.7434
12726TIP3    H159669   0.920   6.543  13.595  0.6396  0.2948  1.5278
12726TIP3    H259670   0.983   6.655  13.515  0.3131  0.9053  2.1218
12727TIP3   OH259671   5.080   6.541  16.381  0.1570 -0.4514  0.6840
12727TIP3    H159672   4.999   6.544  16.433 -0.0792 -0.6076  0.3287
12727TIP3    H259673   5.073   6.460  16.331  1.2104 -1.2231  1.7417
12728TIP3   OH259674   2.184   4.875   0.541 -0.2357 -0.5070  0.0097
12728TIP3    H159675   2.167   4.787   0.574 -0.1521  0.2943  2.3625
12728TIP3    H259676   2.279   4.883   0.543 -0.2934  0.0222  0.9250
12729TIP3   OH259677   2.198   1.052   4.642 -0.9471  0.0523  0.2289
12729TIP3    H159678   2.253   1.119   4.685  0.3373 -1.1498  0.5524
12729TIP3    H259679   2.250   1.024   4.567 -1.2875 -0.8713  0.3327
12730TIP3   OH259680   2.265   0.872   1.594  0.3820  0.2252  0.1469
12730TIP3    H159681   2.265   0.914   1.679  1.1286  0.0759  0.2230
12730TIP3    H259682   2.282   0.779   1.613  1.2967  0.3073 -0.2112
12731TIP3   OH259683   5.685   3.056   4.752 -0.0467 -0.6670 -0.4748
12731TIP3    H159684   5.773   3.093   4.745 -0.0980 -0.3441  0.5233
12731TIP3    H259685   5.696   2.979   4.807 -0.5649 -0.0137  0.5565
12732TIP3   OH259686   2.589   6.277  16.740  0.0402  0.3011  0.0069
12732TIP3    H159687   2.649   6.352  16.742  2.0041 -1.1784  2.1838
12732TIP3    H259688   2.552   6.275  16.829 -1.9061  0.1187 -0.7742
12733TIP3   OH259689   3.118   0.579  12.960  0.2902  0.0151  0.0938
12733TIP3    H159690   3.051   0.605  13.023 -0.0018  0.0436 -0.2292
12733TIP3    H259691   3.168   0.659  12.944  0.4096 -0.0071  0.3342
12734TIP3   OH259692   1.190   2.069   3.777  0.8964  0.9908 -0.0474
12734TIP3    H159693   1.257   2.086   3.712 -0.4862 -0.1473 -1.8526
12734TIP3    H259694   1.157   1.981   3.757 -1.0496  1.4569  0.8276
12735TIP3   OH259695   1.099   4.575  12.534  0.4540 -0.2259 -0.0687
12735TIP3    H159696   1.037   4.537  12.472 -2.4445  1.3194  1.7136
12735TIP3    H259697   1.112   4.507  12.600 -1.6034  0.3449  1.0019
12736TIP3   OH259698   3.283   0.646   4.160 -0.1717 -0.4667 -0.0404
12736TIP3    H159699   3.378   0.632   4.158  0.0322  0.5631  1.2691
12736TIP3    H259700   3.247   0.558   4.176  0.7280 -0.5109  2.0434
12737TIP3   OH259701   6.539   6.388  14.107 -0.7168 -0.4967 -0.8497
12737TIP3    H159702   6.593   6.465  14.089 -0.1243 -0.2919  1.5119
12737TIP3    H259703   6.466   6.422  14.159  0.4575 -1.7196  1.7187
12738TIP3   OH259704   0.491   1.967   1.921  0.1902 -0.6837  0.3359
12738TIP3    H159705   0.439   1.916   1.984 -0.9908  1.7541  1.4660
12738TIP3    H259706   0.536   1.901   1.869  0.0484 -2.8536  2.7561
12739TIP3   OH259707   5.996   2.349  16.925  0.0491 -0.1921  0.2005
12739TIP3    H159708   6.067   2.401  16.962 -0.1247  0.7440 -0.7385
12739TIP3    H259709   5.930   2.413  16.898 -1.2776 -1.0583  1.2818
12740TIP3   OH259710   3.956   0.225   0.417  0.1217  0.1546  0.1865
12740TIP3    H159711   3.879   0.251   0.467  0.2084 -1.2433  1.1183
12740TIP3    H259712   3.957   0.129   0.422  2.0754  0.1447  0.4872
12741TIP3   OH259713   2.311   5.926   5.727 -0.3113 -0.2041 -0.0070
12741TIP3    H159714   2.222   5.963   5.734 -0.7219 -1.3824  1.5547
12741TIP3    H259715   2.356   5.958   5.805  0.9515  1.0632 -1.1934
12742TIP3   OH259716   2.642   3.908  11.078  0.1234  0.7404  0.4766
12742TIP3    H159717   2.627   3.924  11.171  2.6762  1.3440  0.8540
12742TIP3    H259718   2.647   3.812  11.071  0.6268  0.7149  1.1051
12743TIP3   OH259719   4.045   4.570   2.762  0.6531 -0.0543  0.6859
12743TIP3    H159720   4.090   4.509   2.704  1.2165  0.0186  1.0277
12743TIP3    H259721   4.097   4.651   2.757  1.2074 -0.3023  1.9005
12744TIP3   OH259722   5.237   3.665   0.283 -0.2971 -0.0605 -0.0464
12744TIP3    H159723   5.220   3.599   0.215  1.2901  1.0982 -1.6529
12744TIP3    H259724   5.276   3.616   0.355 -0.1912 -1.0386 -0.7563
12745TIP3   OH259725   6.419   3.401   4.145 -0.1549 -0.4359 -0.2930
12745TIP3    H159726   6.444   3.487   4.113  0.5741 -1.1381 -1.6955
12745TIP3    H259727   6.371   3.418   4.226 -0.0851  1.2791 -0.5879
12746TIP3   OH259728   3.072   0.099   2.085  0.2865  0.6677  0.0097
12746TIP3    H159729   3.118   0.163   2.140 -0.6777  1.1448  0.2935
12746TIP3    H259730   3.082   0.016   2.132  0.7093  0.8016  0.1560
12747TIP3   OH259731   5.541   3.692  15.524 -0.1930  0.5693  0.8627
12747TIP3    H159732   5.597   3.638  15.468  0.2174  0.1867  1.6170
12747TIP3    H259733   5.561   3.782  15.499  2.5795  0.5911  2.6902
12748TIP3   OH259734   0.097   2.724  16.389 -0.1135 -0.0888  0.1861
12748TIP3    H159735   0.008   2.692  16.373  0.4365 -0.6011 -2.1480
12748TIP3    H259736   0.132   2.665  16.455 -1.6855  0.5394  1.6762
12749TIP3   OH259737   4.558   1.830  13.096 -0.4434  0.2877 -0.2567
12749TIP3    H159738   4.534   1.747  13.056  0.3843  0.6935 -1.6874
12749TIP3    H259739   4.611   1.807  13.172 -0.4813 -0.4867 -0.4625
12750TIP3   OH259740   3.632   6.089  10.701 -0.1458 -0.3486  0.4437
12750TIP3    H159741   3.719   6.109  10.734  0.0654 -1.3481  0.4923
12750TIP3    H259742   3.603   6.171  10.660  1.1777 -0.2669 -0.3855
12751TIP3   OH259743   4.511   3.713   2.639 -0.5095  0.4213  0.6730
12751TIP3    H159744   4.582   3.752   2.689  0.9537  1.2865 -1.9034
12751TIP3    H259745   4.454   3.787   2.618 -1.0616  0.0808  0.9431
12752TIP3   OH259746   0.415   1.020  16.766 -0.5558 -0.0731  0.3498
12752TIP3    H159747   0.452   1.048  16.849  0.4214  1.1313 -0.4469
12752TIP3    H259748   0.432   0.926  16.761  2.3618  0.3856  0.0938
12753TIP3   OH259749   2.026   2.637   3.386 -0.6267  0.4515  0.0364
12753TIP3    H159750   2.018   2.589   3.468  0.0960  2.0048  1.0639
12753TIP3    H259751   2.088   2.585   3.334 -0.9517 -0.4503  0.5246
12754TIP3   OH259752   6.526   4.242  16.039 -0.5472  0.3043 -0.4644
12754TIP3    H159753   6.543   4.308  16.107  0.1955 -2.8947  2.7502
12754TIP3    H259754   6.606   4.189  16.037 -2.0185 -2.0193 -0.9516
12755TIP3   OH259755   2.846   3.918   1.595 -0.2085 -0.0457 -0.2203
12755TIP3    H159756   2.861   3.958   1.680 -1.1343  0.4948 -0.2938
12755TIP3    H259757   2.759   3.950   1.568 -0.1544 -0.6124 -1.1300
12756TIP3   OH259758   5.402   6.285  11.705 -0.0048 -0.5873 -0.4320
12756TIP3    H159759   5.456   6.266  11.628  0.4524  0.9569 -0.5204
12756TIP3    H259760   5.313   6.287  11.672  0.2403  0.6661 -1.0702
12757TIP3   OH259761   2.399   1.003   3.317 -0.8701 -0.0884  0.5331
12757TIP3    H159762   2.382   0.959   3.234  1.1517  1.0389 -0.5477
12757TIP3    H259763   2.353   1.087   3.310  0.3601  0.5678 -0.0485
12758TIP3   OH259764   6.201   3.733   2.582 -0.1771 -0.1681  0.1085
12758TIP3    H159765   6.207   3.639   2.596 -0.0008 -0.1263  0.3099
12758TIP3    H259766   6.108   3.752   2.589 -0.1809 -0.2786  0.3838
12759TIP3   OH259767   4.901   0.180  13.639  0.1906  0.0238 -0.2073
12759TIP3    H159768   4.990   0.189  13.605  0.2802 -0.0119  0.0153
12759TIP3    H259769   4.848   0.158  13.562  0.7701 -2.4470  0.0383
12760TIP3   OH259770   6.800   4.248   5.384 -0.2027  0.6535 -0.0772
12760TIP3    H159771   6.837   4.193   5.453  1.7201  1.2517 -0.5693
12760TIP3    H259772   6.835   4.212   5.302  1.5472  2.8196 -0.3899
12761TIP3   OH259773   4.573   2.663  15.929  0.2523  1.0502 -0.7499
12761TIP3    H159774   4.636   2.610  15.978 -2.0703  0.4334  1.8452
12761TIP3    H259775   4.568   2.745  15.978 -0.2145  1.5083 -1.5409
12762TIP3   OH259776   5.447   5.905   0.136  0.6238 -0.6570 -0.4710
12762TIP3    H159777   5.377   5.935   0.193  0.3929 -0.7597 -0.7001
12762TIP3    H259778   5.417   5.820   0.103  0.5417 -0.3844 -1.1171
12763TIP3   OH259779   3.144   6.463  16.110 -0.4554  0.1958 -0.1892
12763TIP3    H159780   3.150   6.547  16.064  0.9336 -2.1263 -4.8558
12763TIP3    H259781   3.058   6.429  16.087  0.1012 -0.8520 -0.7642
12764TIP3   OH259782   0.238   5.462  11.231 -0.0540 -0.7498 -0.4737
12764TIP3    H159783   0.192   5.543  11.209  0.6651 -0.3307 -0.4644
12764TIP3    H259784   0.329   5.488  11.242  0.1829 -1.5572 -0.4347
12765TIP3   OH259785   2.379   6.767  15.135 -0.6351 -0.2891 -0.8305
12765TIP3    H159786   2.458   6.771  15.081 -0.0972 -0.4906 -0.0733
12765TIP3    H259787   2.328   6.843  15.108  1.0669  1.4482  0.5703
12766TIP3   OH259788   0.299   5.737  13.442  0.2745 -0.2222  0.0458
12766TIP3    H159789   0.228   5.700  13.389  0.8497 -2.8782  0.9756
12766TIP3    H259790   0.379   5.710  13.396  0.7274  1.3367 -0.1130
12767TIP3   OH259791   0.275   4.698  15.663  0.1724  0.0475  0.2698
12767TIP3    H159792   0.330   4.644  15.721 -0.6273  0.6367  1.6130
12767TIP3    H259793   0.328   4.775  15.645  0.5596 -0.2937 -0.0745
12768TIP3   OH259794   6.743   2.069   5.255  0.3128  0.0634 -0.0792
12768TIP3    H159795   6.663   2.075   5.307  0.1718  1.7757 -0.4019
12768TIP3    H259796   6.722   2.006   5.186 -1.0516  1.0101 -0.5825
12769TIP3   OH259797   6.743   2.923   5.172  0.4744 -0.6074 -0.2272
12769TIP3    H159798   6.697   2.863   5.114 -0.1912  1.0345 -1.4762
12769TIP3    H259799   6.813   2.961   5.118  1.3974 -0.8318  0.7654
12770TIP3   OH259800   0.025   4.133   0.605  0.2214 -0.4789 -0.0010
12770TIP3    H159801   0.082   4.079   0.660  0.0821 -1.9427 -1.2446
12770TIP3    H259802   0.028   4.091   0.519  0.6171  1.8586 -1.2046
12771TIP3   OH259803   5.685   2.144   5.310 -0.7861 -0.3070 -0.4949
12771TIP3    H159804   5.703   2.065   5.360 -0.4069 -0.0045 -0.1403
12771TIP3    H259805   5.770   2.167   5.271 -0.8183  0.0991 -0.3338
12772TIP3   OH259806   5.685   6.447  13.922  0.7592  0.2537  0.2209
12772TIP3    H159807   5.631   6.513  13.877 -0.1003 -0.7391 -0.2460
12772TIP3    H259808   5.752   6.424  13.857  0.6159  0.1415  0.1105
12773TIP3   OH259809   4.068   5.588   5.357  1.2250  0.0936  0.5454
12773TIP3    H159810   4.095   5.662   5.302  2.9265 -1.1564 -0.4296
12773TIP3    H259811   4.075   5.512   5.299 -0.2342 -0.8765  1.5877
12774TIP3   OH259812   1.739   0.894   4.311  0.0205 -0.3096 -0.6407
12774TIP3    H159813   1.749   0.921   4.220  0.5093 -0.9110 -0.7709
12774TIP3    H259814   1.789   0.958   4.361  0.3636 -0.4052 -0.8599
12775TIP3   OH259815   4.835   2.874   5.886 -0.0489  0.2551 -0.0737
12775TIP3    H159816   4.784   2.933   5.942  0.3649  0.5149  0.0401
12775TIP3    H259817   4.900   2.837   5.945  1.5959  1.9391 -0.7231
12776TIP3   OH259818   2.550   1.054   1.467 -0.3455 -0.0200 -0.1503
12776TIP3    H159819   2.546   1.016   1.555 -1.4253 -0.2233 -0.2698
12776TIP3    H259820   2.471   1.109   1.462 -0.3282 -0.0680 -1.0153
12777TIP3   OH259821   0.545   6.005  13.531  0.6609 -1.0402 -0.3583
12777TIP3    H159822   0.582   6.089  13.559 -3.9149  1.2870 -0.3393
12777TIP3    H259823   0.541   5.953  13.610  0.7061 -0.0232  0.3382
12778TIP3   OH259824   5.316   1.248   5.218  0.6772  0.3632  0.2207
12778TIP3    H159825   5.375   1.180   5.253 -0.5612  0.2605  2.3006
12778TIP3    H259826   5.322   1.318   5.283 -1.8777  0.1009  0.8276
12779TIP3   OH259827   1.418   1.775  11.373 -0.1095 -0.8485  0.1660
12779TIP3    H159828   1.424   1.813  11.285 -5.4135 -1.9024 -1.0122
12779TIP3    H259829   1.435   1.682  11.359 -0.6225 -0.9618  0.2656
12780TIP3   OH259830   3.912   1.777  15.928 -0.4566  0.0078  0.3167
12780TIP3    H159831   3.973   1.739  15.865  1.5779  3.0535  0.2109
12780TIP3    H259832   3.919   1.722  16.006  1.0908 -0.7483 -0.3216
12781TIP3   OH259833   0.063   5.378  12.144 -0.0241  0.0945 -0.4005
12781TIP3    H159834  -0.006   5.443  12.128 -0.4371 -0.3869 -0.5665
12781TIP3    H259835   0.133   5.429  12.184 -0.5815  0.5427  0.0351
12782TIP3   OH259836   3.753   5.321   0.252  0.2908 -0.1098  0.0524
12782TIP3    H159837   3.694   5.274   0.193 -0.1344  0.2060  0.2274
12782TIP3    H259838   3.795   5.251   0.303  0.1547 -0.3433 -0.1502
12783TIP3   OH259839   0.752   4.046   4.099  0.0352 -0.0731  0.0255
12783TIP3    H159840   0.707   3.962   4.085  0.5092 -0.1380 -1.2712
12783TIP3    H259841   0.844   4.021   4.114  0.2448  0.2238 -0.7362
12784TIP3   OH259842   1.154   3.596   2.249  0.6625 -0.1046 -0.3078
12784TIP3    H159843   1.180   3.677   2.293  1.8056 -1.2594  1.2840
12784TIP3    H259844   1.112   3.624   2.168  0.9521  2.0625  0.2423
12785TIP3   OH259845   3.089   5.147   5.091  0.4591  0.3523 -0.0108
12785TIP3    H159846   3.143   5.216   5.052  0.6129  0.6196  0.6686
12785TIP3    H259847   3.002   5.185   5.097 -0.5684 -1.0121 -3.7135
12786TIP3   OH259848   0.144   0.066  13.937  0.3158 -0.4272 -0.0205
12786TIP3    H159849   0.111  -0.024  13.934  0.7674 -0.6282  0.7420
12786TIP3    H259850   0.089   0.109  14.003  0.9207 -0.4926  0.5313
12787TIP3   OH259851   5.519   3.474  13.422 -0.5378 -0.7572  0.0218
12787TIP3    H159852   5.563   3.496  13.340 -1.1598 -0.7996 -0.3220
12787TIP3    H259853   5.517   3.557  13.470  0.2259 -0.8256  0.1947
12788TIP3   OH259854   1.708   3.953   3.843 -0.3036  0.0865  0.2577
12788TIP3    H159855   1.760   3.895   3.788  0.5595  0.0650  1.0869
12788TIP3    H259856   1.691   3.903   3.923 -1.0731  0.3233  0.2531
12789TIP3   OH259857   6.677   6.702  12.700 -0.9983 -0.1015  0.0073
12789TIP3    H159858   6.700   6.609  12.703 -1.3101 -0.1579  0.8088
12789TIP3    H259859   6.603   6.706  12.640 -1.8438 -0.5709  0.9765
12790TIP3   OH259860   6.389   0.348   2.200  0.5730 -0.4634 -0.3644
12790TIP3    H159861   6.455   0.320   2.137  0.9413  0.1090 -0.2336
12790TIP3    H259862   6.424   0.428   2.239  0.6151 -1.1121  0.9920
12791TIP3   OH259863   1.155   3.800   4.761  0.3290  0.0442 -0.1799
12791TIP3    H159864   1.168   3.880   4.710  1.5681  0.1917  0.3185
12791TIP3    H259865   1.066   3.807   4.794  0.5160  1.3912  0.1104
12792TIP3   OH259866   0.386   5.349   0.183  0.0913  0.1999 -0.1574
12792TIP3    H159867   0.383   5.394   0.098  0.1021 -1.9161 -1.3490
12792TIP3    H259868   0.321   5.279   0.176 -0.3749  0.3665  1.8621
12793TIP3   OH259869   0.735   2.019  16.953  0.5580 -0.3330 -0.3962
12793TIP3    H159870   0.708   2.071  17.028 -0.5850  0.2545 -1.1985
12793TIP3    H259871   0.658   2.013  16.897  0.6693 -2.7601 -0.4337
12794TIP3   OH259872   0.242   2.436   5.382  0.5854 -0.3875  0.5296
12794TIP3    H159873   0.250   2.345   5.409  0.0691 -0.2768  1.0860
12794TIP3    H259874   0.167   2.469   5.432  0.6973  0.3068  0.2483
12795TIP3   OH259875   1.984   0.757   5.153  0.3358  0.3514  0.3695
12795TIP3    H159876   2.028   0.839   5.129 -0.0794  0.7171  0.8289
12795TIP3    H259877   1.961   0.768   5.246  0.8411 -0.5436  0.6178
12796TIP3   OH259878   1.066   2.008   1.360  0.3503 -0.0528 -0.5738
12796TIP3    H159879   1.060   2.054   1.277 -0.5321 -0.8227 -0.9498
12796TIP3    H259880   1.148   1.958   1.355  0.5777  0.3375 -0.7470
12797TIP3   OH259881   6.630   5.897   4.888  0.3293 -0.1853  0.1249
12797TIP3    H159882   6.637   5.801   4.893  0.0907 -0.1985  0.2043
12797TIP3    H259883   6.538   5.916   4.908  0.3161  0.0448 -0.1456
12798TIP3   OH259884   4.186   1.999   1.706  1.0554 -0.2976  0.6565
12798TIP3    H159885   4.122   2.051   1.658  1.9672 -0.3868 -0.7062
12798TIP3    H259886   4.214   2.056   1.778  0.1459  0.0872  0.7153
12799TIP3   OH259887   0.184   6.056  15.939 -0.2063  0.0098  0.0604
12799TIP3    H159888   0.138   6.104  16.008  2.3540  0.8836  1.2872
12799TIP3    H259889   0.255   6.010  15.984 -0.3467 -1.9765 -1.6142
12800TIP3   OH259890   4.074   5.998   3.986 -0.3446 -0.4906 -0.7863
12800TIP3    H159891   4.096   6.065   3.922 -0.7066  1.1634  0.7289
12800TIP3    H259892   3.990   6.027   4.023 -0.0610 -1.2777  0.5552
12801TIP3   OH259893   4.891   6.270  16.623 -0.3876  0.5739  0.1729
12801TIP3    H159894   4.980   6.296  16.646 -0.2670 -0.5002  0.9872
12801TIP3    H259895   4.889   6.175  16.636 -0.9300  0.1709 -2.2860
12802TIP3   OH259896   2.745   4.199  14.781  0.8188  0.3357 -0.1235
12802TIP3    H159897   2.717   4.252  14.706  1.1274 -0.4424 -0.8023
12802TIP3    H259898   2.766   4.113  14.744  0.6426 -0.1741  0.9098
12803TIP3   OH259899   6.267   6.199  10.614  0.2882  0.9125  0.5419
12803TIP3    H159900   6.342   6.222  10.669 -0.3633 -0.2411  1.9863
12803TIP3    H259901   6.298   6.126  10.560  0.1159  0.1789  1.4140
12804TIP3   OH259902   1.023   5.802  11.594  0.3869 -0.3988  0.0075
12804TIP3    H159903   1.099   5.856  11.615  0.4189 -0.2308 -0.5335
12804TIP3    H259904   1.009   5.815  11.501 -2.7934  2.8295  0.7085
12805TIP3   OH259905   5.140   4.726  10.738 -0.1909  0.7270 -0.2687
12805TIP3    H159906   5.067   4.726  10.677 -0.2767 -1.1321 -0.2332
12805TIP3    H259907   5.109   4.776  10.814 -1.7878 -0.7362  0.1128
12806TIP3   OH259908   0.870   2.347   5.979 -0.3795 -0.1068 -0.5575
12806TIP3    H159909   0.784   2.352   5.936 -0.0504 -0.4611 -1.2703
12806TIP3    H259910   0.849   2.347   6.073 -1.0409  2.1690 -0.6329
12807TIP3   OH259911   4.187   1.518   2.463  0.3116  0.3187  0.0020
12807TIP3    H159912   4.164   1.547   2.551 -1.7806 -0.1345 -0.3274
12807TIP3    H259913   4.252   1.581   2.432  0.5041  0.9245  1.5791
12808TIP3   OH259914   2.525   4.358   2.995 -0.3278 -0.3198  0.0240
12808TIP3    H159915   2.540   4.269   2.962 -0.7868  0.1458 -1.5565
12808TIP3    H259916   2.442   4.353   3.042  0.0378 -0.8823  0.6336
12809TIP3   OH259917   1.120   3.895   3.009  0.0051 -0.1563  0.4185
12809TIP3    H159918   1.209   3.923   2.988 -0.1894  1.0458  1.0991
12809TIP3    H259919   1.128   3.851   3.094 -0.0862  0.1857  0.6055
12810TIP3   OH259920   3.494   4.203   0.326 -0.1031  0.0046  0.0497
12810TIP3    H159921   3.528   4.292   0.335  0.0370 -0.0860  0.4289
12810TIP3    H259922   3.460   4.181   0.412 -1.2356  0.1360 -0.3499
12811TIP3   OH259923   1.429   4.104  11.634  0.3556 -0.3958  0.3635
12811TIP3    H159924   1.395   4.149  11.557  1.4661 -0.1933 -0.0246
12811TIP3    H259925   1.361   4.116  11.701  0.3603  1.3467  0.0906
12812TIP3   OH259926   3.609   6.461   0.447  0.6524  0.0547  0.2165
12812TIP3    H159927   3.532   6.454   0.390  0.6090  0.6798  0.1960
12812TIP3    H259928   3.663   6.529   0.406  1.3417 -0.5394  0.0926
12813TIP3   OH259929   6.106   4.546   3.473 -0.7172 -0.8946  0.1487
12813TIP3    H159930   6.055   4.583   3.545 -0.8823  0.8077 -0.7959
12813TIP3    H259931   6.056   4.468   3.446 -0.6250 -1.5956  1.8584
12814TIP3   OH259932   2.637   4.969   2.358 -0.1032 -0.1433 -0.2824
12814TIP3    H159933   2.634   4.873   2.355  0.2987 -0.1777  0.2120
12814TIP3    H259934   2.663   4.995   2.270 -0.9154 -0.4537 -0.6233
12815TIP3   OH259935   3.154   4.395  14.028 -0.3043 -0.0332  0.3900
12815TIP3    H159936   3.242   4.414  13.995 -0.4142  0.9261  0.6261
12815TIP3    H259937   3.162   4.307  14.065  0.5696  0.0487  0.4378
12816TIP3   OH259938   3.739   2.921  12.878 -0.4650  0.0613 -0.0895
12816TIP3    H159939   3.760   2.846  12.821 -0.2116  1.1349 -1.4823
12816TIP3    H259940   3.644   2.927  12.875 -0.4666 -0.0202 -0.2522
12817TIP3   OH259941   6.027   2.924   0.681 -0.2334  0.5358 -0.0717
12817TIP3    H159942   6.090   2.980   0.726  1.6603 -1.6982  0.2636
12817TIP3    H259943   5.970   2.891   0.750  1.5151 -1.4328  0.5316
12818TIP3   OH259944   0.493   1.334  13.642  0.5539  0.6026  0.2471
12818TIP3    H159945   0.461   1.424  13.641  0.0448  0.4994  2.3240
12818TIP3    H259946   0.588   1.341  13.643  0.6012  1.3445  3.5505
12819TIP3   OH259947   1.993   4.722  12.737 -0.0901  0.1780  0.2644
12819TIP3    H159948   2.082   4.749  12.761 -0.2033  0.3814  0.4613
12819TIP3    H259949   2.006   4.659  12.666  0.1748  0.8427 -0.2871
12820TIP3   OH259950   2.323   6.286  15.085 -0.0686 -0.3387  0.6963
12820TIP3    H159951   2.248   6.227  15.072 -1.3483  1.0030  1.6199
12820TIP3    H259952   2.338   6.286  15.179  0.3073  0.3149  0.6445
12821TIP3   OH259953   6.022   1.574   2.344 -0.0816 -0.3211 -0.3137
12821TIP3    H159954   6.082   1.540   2.278 -0.3292 -0.1591 -0.6210
12821TIP3    H259955   5.955   1.620   2.295 -1.1446 -1.5369 -0.0600
12822TIP3   OH259956   6.655   2.100   2.712  0.1921 -0.4512  0.0890
12822TIP3    H159957   6.666   2.007   2.733 -1.7082 -1.1509 -1.7292
12822TIP3    H259958   6.671   2.145   2.795  3.5211 -2.1311  0.5207
12823TIP3   OH259959   0.032   0.681   6.193 -0.2690 -0.0761 -0.0833
12823TIP3    H159960   0.059   0.743   6.262  0.1514 -2.0180  1.6130
12823TIP3    H259961   0.114   0.659   6.149 -0.3221  0.0945 -0.2673
12824TIP3   OH259962   3.389   4.197  16.586  0.0892 -0.2148  0.2281
12824TIP3    H159963   3.310   4.150  16.561 -1.0173  1.2938  0.7618
12824TIP3    H259964   3.372   4.227  16.675  1.8749 -1.0962  0.9304
12825TIP3   OH259965   1.767   4.678  13.025  0.0611 -0.0395  0.3330
12825TIP3    H159966   1.678   4.676  13.059  0.1326 -2.2586  0.5372
12825TIP3    H259967   1.807   4.755  13.066 -1.6456  0.8069  0.4779
12826TIP3   OH259968   3.615   4.278   1.980  0.0767  0.2117  0.2882
12826TIP3    H159969   3.543   4.338   1.998 -0.0043  0.3117 -0.3405
12826TIP3    H259970   3.694   4.325   2.007 -0.0632  0.2481  0.6295
12827TIP3   OH259971   4.481   0.581  14.195 -0.2418 -0.0679 -0.5038
12827TIP3    H159972   4.577   0.579  14.203 -0.1672  0.4451 -1.1662
12827TIP3    H259973   4.451   0.511  14.253  0.5822 -0.8685 -1.0111
12828TIP3   OH259974   6.106   5.170   4.780  0.7043  0.1632 -0.0439
12828TIP3    H159975   6.090   5.076   4.769  1.4874 -0.0376  0.4601
12828TIP3    H259976   6.121   5.203   4.691 -0.6564  0.0272 -0.3413
12829TIP3   OH259977   2.721   3.641  12.235 -0.1732 -0.0194  0.0962
12829TIP3    H159978   2.744   3.714  12.293 -1.2580  0.5684 -0.1913
12829TIP3    H259979   2.627   3.631  12.244 -0.2040 -0.6435 -0.7372
12830TIP3   OH259980   3.921   5.525  15.245 -0.7003 -0.0415 -0.2929
12830TIP3    H159981   3.966   5.452  15.290  0.3743  0.7544 -0.0222
12830TIP3    H259982   3.976   5.542  15.169 -0.9052  0.5333 -0.3107
12831TIP3   OH259983   1.662   6.762   2.404 -0.1842  0.3863  0.2592
12831TIP3    H159984   1.601   6.795   2.470 -0.7021  0.3952 -0.2246
12831TIP3    H259985   1.668   6.668   2.423  1.7857  0.7850  2.0450
12832TIP3   OH259986   6.814   6.133   1.388  0.5421  0.0081  0.3462
12832TIP3    H159987   6.742   6.122   1.326 -0.2382  1.8711  0.8486
12832TIP3    H259988   6.892   6.137   1.333  0.0339  0.0698 -0.3912
12833TIP3   OH259989   1.478   6.196   5.440  0.2111 -0.2774 -0.1540
12833TIP3    H159990   1.405   6.157   5.488 -1.0494  0.7214 -1.2119
12833TIP3    H259991   1.551   6.135   5.455 -0.6740 -1.0324  1.3425
12834TIP3   OH259992   3.614   1.601  11.391 -0.2216 -0.3222  0.0674
12834TIP3    H159993   3.573   1.543  11.326 -1.8601  1.5434 -0.6857
12834TIP3    H259994   3.707   1.582  11.384 -0.7152 -3.2571  0.3156
12835TIP3   OH259995   5.844   2.601   6.219 -0.3627  0.0172 -0.3555
12835TIP3    H159996   5.890   2.550   6.153 -0.9477 -0.2105 -0.6006
12835TIP3    H259997   5.784   2.539   6.260  0.2226  0.0809  0.6237
12836TIP3   OH259998   1.267   1.089  12.781 -0.5817  0.4922  0.4024
12836TIP3    H159999   1.350   1.121  12.816 -0.5670  0.3081  0.5345
12836TIP3    H260000   1.252   1.006  12.825 -0.6457  0.3378  0.0969
12837TIP3   OH260001   4.402   4.554  16.885 -0.4885 -0.3557  0.3047
12837TIP3    H160002   4.434   4.516  16.804 -0.8068 -1.1556  0.5417
12837TIP3    H260003   4.479   4.562  16.941 -0.0067  1.5145 -0.5485
12838TIP3   OH260004   1.363   6.488   2.309  0.2076  0.0997 -0.3830
12838TIP3    H160005   1.358   6.499   2.403 -0.8932 -2.0033 -0.1337
12838TIP3    H260006   1.294   6.544   2.274  0.8590  1.1698 -0.0051
12839TIP3   OH260007   5.035   0.960   4.735 -0.0319  0.3881  0.3713
12839TIP3    H160008   4.993   0.988   4.816 -1.5625  0.8766 -0.5523
12839TIP3    H260009   5.098   1.029   4.715 -0.0415  0.5357  0.8518
12840TIP3   OH260010   3.208   3.797   2.141  0.2088 -0.1921 -0.1737
12840TIP3    H160011   3.123   3.776   2.101  0.8461  1.2181 -2.4653
12840TIP3    H260012   3.200   3.889   2.165  0.4592 -0.5664  1.4361
12841TIP3   OH260013   6.364   1.693  16.401  0.0591 -0.3837 -0.3152
12841TIP3    H160014   6.309   1.677  16.324 -0.2018 -1.6765  0.1164
12841TIP3    H260015   6.326   1.637  16.469  0.8548  0.0380  0.4881
12842TIP3   OH260016   0.560   1.928  16.181  0.1991  0.3734 -0.2938
12842TIP3    H160017   0.566   1.850  16.125 -0.5721  0.7064 -0.8584
12842TIP3    H260018   0.618   1.909  16.255 -0.0202 -0.7620 -0.3908
12843TIP3   OH260019   0.521   4.744  11.241 -0.2708  0.3726 -0.2900
12843TIP3    H160020   0.529   4.744  11.336  0.7308  0.0034 -0.3607
12843TIP3    H260021   0.587   4.806  11.211  2.5202 -2.6157 -0.9098
12844TIP3   OH260022   0.095   4.077  13.616 -0.3038 -0.0354  0.3321
12844TIP3    H160023   0.069   4.159  13.575 -0.2757  0.2377  0.8438
12844TIP3    H260024   0.152   4.104  13.688  0.5038 -0.5599 -0.1017
12845TIP3   OH260025   5.323   2.539   0.371 -0.2682  0.4417  0.6241
12845TIP3    H160026   5.390   2.577   0.314  0.6866 -0.2025  1.2767
12845TIP3    H260027   5.347   2.570   0.459 -0.2147 -0.6113  0.9969
12846TIP3   OH260028   2.141   6.017  16.720  0.0565 -0.2464 -0.3321
12846TIP3    H160029   2.075   5.963  16.678 -0.5219  0.9310 -0.9744
12846TIP3    H260030   2.196   6.049  16.649  0.9295 -0.6815  0.1295
12847TIP3   OH260031   0.239   0.622  15.172 -0.0167 -0.0703  0.2883
12847TIP3    H160032   0.282   0.702  15.203  3.2142 -1.3666 -0.3970
12847TIP3    H260033   0.231   0.635  15.077  0.5924 -0.5281  0.1632
12848TIP3   OH260034   4.751   5.005   2.564  0.0197  0.0025  0.5613
12848TIP3    H160035   4.685   5.045   2.620 -0.6194  1.1389 -0.9473
12848TIP3    H260036   4.796   5.078   2.523  0.6307 -0.7964 -0.2364
12849TIP3   OH260037   5.124   2.044   2.478  0.3113 -0.3722  0.9079
12849TIP3    H160038   5.077   1.965   2.452 -0.5267 -0.3223  2.1847
12849TIP3    H260039   5.214   2.031   2.447 -0.3930 -0.6661 -1.2011
12850TIP3   OH260040   1.682   6.144   3.526  0.1228  0.7301 -0.0038
12850TIP3    H160041   1.643   6.160   3.612  2.3157 -1.6954  1.5737
12850TIP3    H260042   1.740   6.219   3.512 -0.7632  1.4859  0.2687
12851TIP3   OH260043   0.946   0.134  16.656  0.2254  0.1481 -0.1990
12851TIP3    H160044   0.992   0.150  16.738  1.3767 -0.4988 -0.7047
12851TIP3    H260045   0.990   0.191  16.593  1.6999 -1.8850 -1.1210
12852TIP3   OH260046   2.161   5.256  16.662  0.3339 -0.2093 -0.1254
12852TIP3    H160047   2.159   5.330  16.601 -0.3256 -0.3423 -0.2716
12852TIP3    H260048   2.070   5.229  16.670  0.3543  0.0725  1.2453
12853TIP3   OH260049   3.040   1.810  10.995 -0.5321  0.6817  0.0917
12853TIP3    H160050   2.985   1.851  10.930  3.1741  1.0093 -3.2236
12853TIP3    H260051   3.058   1.723  10.960  1.0145  0.6005  0.9889
12854TIP3   OH260052   0.744   5.030  12.873 -0.2438 -0.0727 -0.0665
12854TIP3    H160053   0.739   5.090  12.799  0.5035  2.0530  1.5218
12854TIP3    H260054   0.653   5.015  12.898 -0.4386  0.2958 -0.5515
12855TIP3   OH260055   3.514   4.136   6.585  0.4930  0.2937  0.0532
12855TIP3    H160056   3.479   4.052   6.554 -3.4518  1.4406  0.8419
12855TIP3    H260057   3.501   4.196   6.511 -1.3538  1.2223  1.0696
12856TIP3   OH260058   0.122   4.317  12.367 -0.0157 -0.0707  0.0648
12856TIP3    H160059   0.131   4.262  12.445 -0.0620  0.6893  0.6065
12856TIP3    H260060   0.049   4.375  12.386  0.3212  0.4914 -0.3279
12857TIP3   OH260061   1.083   1.284  13.945  0.5607 -0.2503 -0.2219
12857TIP3    H160062   1.000   1.285  13.993 -0.7815  1.0580 -2.4115
12857TIP3    H260063   1.150   1.284  14.013 -1.2326  0.0085  1.6261
12858TIP3   OH260064   0.705   2.221  14.691 -0.0774 -0.1930 -0.3412
12858TIP3    H160065   0.728   2.128  14.698 -2.1721 -0.8230 -1.0409
12858TIP3    H260066   0.718   2.255  14.780 -0.2682 -1.4244  0.1824
12859TIP3   OH260067   6.759   4.927  11.866  0.5477 -0.0763  0.0044
12859TIP3    H160068   6.758   5.022  11.876 -0.6689 -0.0822  0.1280
12859TIP3    H260069   6.819   4.896  11.933  3.0829  0.7481 -1.7460
12860TIP3   OH260070   0.463   3.185  13.758  0.4285 -0.3959 -0.6498
12860TIP3    H160071   0.519   3.119  13.799  0.9180 -0.6256 -1.6596
12860TIP3    H260072   0.521   3.235  13.701 -0.0634  0.5054 -0.3843
12861TIP3   OH260073   1.825   6.442   4.953 -0.3842  1.2383  0.1760
12861TIP3    H160074   1.850   6.525   4.995  0.2485  0.6889  0.9120
12861TIP3    H260075   1.765   6.468   4.883  1.6755  2.5551 -1.1847
12862TIP3   OH260076   1.131   1.780   0.295  0.1400 -0.4728  0.1941
12862TIP3    H160077   1.085   1.715   0.242  1.1263 -0.4141 -0.7966
12862TIP3    H260078   1.202   1.810   0.238  1.2486 -0.4013  1.5643
12863TIP3   OH260079   3.397   1.534  13.607 -0.2500  0.0732 -0.3092
12863TIP3    H160080   3.414   1.541  13.513  0.5798 -0.1146 -0.1749
12863TIP3    H260081   3.427   1.617  13.644 -0.8610  0.2741 -0.2407
12864TIP3   OH260082   1.121   2.090  17.098  0.1927  0.9632  0.0782
12864TIP3    H160083   1.026   2.095  17.086  0.1348  1.1807  0.5975
12864TIP3    H260084   1.156   2.085  17.009 -0.1673  3.3296 -0.2504
12865TIP3   OH260085   5.471   6.766  11.615  0.5128 -0.2052  0.3501
12865TIP3    H160086   5.528   6.714  11.558  0.1694 -0.4771  0.2502
12865TIP3    H260087   5.385   6.762  11.573  0.6374  1.0456 -0.0496
12866TIP3   OH260088   0.900   3.797  16.410 -0.2585  0.2811 -0.2021
12866TIP3    H160089   0.814   3.838  16.416 -0.3985  0.7703 -3.4519
12866TIP3    H260090   0.909   3.775  16.317  2.5104 -1.1651  0.2984
12867TIP3   OH260091   3.368   4.234   5.489 -0.2812  0.3106  0.2760
12867TIP3    H160092   3.454   4.213   5.452 -0.4936  0.8741 -0.5446
12867TIP3    H260093   3.316   4.265   5.415 -1.4295 -0.6952  0.6293
12868TIP3   OH260094   4.377   1.171  12.899 -0.0551  0.6696 -0.6121
12868TIP3    H160095   4.291   1.214  12.901 -0.3906  0.0537  1.9747
12868TIP3    H260096   4.408   1.183  12.809 -2.5442  1.4988 -1.4487
12869TIP3   OH260097   4.153   0.334   5.501  0.7241  0.4568  0.0471
12869TIP3    H160098   4.207   0.278   5.557  0.6627  0.2125 -0.1394
12869TIP3    H260099   4.194   0.420   5.507  0.7625  0.4161  0.4119
12870TIP3   OH260100   4.074   2.783  13.208  0.1215 -0.2328 -0.0805
12870TIP3    H160101   4.015   2.855  13.233  0.8042  1.2316 -2.4078
12870TIP3    H260102   4.023   2.729  13.148 -0.1335 -1.3102  1.0673
12871TIP3   OH260103   1.842   4.738   1.565  0.1859  0.0681 -0.1217
12871TIP3    H160104   1.850   4.771   1.475  4.0133  1.5025  0.5654
12871TIP3    H260105   1.880   4.650   1.561 -1.5081 -0.7099 -0.1856
12872TIP3   OH260106   0.475   2.640  16.149 -0.2176  0.3130  0.1927
12872TIP3    H160107   0.390   2.608  16.179 -1.1362  2.5581  0.1611
12872TIP3    H260108   0.459   2.670  16.059  0.6544  0.6201  0.1299
12873TIP3   OH260109   5.656   5.127  15.912  0.2603 -0.3206 -0.5732
12873TIP3    H160110   5.659   5.038  15.878  0.3154 -1.6901  2.6751
12873TIP3    H260111   5.709   5.125  15.991  0.0577  2.5587 -0.2430
12874TIP3   OH260112   6.244   3.699  16.952 -0.0573 -0.7438 -0.4078
12874TIP3    H160113   6.264   3.761  17.022 -1.9638 -1.3945  0.7657
12874TIP3    H260114   6.240   3.614  16.995  2.5831 -1.7960 -2.0117
12875TIP3   OH260115   0.687   5.784   1.012 -0.1064  0.0470  0.0233
12875TIP3    H160116   0.739   5.780   1.092  1.4161  1.1891 -0.8561
12875TIP3    H260117   0.739   5.737   0.947 -1.1034 -0.4508 -0.4494
12876TIP3   OH260118   0.121   3.049   3.998  0.4440  0.6573 -0.4552
12876TIP3    H160119   0.112   3.041   4.093 -2.3240  0.3600 -0.6690
12876TIP3    H260120   0.151   3.139   3.985  3.7522 -0.1405  0.7384
12877TIP3   OH260121   2.761   4.619  14.026 -0.1940  0.8047  0.0252
12877TIP3    H160122   2.688   4.636  13.967 -0.5081  1.5344  0.6175
12877TIP3    H260123   2.781   4.526  14.013  0.4380  1.1710 -2.0066
12878TIP3   OH260124   0.276   1.459   2.702  0.5912  0.1635  0.0229
12878TIP3    H160125   0.249   1.371   2.726  0.4979  0.3865  0.7873
12878TIP3    H260126   0.258   1.466   2.608  0.0355 -0.4254  0.0811
12879TIP3   OH260127   1.444   3.920  16.419 -0.0908 -0.3569  0.3483
12879TIP3    H160128   1.539   3.910  16.429  0.0366 -0.1407 -0.6201
12879TIP3    H260129   1.431   3.937  16.326 -1.1503 -1.1056  0.3497
12880TIP3   OH260130   2.419   0.701   0.259  0.0551 -0.8012  0.1074
12880TIP3    H160131   2.491   0.655   0.302  2.0118  1.4673 -0.5018
12880TIP3    H260132   2.381   0.755   0.329  2.0280  1.4696 -0.4421
12881TIP3   OH260133   2.691   3.440   1.444  0.1519  0.3267 -0.4929
12881TIP3    H160134   2.623   3.506   1.434 -0.2981 -0.0110  0.2537
12881TIP3    H260135   2.734   3.461   1.527 -0.5604 -0.8050  0.1882
12882TIP3   OH260136   4.087   6.138  15.392 -0.2918 -0.1433 -0.0744
12882TIP3    H160137   4.137   6.150  15.472 -0.1245  0.2532 -0.2331
12882TIP3    H260138   4.062   6.046  15.392 -1.5518  0.1583  1.1764
12883TIP3   OH260139   5.193   1.065  11.219 -0.3293 -0.1270  0.3146
12883TIP3    H160140   5.138   1.094  11.291 -0.7347  0.7080 -0.3054
12883TIP3    H260141   5.159   1.112  11.143 -1.6924 -2.9985 -0.9981
12884TIP3   OH260142   0.296   2.652  15.389  0.2841 -0.4353  0.6505
12884TIP3    H160143   0.305   2.581  15.325  0.0686 -2.0782  2.3639
12884TIP3    H260144   0.215   2.632  15.435 -0.1819  1.3819  0.6923
12885TIP3   OH260145   1.722   3.423  11.460 -0.7251  0.4547  0.2242
12885TIP3    H160146   1.752   3.479  11.531  1.1250 -1.4475  1.0539
12885TIP3    H260147   1.801   3.400  11.411 -1.6497 -0.1120 -1.0751
12886TIP3   OH260148   3.185   1.243   2.229  0.3772 -0.7837  0.6222
12886TIP3    H160149   3.139   1.326   2.243  0.6979 -0.5058  0.0774
12886TIP3    H260150   3.119   1.176   2.243 -0.1563 -0.3961  0.0043
12887TIP3   OH260151   1.728   5.631   3.807 -0.0588 -0.4982  0.5961
12887TIP3    H160152   1.823   5.625   3.817 -0.1979 -1.8878  1.2381
12887TIP3    H260153   1.712   5.616   3.713  0.5691  3.3949 -0.3057
12888TIP3   OH260154   0.714   4.878  14.741 -0.5069 -0.4004  0.3616
12888TIP3    H160155   0.800   4.848  14.711  0.5085 -0.3274  2.9339
12888TIP3    H260156   0.670   4.798  14.770 -0.7345 -0.2811  0.3448
12889TIP3   OH260157   4.577   5.919  10.975 -0.6820 -0.0775  0.0709
12889TIP3    H160158   4.666   5.898  11.004 -1.4948  0.3286  3.2550
12889TIP3    H260159   4.571   6.014  10.986 -1.5004 -0.0976 -0.1641
12890TIP3   OH260160   2.473   2.465  16.669  0.5194 -0.2503  0.4397
12890TIP3    H160161   2.383   2.479  16.698  0.2658 -1.4605  0.2573
12890TIP3    H260162   2.526   2.516  16.731 -0.4495  3.6735 -1.6591
12891TIP3   OH260163   1.693   3.536   0.415 -0.3499  0.0575  0.2223
12891TIP3    H160164   1.694   3.612   0.357 -0.6759  0.4830  0.7588
12891TIP3    H260165   1.605   3.500   0.405 -0.2051 -0.2339 -0.0088
12892TIP3   OH260166   3.976   0.959  11.493  0.1376 -0.1811 -0.3741
12892TIP3    H160167   3.932   1.001  11.419  1.7199  3.3857  0.4846
12892TIP3    H260168   4.062   0.934  11.458 -0.0744 -0.9416 -0.3708
12893TIP3   OH260169   1.518   1.367  15.916 -0.2491 -0.1803  0.0709
12893TIP3    H160170   1.563   1.350  15.999 -0.7841 -0.7975  0.2529
12893TIP3    H260171   1.581   1.345  15.849 -0.3814 -1.3856  0.3195
12894TIP3   OH260172   4.615   2.337  12.867 -0.2719  0.1420  0.5050
12894TIP3    H160173   4.616   2.343  12.962  1.4578 -1.0805  0.6199
12894TIP3    H260174   4.549   2.271  12.847 -0.6838  0.4472  0.8431
12895TIP3   OH260175   1.426   0.392  11.488  0.2550 -0.0616  0.1664
12895TIP3    H160176   1.351   0.376  11.546  0.8567 -1.9136  0.4820
12895TIP3    H260177   1.435   0.487  11.487 -0.1907  0.0750  2.5946
12896TIP3   OH260178   0.254   5.295  15.897  0.5649 -0.2902 -0.8961
12896TIP3    H160179   0.239   5.313  15.804  2.6706  0.1229 -1.2045
12896TIP3    H260180   0.308   5.216  15.898 -0.7608 -1.2267  0.0715
12897TIP3   OH260181   4.721   6.672  14.360 -0.2644 -0.6575  0.7899
12897TIP3    H160182   4.816   6.666  14.346 -0.0402  0.3404  1.7299
12897TIP3    H260183   4.690   6.581  14.352  0.7821 -1.0184  0.6158
12898TIP3   OH260184   4.436   0.285  16.281 -0.3655 -0.3378 -0.9011
12898TIP3    H160185   4.369   0.354  16.277  0.7876  0.8428 -0.6458
12898TIP3    H260186   4.423   0.244  16.366  1.5350  2.3991  0.8861
12899TIP3   OH260187   2.264   0.028  13.630  0.0801 -0.0070  0.4165
12899TIP3    H160188   2.209   0.006  13.554  1.4990  0.3887 -0.7566
12899TIP3    H260189   2.210   0.004  13.705 -1.9555  0.9332 -0.6553
12900TIP3   OH260190   6.255   2.017   0.975  0.1476 -0.0131  0.4147
12900TIP3    H160191   6.175   2.051   0.935  0.6203 -0.5854 -1.0891
12900TIP3    H260192   6.302   2.096   1.003  0.8636  0.6253 -2.3118
12901TIP3   OH260193   4.239   5.153   2.251  0.2134 -0.2474 -0.1870
12901TIP3    H160194   4.155   5.198   2.255  0.3959  0.0145  1.4082
12901TIP3    H260195   4.217   5.060   2.245 -0.2509 -0.3355  2.1451
12902TIP3   OH260196   2.833   4.865  12.912 -0.0132  0.3319 -0.0754
12902TIP3    H160197   2.780   4.797  12.953  0.3474  0.4199  0.5456
12902TIP3    H260198   2.822   4.850  12.818  2.0727 -2.2041 -0.0139
12903TIP3   OH260199   4.162   3.426  15.429  0.0433 -0.6663 -0.2745
12903TIP3    H160200   4.178   3.429  15.523  0.9460 -0.0063 -0.4395
12903TIP3    H260201   4.225   3.362  15.396 -0.6839 -1.3517 -0.3586
12904TIP3   OH260202   0.171   2.564   4.754  0.1141  0.0328 -0.6078
12904TIP3    H160203   0.159   2.564   4.659 -1.3112  0.2662 -0.4442
12904TIP3    H260204   0.127   2.643   4.784 -0.9547 -0.8965  0.4058
12905TIP3   OH260205   4.700   0.939   1.582 -0.0312  0.1628  0.3749
12905TIP3    H160206   4.636   0.987   1.529 -0.6253 -0.5045  0.4695
12905TIP3    H260207   4.771   1.001   1.596 -1.1734  1.3369  1.2636
12906TIP3   OH260208   4.940   5.846  14.492  0.5000 -0.6434 -0.1005
12906TIP3    H160209   5.025   5.806  14.507  0.2402 -1.1273  0.1337
12906TIP3    H260210   4.948   5.935  14.528  0.5892 -1.0297  0.8694
12907TIP3   OH260211   2.871   1.970  14.003  0.4695 -0.6511 -0.3617
12907TIP3    H160212   2.823   2.025  14.065 -1.2534 -2.3017 -0.1178
12907TIP3    H260213   2.958   1.961  14.042 -0.4181 -1.2584  1.6675
12908TIP3   OH260214   0.925   5.660  14.306  0.2296  0.1132 -0.0277
12908TIP3    H160215   0.965   5.747  14.309  0.9236 -0.1870 -0.2008
12908TIP3    H260216   0.998   5.601  14.284 -0.1969 -0.5267  0.2300
12909TIP3   OH260217   5.904   1.582   0.806  0.1460  1.1612 -0.3589
12909TIP3    H160218   5.984   1.550   0.847  0.5046 -0.4689 -2.1676
12909TIP3    H260219   5.854   1.502   0.787 -1.9971  2.1408  0.8434
12910TIP3   OH260220   1.589   0.856  12.759  0.1388  0.6954 -0.2832
12910TIP3    H160221   1.500   0.829  12.779  0.4562 -1.5848 -1.5403
12910TIP3    H260222   1.643   0.784  12.793  1.2066  0.4068 -2.4617
12911TIP3   OH260223   3.914   3.104   2.071 -0.6899 -0.5009  0.1478
12911TIP3    H160224   3.977   3.098   1.998 -0.0515 -1.6738  0.7731
12911TIP3    H260225   3.893   3.197   2.076  0.0080 -0.2647 -0.9159
12912TIP3   OH260226   1.673   3.850  12.436 -0.6567  0.0983  0.8075
12912TIP3    H160227   1.664   3.928  12.381 -1.5294 -1.0077 -0.6992
12912TIP3    H260228   1.765   3.849  12.462  0.0448  0.1374 -1.4906
12913TIP3   OH260229   0.974   1.339  16.984 -0.1435 -0.2998 -0.0696
12913TIP3    H160230   1.016   1.261  16.947 -1.8298 -1.7967  1.0183
12913TIP3    H260231   0.999   1.339  17.076  0.3399  0.8149 -0.1905
12914TIP3   OH260232   2.320   6.571  12.960  0.8327 -0.2552  0.1919
12914TIP3    H160233   2.296   6.489  13.001 -0.6978  0.4563  0.7841
12914TIP3    H260234   2.238   6.606  12.926  1.5325  0.8045 -0.4731
12915TIP3   OH260235   4.585   0.199  16.080  0.2683 -0.6804 -0.2611
12915TIP3    H160236   4.621   0.284  16.056  1.3659 -1.0860 -0.1199
12915TIP3    H260237   4.521   0.218  16.149  0.9470 -0.0252  0.2000
12916TIP3   OH260238   3.885   0.000  11.392  0.3719  0.8136  0.6651
12916TIP3    H160239   3.967   0.042  11.416  0.4110  1.3473 -0.3507
12916TIP3    H260240   3.909  -0.065  11.326  0.0304  0.7812  0.5669
12917TIP3   OH260241   3.325   1.558  11.491  0.1473  0.2526 -0.1512
12917TIP3    H160242   3.405   1.579  11.444 -0.3501  0.5551 -0.8766
12917TIP3    H260243   3.302   1.639  11.537  0.9515 -0.2110  1.1157
12918TIP3   OH260244   4.033   1.305  12.643  0.0256  0.5189  0.7609
12918TIP3    H160245   4.062   1.250  12.715 -0.8220 -0.6520  0.2482
12918TIP3    H260246   3.939   1.288  12.637 -0.0135  1.0250 -0.2582
12919TIP3   OH260247   0.738   5.292   1.106 -0.1745  0.4762 -0.0979
12919TIP3    H160248   0.681   5.277   1.030 -1.1215 -1.2550  0.8669
12919TIP3    H260249   0.696   5.363   1.153 -1.3172 -0.4473  0.3339
12920TIP3   OH260250   6.634   1.318  16.898  0.0512 -0.0298 -0.1560
12920TIP3    H160251   6.659   1.332  16.806  2.6080  2.6002  0.7730
12920TIP3    H260252   6.677   1.390  16.945 -0.3421 -1.8517  3.2517
12921TIP3   OH260253   2.045   2.951  16.500  0.0532  0.5384  0.2078
12921TIP3    H160254   1.986   2.993  16.562 -0.1972 -0.6533  0.8061
12921TIP3    H260255   2.028   2.857  16.511  1.7924  0.1905  0.1330
12922TIP3   OH260256   6.598   2.935   4.101  0.3106  0.0488  0.4774
12922TIP3    H160257   6.517   2.948   4.052  0.2500 -1.1767  0.2256
12922TIP3    H260258   6.593   2.998   4.173  0.1992  1.5708 -0.8040
12923TIP3   OH260259   5.268   3.526   6.264  0.0620 -0.9036  0.0915
12923TIP3    H160260   5.327   3.599   6.281 -0.5703 -0.6411  1.2617
12923TIP3    H260261   5.325   3.449   6.259  0.8789 -0.2354 -2.3697
12924TIP3   OH260262   4.579   3.983   0.298 -0.7713  0.5710  0.1460
12924TIP3    H160263   4.600   3.935   0.218  3.4456 -0.3119  1.5415
12924TIP3    H260264   4.556   3.916   0.361 -1.5990  1.0434  0.3605
12925TIP3   OH260265   5.896   5.992  15.495  0.2533  0.1944 -0.0914
12925TIP3    H160266   5.990   6.006  15.505  0.4744 -0.4200 -1.1711
12925TIP3    H260267   5.879   5.907  15.535  0.2237  0.1286 -0.2442
12926TIP3   OH260268   0.425   4.752   6.348  0.4489 -0.0894  0.5643
12926TIP3    H160269   0.441   4.805   6.270  0.0779 -0.7044  0.0594
12926TIP3    H260270   0.466   4.667   6.327  0.0132 -0.3798  0.8827
12927TIP3   OH260271   4.398   6.491   4.702  0.0848 -0.2668 -0.5057
12927TIP3    H160272   4.442   6.477   4.786 -0.2419  0.2290 -0.2477
12927TIP3    H260273   4.405   6.407   4.657 -0.0654 -0.6501  0.1730
12928TIP3   OH260274   6.596   2.790  14.857  0.5749 -0.0041 -0.2566
12928TIP3    H160275   6.640   2.872  14.878  0.3742  0.1398 -0.3924
12928TIP3    H260276   6.583   2.747  14.942 -1.3989  1.1573  0.1023
12929TIP3   OH260277   0.101   1.992   4.885  0.2341 -0.5463 -0.3846
12929TIP3    H160278   0.175   1.946   4.846 -0.1666 -1.5227 -0.0482
12929TIP3    H260279   0.024   1.943   4.854 -0.4450  1.5919 -2.3153
12930TIP3   OH260280   1.906   6.313   5.602 -0.2947  0.0312  0.4152
12930TIP3    H160281   1.895   6.234   5.550  3.2258 -0.1456 -0.3293
12930TIP3    H260282   1.922   6.282   5.691  1.9596 -0.2773 -0.0302
12931TIP3   OH260283   4.601   5.542  16.025  0.2094  0.1392  0.7423
12931TIP3    H160284   4.516   5.515  16.060  0.6780 -0.1527  1.6855
12931TIP3    H260285   4.595   5.525  15.931 -0.1523 -1.5622  1.0504
12932TIP3   OH260286   0.350   4.979  11.546  0.3526 -0.4924  0.2020
12932TIP3    H160287   0.380   5.052  11.491  0.8068 -1.7825 -1.3326
12932TIP3    H260288   0.258   4.968  11.521 -0.6320  1.3947  2.5896
12933TIP3   OH260289   6.302   1.747   2.477 -0.2002 -0.3270  0.3442
12933TIP3    H160290   6.296   1.696   2.397 -1.8957  0.1694  0.1089
12933TIP3    H260291   6.294   1.838   2.448 -1.9214 -0.1934  1.1280
12934TIP3   OH260292   3.279   3.079  15.533 -0.5799 -0.2677 -0.4300
12934TIP3    H160293   3.269   3.161  15.582 -1.4539 -1.0146  0.6894
12934TIP3    H260294   3.352   3.035  15.577 -1.8846 -1.3029  0.7636
12935TIP3   OH260295   5.120   3.165   3.378 -0.1089 -0.3184  0.1868
12935TIP3    H160296   5.058   3.107   3.422 -0.8315  1.1064  1.1116
12935TIP3    H260297   5.188   3.181   3.443  0.9773 -1.4059 -0.6280
12936TIP3   OH260298   4.507   5.165  16.189 -0.4343  0.5905  0.0470
12936TIP3    H160299   4.488   5.102  16.259  2.3504 -1.0021 -0.4916
12936TIP3    H260300   4.468   5.127  16.111 -0.6579  0.6683  0.1196
12937TIP3   OH260301   0.510   4.193  13.129  0.2853 -0.5748  0.5382
12937TIP3    H160302   0.562   4.266  13.095 -0.3472 -0.9566 -1.3700
12937TIP3    H260303   0.424   4.204  13.088 -0.2091 -1.6908  1.2354
12938TIP3   OH260304   5.017   3.056   1.910  0.0123  0.2218  0.5292
12938TIP3    H160305   4.993   3.140   1.948 -0.3037 -0.0011  0.8230
12938TIP3    H260306   4.942   3.031   1.857  0.2693  0.3155  0.1179
12939TIP3   OH260307   4.470   6.665  10.758  0.3144 -0.5186 -0.0952
12939TIP3    H160308   4.441   6.728  10.692  0.0555 -0.0110  0.4920
12939TIP3    H260309   4.390   6.641  10.805  0.9514  2.2092  2.6926
12940TIP3   OH260310   4.754   5.854   4.216  0.2675  0.1965  1.1752
12940TIP3    H160311   4.691   5.830   4.284 -1.9632 -1.4171 -1.2462
12940TIP3    H260312   4.757   5.778   4.158  1.6912  1.6365 -0.7948
12941TIP3   OH260313   5.762   4.257   0.446 -0.4448  0.1305  0.4464
12941TIP3    H160314   5.815   4.318   0.394  1.2173 -1.3826  0.2641
12941TIP3    H260315   5.758   4.177   0.393 -2.4909 -0.0131  0.7186
12942TIP3   OH260316   3.711   3.484  16.770 -0.1836 -0.8740  0.5710
12942TIP3    H160317   3.805   3.486  16.751 -0.7250 -0.7828 -2.8684
12942TIP3    H260318   3.691   3.573  16.801  0.6815 -0.4968  0.0792
12943TIP3   OH260319   5.490   6.071   1.346  0.1239  0.0135  0.2113
12943TIP3    H160320   5.520   6.086   1.256 -0.8403  0.1858 -0.0906
12943TIP3    H260321   5.420   6.007   1.337 -0.1136  0.1874  0.8238
12944TIP3   OH260322   3.948   4.882   3.806  0.0121 -0.0228 -0.2239
12944TIP3    H160323   3.876   4.897   3.744 -0.3071 -1.4431 -0.2195
12944TIP3    H260324   4.001   4.962   3.800 -0.7624  0.4423 -1.3032
12945TIP3   OH260325   3.567   3.250  16.789  0.5724 -0.1698 -0.0162
12945TIP3    H160326   3.613   3.334  16.782  0.8333 -0.3946 -1.1370
12945TIP3    H260327   3.489   3.260  16.734  0.9777 -0.8975 -0.7429
12946TIP3   OH260328   4.969   2.941  13.237  0.6378  0.1534 -0.3661
12946TIP3    H160329   4.964   2.911  13.146 -0.6284 -0.0607 -0.2374
12946TIP3    H260330   5.017   3.024  13.232 -1.2664  1.2445 -1.5183
12947TIP3   OH260331   6.316   0.528   1.050  0.0478 -0.4146 -0.1716
12947TIP3    H160332   6.243   0.580   1.084  0.1150 -1.4794  1.7581
12947TIP3    H260333   6.278   0.477   0.979 -0.5523  0.5944 -0.6017
12948TIP3   OH260334   4.415   3.035   4.250  0.1342  0.0051 -0.1074
12948TIP3    H160335   4.431   3.101   4.318  2.2050  0.2910 -0.7773
12948TIP3    H260336   4.399   3.085   4.170 -0.0986 -0.3088 -0.2617
12949TIP3   OH260337   4.869   3.038   1.044 -0.0532  0.0918  0.1152
12949TIP3    H160338   4.929   3.098   1.089 -0.0932 -0.0440  0.3510
12949TIP3    H260339   4.821   2.995   1.115  0.5815 -0.8438 -0.0129
12950TIP3   OH260340   5.875   5.735  15.572  0.0579  0.2947  0.0331
12950TIP3    H160341   5.941   5.666  15.575 -0.9689 -0.7614 -0.5801
12950TIP3    H260342   5.816   5.715  15.645 -0.5475  0.1823 -0.4757
12951TIP3   OH260343   1.414   3.463   1.819  0.2706  0.5754  0.4409
12951TIP3    H160344   1.446   3.401   1.753 -0.1838  0.3780  0.4030
12951TIP3    H260345   1.412   3.412   1.900  3.3498  1.4881  1.2367
12952TIP3   OH260346   0.135   0.534   6.574 -0.0783 -0.3815  0.2753
12952TIP3    H160347   0.125   0.472   6.645  1.3733 -0.4345  0.4508
12952TIP3    H260348   0.053   0.528   6.525 -0.0673 -2.2584  0.4207
12953TIP3   OH260349   3.261   3.840   1.192 -0.2332  0.1847 -0.2419
12953TIP3    H160350   3.307   3.772   1.143  0.9965  0.6533  0.2353
12953TIP3    H260351   3.262   3.916   1.134 -1.5888 -0.1606 -0.7664
12954TIP3   OH260352   1.017   5.783  13.269  0.2454  0.0295 -0.0202
12954TIP3    H160353   1.025   5.705  13.214  0.8787  0.2801 -0.2975
12954TIP3    H260354   0.926   5.810  13.261  0.2955 -0.0332 -0.8210
12955TIP3   OH260355   0.879   1.874  11.766  0.3373  0.0801 -0.4233
12955TIP3    H160356   0.923   1.817  11.703 -0.8757 -0.2842 -0.9666
12955TIP3    H260357   0.788   1.878  11.736  0.1483  1.4163  0.2425
12956TIP3   OH260358   5.717   1.571  13.778  0.3863  0.1848 -0.3073
12956TIP3    H160359   5.806   1.553  13.808  1.8750  2.6031 -2.8411
12956TIP3    H260360   5.690   1.491  13.733  1.9373 -0.0516 -0.8771
12957TIP3   OH260361   1.350   3.055  13.711  0.1479  0.4720  0.2744
12957TIP3    H160362   1.432   3.099  13.734  0.2399 -0.1090  1.1239
12957TIP3    H260363   1.369   2.962  13.726 -0.8323  0.3813  1.0088
12958TIP3   OH260364   2.374   6.683   5.763  0.4806  0.2684  0.1117
12958TIP3    H160365   2.381   6.614   5.829  0.8815  1.6100  1.5512
12958TIP3    H260366   2.464   6.713   5.750  0.1235  2.0418  1.2888
12959TIP3   OH260367   4.677   0.520   3.727  0.2252 -0.0578  0.6331
12959TIP3    H160368   4.632   0.556   3.804 -0.8606  0.8163 -0.3750
12959TIP3    H260369   4.691   0.595   3.670  2.2560 -0.4525  0.5342
12960TIP3   OH260370   4.543   1.906  17.030  0.6480  0.4011 -0.0521
12960TIP3    H160371   4.578   1.963  16.961  2.4694  0.1603  0.6281
12960TIP3    H260372   4.492   1.965  17.086  2.0677  1.2882  0.3513
12961TIP3   OH260373   2.166   3.028   0.867  0.2476  0.6579 -0.6036
12961TIP3    H160374   2.167   3.074   0.951 -2.0577  1.0006 -0.6933
12961TIP3    H260375   2.138   2.939   0.889  1.2470  0.2723 -0.8450
12962TIP3   OH260376   5.644   2.560  12.591  0.6089 -0.0418  0.0832
12962TIP3    H160377   5.651   2.556  12.686 -1.1212 -0.4928  0.2274
12962TIP3    H260378   5.587   2.486  12.568  1.5340 -0.3431 -1.3765
12963TIP3   OH260379   5.609   1.032   2.073 -0.5194 -0.4884 -0.2640
12963TIP3    H160380   5.611   1.123   2.043 -1.0912 -0.0087  1.0650
12963TIP3    H260381   5.524   0.999   2.041 -1.3429  0.1662  1.1506
12964TIP3   OH260382   5.230   6.121  14.284 -0.2870  0.0060  0.4088
12964TIP3    H160383   5.182   6.200  14.261 -2.3109 -1.4667 -0.7989
12964TIP3    H260384   5.222   6.114  14.379  2.2666  2.5832  0.9425
12965TIP3   OH260385   5.397   1.314  14.010 -0.1340 -0.1326  0.0342
12965TIP3    H160386   5.489   1.338  14.017 -0.4644  1.4567 -0.6044
12965TIP3    H260387   5.355   1.356  14.085 -0.2653 -1.3729  0.6781
12966TIP3   OH260388   5.742   5.950   0.960 -0.0506  0.2518  0.6686
12966TIP3    H160389   5.680   5.876   0.958  0.7157 -0.3995 -1.4377
12966TIP3    H260390   5.695   6.019   1.007 -1.9408 -0.5895  0.1222
12967TIP3   OH260391   4.961   6.492   4.114 -0.4065 -0.0510 -0.3395
12967TIP3    H160392   4.993   6.506   4.025  0.4695  1.1901  0.1266
12967TIP3    H260393   5.010   6.556   4.166 -0.2726 -1.3346  1.1702
12968TIP3   OH260394   0.591   3.612   5.549  0.1305 -0.2931  0.2905
12968TIP3    H160395   0.581   3.696   5.505  0.2365 -0.2918  0.2684
12968TIP3    H260396   0.649   3.562   5.492  0.9644  0.0179  0.8423
12969TIP3   OH260397   3.334   4.226   5.766  0.5723  0.8581  0.3132
12969TIP3    H160398   3.311   4.316   5.791  0.3836  1.1974 -0.9965
12969TIP3    H260399   3.345   4.230   5.671 -1.8507 -1.0066 -0.1484
12970TIP3   OH260400   5.384   1.338  13.173 -0.2018  0.0143 -0.2887
12970TIP3    H160401   5.393   1.279  13.099 -0.4617 -0.0628 -0.2610
12970TIP3    H260402   5.418   1.422  13.142 -1.4670  0.3265 -0.9198
12971TIP3   OH260403   4.156   3.315   0.408 -0.0162  0.1451 -0.5913
12971TIP3    H160404   4.144   3.347   0.318 -0.3328  1.7757 -0.0006
12971TIP3    H260405   4.091   3.245   0.417 -0.0002 -0.0173 -1.6199
12972TIP3   OH260406   3.748   2.049  14.278 -0.0876 -0.0533 -0.1780
12972TIP3    H160407   3.766   2.011  14.193 -0.9183  1.0832 -0.8948
12972TIP3    H260408   3.818   2.112  14.292  0.2726 -0.5286  0.1676
12973TIP3   OH260409   4.971   5.469   3.966 -0.5227 -0.0932 -0.3635
12973TIP3    H160410   4.881   5.455   3.937 -1.1987  2.8099 -0.0147
12973TIP3    H260411   4.964   5.476   4.061  0.6917 -3.1829  0.0674
12974TIP3   OH260412   3.813   1.489   2.270 -0.6290 -0.1398  0.9699
12974TIP3    H160413   3.754   1.541   2.215  0.1141 -0.3469 -0.0603
12974TIP3    H260414   3.881   1.552   2.297  1.9040 -0.9955 -2.6206
12975TIP3   OH260415   1.281   0.906  13.505  0.6433 -0.5429  0.2158
12975TIP3    H160416   1.315   0.817  13.500  0.3730 -0.6052 -0.7078
12975TIP3    H260417   1.186   0.896  13.501  0.5912 -0.2386  0.6053
12976TIP3   OH260418   0.435   6.427  17.076  0.0670  0.2138 -0.3206
12976TIP3    H160419   0.342   6.412  17.087 -0.0627  1.9682  1.6661
12976TIP3    H260420   0.442   6.488  17.003 -0.3331  0.1305 -0.4285
12977TIP3   OH260421   0.263   5.514   2.041 -0.2079 -0.7319  0.3837
12977TIP3    H160422   0.212   5.526   2.121 -2.2642  0.9361 -1.0669
12977TIP3    H260423   0.308   5.598   2.028  1.2148 -1.4456  0.4696
12978TIP3   OH260424   3.942   5.852   1.915 -0.3340  0.6611  0.4988
12978TIP3    H160425   3.976   5.836   1.827 -1.7378  0.2751  0.0110
12978TIP3    H260426   3.936   5.764   1.954 -1.6063  0.6244  0.2496
12979TIP3   OH260427   3.874   2.370   4.390 -0.3518  0.4536 -0.2342
12979TIP3    H160428   3.791   2.324   4.403 -0.5404  0.2879 -1.8518
12979TIP3    H260429   3.930   2.336   4.459 -0.3742 -2.5492 -1.5098
12980TIP3   OH260430   2.512   1.576  10.914  0.6650  0.1637 -0.2975
12980TIP3    H160431   2.422   1.591  10.942  1.0780  0.2765  1.0096
12980TIP3    H260432   2.523   1.633  10.837 -0.6074 -0.4531 -0.9542
12981TIP3   OH260433   0.724   5.748   2.253 -0.3159  0.2429  0.3447
12981TIP3    H160434   0.734   5.840   2.229 -0.7957  0.5904  1.4095
12981TIP3    H260435   0.806   5.725   2.295 -1.1029  0.9659  2.4204
12982TIP3   OH260436   2.957   5.856   6.088 -0.4449 -0.0739  0.0070
12982TIP3    H160437   2.963   5.803   6.167  1.5883  1.7618  1.1934
12982TIP3    H260438   2.939   5.944   6.118  0.8026  0.7628 -1.4903
12983TIP3   OH260439   6.614   4.306  14.961  0.2216  0.1825 -0.3198
12983TIP3    H160440   6.637   4.387  14.915 -1.0913  0.3490 -0.7157
12983TIP3    H260441   6.532   4.277  14.921  0.2599 -0.9243  0.3513
12984TIP3   OH260442   5.995   3.534  14.884 -0.4378  0.1536  0.8066
12984TIP3    H160443   5.902   3.512  14.896 -0.0807 -1.9718  0.1653
12984TIP3    H260444   6.030   3.537  14.972 -1.1041  1.0538  1.0633
12985TIP3   OH260445   1.692   0.961   0.176  0.2691 -0.0588 -0.1383
12985TIP3    H160446   1.647   0.886   0.138 -0.7290  0.7210 -0.5351
12985TIP3    H260447   1.780   0.958   0.138  0.3045 -1.1243 -0.0023
12986TIP3   OH260448   3.134   6.350  13.661 -0.1453 -0.0800 -0.0126
12986TIP3    H160449   3.092   6.338  13.575  0.1215 -2.6172  0.1500
12986TIP3    H260450   3.218   6.391  13.641  0.3456 -1.5318 -1.1192
12987TIP3   OH260451   3.488   4.607  16.279 -0.0463 -0.1724  0.2356
12987TIP3    H160452   3.437   4.682  16.248  1.3933 -0.5435 -3.6322
12987TIP3    H260453   3.442   4.530  16.243  1.2384 -0.7389 -0.2621
12988TIP3   OH260454   1.436   5.052   0.974 -0.1811 -0.3324 -0.4431
12988TIP3    H160455   1.529   5.037   0.992 -0.3842 -0.4181  0.6176
12988TIP3    H260456   1.434   5.090   0.886  1.0302  1.5916  0.3032
12989TIP3   OH260457   1.549   1.298  13.505  0.2358  0.0450 -0.3975
12989TIP3    H160458   1.466   1.259  13.535  0.4331 -0.5182 -0.5742
12989TIP3    H260459   1.606   1.223  13.489  1.0251  0.4592  0.4129
12990TIP3   OH260460   3.344   0.336   1.317  0.4879 -0.4759  0.0241
12990TIP3    H160461   3.315   0.250   1.288  0.6058 -1.3659  2.3259
12990TIP3    H260462   3.402   0.367   1.248  0.3411 -2.1752 -0.9078
12991TIP3   OH260463   2.005   5.488  15.555  0.2151 -0.0519 -0.4226
12991TIP3    H160464   1.952   5.547  15.502 -1.8543 -1.4073  0.0543
12991TIP3    H260465   1.946   5.457  15.624  2.4095  0.5715  1.9010
12992TIP3   OH260466   0.394   2.672   0.321  1.2377 -0.8321 -0.3251
12992TIP3    H160467   0.446   2.748   0.295  0.3287 -0.5013 -1.2767
12992TIP3    H260468   0.406   2.665   0.415  0.8097  0.9172 -0.1074
12993TIP3   OH260469   4.801   1.453  10.760  0.4568 -0.2037 -0.4676
12993TIP3    H160470   4.731   1.446  10.696  1.9382  0.1308 -2.2236
12993TIP3    H260471   4.775   1.524  10.818 -0.3428  0.3521 -1.4896
12994TIP3   OH260472   5.938   0.907  10.631 -0.2550 -0.2859 -0.1516
12994TIP3    H160473   5.866   0.969  10.623 -1.9287 -1.9450  1.0602
12994TIP3    H260474   5.989   0.918  10.550 -1.3280  1.5566 -0.6337
12995TIP3   OH260475   1.723   6.052   3.907  0.4384 -0.3298  0.2696
12995TIP3    H160476   1.738   5.973   3.855 -1.4912 -1.2944  1.0743
12995TIP3    H260477   1.774   6.039   3.987  0.0422 -0.8319  0.4464
12996TIP3   OH260478   3.665   2.196  13.904 -0.7769  0.4793  0.5318
12996TIP3    H160479   3.580   2.155  13.921 -0.8767  1.5439  3.0333
12996TIP3    H260480   3.663   2.278  13.954  1.7370  0.4871  0.7702
12997TIP3   OH260481   3.973   0.889  16.803 -0.0291 -0.1554  0.2401
12997TIP3    H160482   3.980   0.977  16.841  0.4971 -0.4355  0.8148
12997TIP3    H260483   3.956   0.832  16.878 -0.1289 -0.5758 -0.1014
12998TIP3   OH260484   2.809   5.368   2.999 -0.2088  0.0077  0.1286
12998TIP3    H160485   2.836   5.459   3.013  0.9435 -0.6569  2.7271
12998TIP3    H260486   2.769   5.369   2.911  1.0462  2.6968 -0.5381
12999TIP3   OH260487   0.342   3.260  16.708 -0.1127 -0.4980  0.4792
12999TIP3    H160488   0.338   3.174  16.668  1.3292 -0.5317  0.3625
12999TIP3    H260489   0.250   3.283  16.725 -0.6848 -1.0026 -1.6641
13000TIP3   OH260490   6.396   2.116  10.433 -0.0069  0.0264 -0.1929
13000TIP3    H160491   6.397   2.032  10.479 -2.0396  0.1515  0.1561
13000TIP3    H260492   6.486   2.127  10.402  1.3350 -0.3745  3.1242
13001TIP3   OH260493   6.236   4.045  12.409  0.3118  0.1734 -0.5989
13001TIP3    H160494   6.248   3.951  12.394  2.0411  0.4268 -0.9723
13001TIP3    H260495   6.177   4.073  12.339  0.3333 -0.5111 -0.8961
13002TIP3   OH260496   4.396   4.170  16.786 -0.4564  0.2062  0.3538
13002TIP3    H160497   4.330   4.146  16.851 -1.5006 -0.3898 -0.8797
13002TIP3    H260498   4.346   4.212  16.716  0.6465  0.8553 -0.0659
13003TIP3   OH260499   5.601   6.758  13.280 -0.1523  0.0574  0.4593
13003TIP3    H160500   5.519   6.754  13.330  0.5810  3.2433  2.1599
13003TIP3    H260501   5.622   6.851  13.275  2.4853 -0.5260 -1.4976
13004TIP3   OH260502   0.309   3.334   5.205  0.4506 -0.2913  0.7029
13004TIP3    H160503   0.221   3.364   5.182  0.7182 -0.5657 -0.8337
13004TIP3    H260504   0.323   3.365   5.294 -0.7634  0.7496  0.5598
13005TIP3   OH260505   0.218   1.008   2.039  0.7138  0.4202  0.1637
13005TIP3    H160506   0.283   1.013   1.969  1.1429  0.9129  0.5853
13005TIP3    H260507   0.200   1.099   2.061  0.8903  0.2679  0.9623
13006TIP3   OH260508   3.411   3.582   5.053 -0.1041  0.7170 -0.1900
13006TIP3    H160509   3.474   3.559   5.122 -0.6890  0.9646  0.4463
13006TIP3    H260510   3.465   3.612   4.980  0.7123 -2.6494 -1.1293
13007TIP3   OH260511   0.826   0.497  12.188  0.2746  0.1287 -0.3171
13007TIP3    H160512   0.771   0.419  12.178  0.2718 -0.1988  1.7788
13007TIP3    H260513   0.878   0.480  12.266  1.3833  1.6027 -0.6925
13008TIP3   OH260514   4.623   3.705  11.879 -0.0071  0.0119  0.7037
13008TIP3    H160515   4.593   3.663  11.799 -0.3763  0.1739  0.7537
13008TIP3    H260516   4.555   3.770  11.899 -0.1092 -0.2843  1.3442
13009TIP3   OH260517   6.619   1.803   5.504  0.5045  0.9120  0.2595
13009TIP3    H160518   6.623   1.891   5.543  2.0293  0.9634  0.0332
13009TIP3    H260519   6.697   1.798   5.449  1.3532 -1.1738  1.5473
13010TIP3   OH260520   0.602   2.128   1.716 -0.6747  0.1844 -0.0839
13010TIP3    H160521   0.695   2.150   1.724 -0.9821  1.7653 -0.5361
13010TIP3    H260522   0.582   2.081   1.798  0.4087  0.1844  0.2032
13011TIP3   OH260523   5.518   5.454   1.765 -0.4847  0.9191 -0.0846
13011TIP3    H160524   5.584   5.522   1.748 -0.0507  0.3984 -0.5066
13011TIP3    H260525   5.435   5.499   1.751 -0.2122  1.4435 -0.0847
13012TIP3   OH260526   1.613   5.883   3.614  0.3452  0.0419  0.7958
13012TIP3    H160527   1.691   5.842   3.652 -1.0656 -0.2663  3.6445
13012TIP3    H260528   1.645   5.964   3.575  2.0780  0.0420  2.0823
13013TIP3   OH260529   0.064   4.233  17.177 -0.0018 -0.0651 -0.2620
13013TIP3    H160530   0.062   4.179  17.098  1.2129 -1.4974  0.6394
13013TIP3    H260531  -0.027   4.234  17.207  0.0963 -2.8216  0.4270
13014TIP3   OH260532   4.603   2.374  15.716 -0.2426  0.1934  0.1102
13014TIP3    H160533   4.539   2.413  15.776  0.3925 -0.3140  1.1487
13014TIP3    H260534   4.623   2.445  15.655 -0.3574  0.9808  0.9432
13015TIP3   OH260535   4.953   6.256   6.637 -0.1180 -0.0513  0.2979
13015TIP3    H160536   4.865   6.239   6.669 -0.1116  1.2138  1.0785
13015TIP3    H260537   4.953   6.223   6.547 -1.4599  0.1123  0.2158
13016TIP3   OH260538   2.067   0.570  15.476 -0.0766  0.0637 -0.2278
13016TIP3    H160539   2.153   0.612  15.480  1.0353 -1.9888 -1.4633
13016TIP3    H260540   2.048   0.561  15.383 -0.8320 -1.0317  0.0096
13017TIP3   OH260541   4.968   2.856  16.659 -0.3784 -0.1102  0.0795
13017TIP3    H160542   5.027   2.827  16.729  1.4574 -0.1071 -1.3948
13017TIP3    H260543   4.898   2.903  16.705  0.8504  0.0426  1.8981
13018TIP3   OH260544   1.836   4.237  14.658  0.0430  0.1803  0.5246
13018TIP3    H160545   1.817   4.180  14.583  1.9095  1.9496 -1.4417
13018TIP3    H260546   1.767   4.303  14.656 -0.1955 -0.0642  0.6757
13019TIP3   OH260547   3.260   2.567   0.302 -0.0246  0.3845  1.1451
13019TIP3    H160548   3.289   2.641   0.356 -0.5682  2.1719 -0.8999
13019TIP3    H260549   3.226   2.504   0.365 -1.2455  2.6392  2.8868
13020TIP3   OH260550   1.608   2.006  12.226 -0.1240 -0.2965 -0.0775
13020TIP3    H160551   1.646   2.094  12.225 -0.5576  0.0078  2.8469
13020TIP3    H260552   1.526   2.015  12.273  0.0003 -2.3322  0.6329
13021TIP3   OH260553   3.250   5.045  11.408  0.0439  0.2007 -0.5453
13021TIP3    H160554   3.260   5.067  11.315 -0.8513 -0.3765 -0.7995
13021TIP3    H260555   3.160   5.013  11.414  0.7257 -1.7281  0.1225
13022TIP3   OH260556   5.467   6.658   0.344 -0.0257 -0.1784 -0.1234
13022TIP3    H160557   5.545   6.689   0.297 -0.9166  4.9390  1.0846
13022TIP3    H260558   5.503   6.615   0.422  1.6544  1.2354 -0.0395
13023TIP3   OH260559   0.973   0.925  13.408 -0.7435  0.1265 -0.6695
13023TIP3    H160560   0.902   0.932  13.472  0.3545  0.0400  0.6018
13023TIP3    H260561   0.989   0.831  13.400 -0.1121  0.1807 -0.1681
13024TIP3   OH260562   2.134   0.153   4.779  0.5985  0.3823  0.2887
13024TIP3    H160563   2.074   0.082   4.756 -0.0839  1.2550 -0.6969
13024TIP3    H260564   2.111   0.174   4.870 -0.9768  1.0323 -0.2167
13025TIP3   OH260565   1.839   4.199  11.815 -0.6643  0.6371 -0.6623
13025TIP3    H160566   1.869   4.244  11.737  1.5845 -0.0466 -0.2595
13025TIP3    H260567   1.919   4.171  11.859 -1.8680  0.5570  1.6335
13026TIP3   OH260568   3.886   1.421   5.060  0.1645 -0.1047  0.6119
13026TIP3    H160569   3.980   1.401   5.068  0.3010  0.4205  0.3661
13026TIP3    H260570   3.882   1.487   4.991 -0.2958  0.5817  1.2870
13027TIP3   OH260571   3.065   0.603  15.816 -1.0330  0.2381 -0.0072
13027TIP3    H160572   3.121   0.647  15.753  0.3366 -0.6269  0.5509
13027TIP3    H260573   3.126   0.570  15.883 -1.8986 -2.6411 -0.4935
13028TIP3   OH260574   5.484   5.421  17.123 -0.1993 -0.2964  0.2359
13028TIP3    H160575   5.490   5.343  17.068 -0.4501  0.8187 -1.4769
13028TIP3    H260576   5.553   5.478  17.090 -1.2710  0.9694  0.0856
13029TIP3   OH260577   0.063   0.343  11.008 -0.2453  0.4034 -0.0493
13029TIP3    H160578  -0.016   0.393  10.987  0.5137  1.0397 -1.5117
13029TIP3    H260579   0.074   0.353  11.102 -1.5717  0.7969  0.0767
13030TIP3   OH260580   5.864   6.826  16.431  0.1848 -0.0507 -0.5387
13030TIP3    H160581   5.869   6.921  16.422  1.4900 -0.1415 -0.9472
13030TIP3    H260582   5.811   6.797  16.357  0.2232  0.3101 -0.7072
13031TIP3   OH260583   0.450   3.375  11.356  0.0097 -0.1710 -0.1951
13031TIP3    H160584   0.440   3.374  11.451  0.1192  0.0277 -0.1809
13031TIP3    H260585   0.418   3.289  11.328 -0.2778 -0.1263 -0.0059
13032TIP3   OH260586   5.617   0.770  16.626  0.0466 -0.2974 -0.1997
13032TIP3    H160587   5.629   0.847  16.682  0.9110 -0.8977  0.4569
13032TIP3    H260588   5.704   0.731  16.619 -0.2163 -0.7225 -1.2654
13033TIP3   OH260589   3.916   3.365  12.730 -0.2719 -0.0240  0.0889
13033TIP3    H160590   3.925   3.382  12.636 -2.3742 -0.6040 -0.2515
13033TIP3    H260591   3.909   3.270  12.737  0.0478  0.0005  0.8579
13034TIP3   OH260592   4.072   6.225   2.270 -0.0781  0.3292 -0.5884
13034TIP3    H160593   4.017   6.233   2.192 -1.6139  0.0281  0.4291
13034TIP3    H260594   4.103   6.135   2.268 -0.0275  0.3510 -0.8962
13035TIP3   OH260595   3.578   4.864  11.489  0.0555  0.3979 -0.1375
13035TIP3    H160596   3.635   4.893  11.417  0.3624 -0.2468 -0.1575
13035TIP3    H260597   3.496   4.839  11.445  0.0367  0.5482 -0.1929
13036TIP3   OH260598   2.265   0.472   0.138  0.2778 -0.3433  0.2916
13036TIP3    H160599   2.304   0.551   0.175  0.4981 -0.4762  0.3502
13036TIP3    H260600   2.173   0.494   0.125  0.5821  0.3344 -0.8604
13037TIP3   OH260601   0.545   1.702   5.338 -0.2361  0.6386  0.5989
13037TIP3    H160602   0.556   1.623   5.284 -3.2041 -1.3754  2.6043
13037TIP3    H260603   0.497   1.763   5.281 -1.9239 -0.8351  0.3332
13038TIP3   OH260604   1.688   3.909   0.290 -0.4878 -0.3290  0.1136
13038TIP3    H160605   1.653   3.961   0.218  0.5906 -0.3188 -0.4206
13038TIP3    H260606   1.770   3.873   0.257  0.4985  0.4138  1.6157
13039TIP3   OH260607   5.177   0.357   4.165  0.4000  0.1019  0.9162
13039TIP3    H160608   5.157   0.292   4.098 -1.0826  1.7617 -0.3352
13039TIP3    H260609   5.210   0.433   4.117  1.6630  0.4787  2.3003
13040TIP3   OH260610   0.545   3.161   2.009  0.0391 -0.0587  0.4459
13040TIP3    H160611   0.450   3.163   2.020  0.0147 -0.2373  0.2670
13040TIP3    H260612   0.559   3.152   1.915  0.2346  0.0554  0.4633
13041TIP3   OH260613   1.746   4.882  12.417 -0.0980 -0.0285 -0.4158
13041TIP3    H160614   1.721   4.928  12.337 -2.1061 -0.8317 -0.3011
13041TIP3    H260615   1.840   4.899  12.426 -0.0565  1.0093 -2.3144
13042TIP3   OH260616   1.899   3.182   0.926  0.2436 -0.0391  0.4078
13042TIP3    H160617   1.857   3.121   0.987  0.0187 -2.0890 -1.6536
13042TIP3    H260618   1.978   3.136   0.898  0.9972  1.4125  0.1003
13043TIP3   OH260619   4.028   6.681   2.395 -0.3953  0.9685  0.3779
13043TIP3    H160620   3.973   6.603   2.404  3.1601 -1.9334 -0.2606
13043TIP3    H260621   4.057   6.700   2.484 -0.0457  0.4662  0.3829
13044TIP3   OH260622   4.512   0.187  10.202  0.5809  0.0138 -0.4699
13044TIP3    H160623   4.570   0.111  10.196  1.6478  0.7114  0.5317
13044TIP3    H260624   4.435   0.155  10.248  0.0859 -0.9524 -1.9125
13045TIP3   OH260625   6.110   5.007  16.710 -0.3208  0.5200 -0.2964
13045TIP3    H160626   6.015   5.001  16.702 -0.1653 -2.0438 -1.0150
13045TIP3    H260627   6.140   5.041  16.626 -0.4927 -0.7417 -0.8884
13046TIP3   OH260628   5.630   0.628  16.338 -0.3200 -0.3088 -0.1498
13046TIP3    H160629   5.622   0.704  16.280  1.2499 -0.0929 -0.1378
13046TIP3    H260630   5.719   0.634  16.372 -0.9359 -0.8599  1.6907
13047TIP3   OH260631   1.188   6.485  12.857  0.0957 -0.0378  0.5401
13047TIP3    H160632   1.138   6.466  12.777 -1.0788  1.2100  0.9396
13047TIP3    H260633   1.180   6.580  12.868  0.1492 -0.1981  2.1909
13048TIP3   OH260634   4.359   0.490  14.793  0.2504 -0.0409  0.1369
13048TIP3    H160635   4.307   0.414  14.766 -1.1711  0.6911  0.6911
13048TIP3    H260636   4.436   0.452  14.835 -0.2983 -1.1807  0.1650
13049TIP3   OH260637   0.970   3.416  15.321  0.1547 -0.8637  0.1385
13049TIP3    H160638   0.900   3.360  15.290 -1.4605 -0.0842  2.1187
13049TIP3    H260639   1.022   3.361  15.379 -1.1330 -0.5189  1.6822
13050TIP3   OH260640   5.802   2.795   2.660 -0.1964 -0.2946  0.2949
13050TIP3    H160641   5.790   2.721   2.601 -1.9395 -0.7615  1.1537
13050TIP3    H260642   5.854   2.759   2.733  0.8559 -0.0531 -0.3116
13051TIP3   OH260643   4.941   2.089  16.370  0.3817 -0.5386  0.2860
13051TIP3    H160644   5.000   2.067  16.297 -2.5048 -2.4681 -1.7162
13051TIP3    H260645   4.868   2.134  16.328  0.0636  1.2449  2.5734
13052TIP3   OH260646   2.293   3.507  14.758  0.4704  0.2176  0.7349
13052TIP3    H160647   2.277   3.516  14.665  0.6170  1.0630  0.7828
13052TIP3    H260648   2.388   3.505  14.767  0.4574  0.0923  0.8626
13053TIP3   OH260649   4.489   3.697  15.442  0.4390 -0.0995 -0.5237
13053TIP3    H160650   4.523   3.729  15.358 -1.9853  1.3551 -1.0344
13053TIP3    H260651   4.475   3.603  15.428  2.7189 -0.4698 -0.7443
13054TIP3   OH260652   3.722   4.889  16.579  0.0502  0.1351 -0.0228
13054TIP3    H160653   3.817   4.898  16.573  0.0610 -0.1005 -0.2225
13054TIP3    H260654   3.688   4.954  16.517  0.1124 -0.6829 -0.9330
13055TIP3   OH260655   0.747   1.737  13.725  0.2516  0.1855 -0.5931
13055TIP3    H160656   0.733   1.706  13.814  0.4773  1.9554  0.1138
13055TIP3    H260657   0.805   1.813  13.735  0.7857  0.0531 -2.3136
13056TIP3   OH260658   2.006   2.677  11.105 -0.2682 -0.4850  0.2903
13056TIP3    H160659   1.927   2.676  11.159  1.0009  0.0338  2.2909
13056TIP3    H260660   2.045   2.763  11.120  0.7727 -0.8020 -0.4697
13057TIP3   OH260661   1.624   1.727  12.122 -0.0657 -0.2767  0.7022
13057TIP3    H160662   1.644   1.810  12.166 -0.2284  0.3164 -0.3007
13057TIP3    H260663   1.539   1.701  12.156 -0.1560  0.1327  0.7934
13058TIP3   OH260664   5.018   5.667  15.604 -0.0930  0.0866  0.7894
13058TIP3    H160665   5.065   5.649  15.686 -0.2186 -0.6334  0.7113
13058TIP3    H260666   5.076   5.725  15.556 -0.2877  1.0124  1.6412
13059TIP3   OH260667   2.819   2.846  15.587  0.3652 -0.4009  0.5539
13059TIP3    H160668   2.730   2.863  15.555 -0.0857 -0.8666  1.5243
13059TIP3    H260669   2.846   2.929  15.627  0.7311  0.0218 -0.5286
13060TIP3   OH260670   1.066   3.962   0.303 -0.6863 -0.1380 -0.0478
13060TIP3    H160671   1.037   4.004   0.222 -0.4903 -1.3652 -0.7716
13060TIP3    H260672   1.051   3.869   0.289  1.8488 -0.6584  0.2808
13061TIP3   OH260673   2.135   1.037  13.195 -0.1844  0.1817 -0.0293
13061TIP3    H160674   2.188   1.048  13.275  0.0883 -3.8470  0.5664
13061TIP3    H260675   2.047   1.020  13.227 -0.5492  0.7743 -0.7113
13062TIP3   OH260676   2.539   1.026  14.193  0.0322  0.5507 -0.3201
13062TIP3    H160677   2.586   1.088  14.137 -0.8742  1.4933 -0.0691
13062TIP3    H260678   2.595   0.949  14.196  1.9397  1.9052  0.5898
13063TIP3   OH260679   5.018   0.794   5.302  0.1260  0.2764 -0.0026
13063TIP3    H160680   4.993   0.703   5.320  0.2549  0.2885  0.2314
13063TIP3    H260681   4.961   0.819   5.229 -2.2763  1.0735  2.0052
13064TIP3   OH260682   4.106   2.348  15.954  0.0020 -0.2572  0.4592
13064TIP3    H160683   4.197   2.322  15.969  0.2017 -0.6442 -1.1376
13064TIP3    H260684   4.055   2.270  15.977  0.1111 -0.1872  0.9418
13065TIP3   OH260685   2.535   1.155   0.081 -0.1849 -0.3474 -0.2932
13065TIP3    H160686   2.543   1.181  -0.011 -0.9932  0.4055 -0.1647
13065TIP3    H260687   2.623   1.127   0.106  1.1136  3.3096 -0.1499
13066TIP3   OH260688   6.706   3.102  10.958  0.3970 -0.4001 -0.8951
13066TIP3    H160689   6.662   3.017  10.962 -1.1172  0.3982  1.1974
13066TIP3    H260690   6.647   3.158  10.907 -1.0324  0.5615  1.5859
13067TIP3   OH260691   6.545   2.429   4.804  0.1945 -0.5358  0.0184
13067TIP3    H160692   6.532   2.335   4.814  1.0372 -0.7431 -0.7016
13067TIP3    H260693   6.578   2.458   4.889 -0.7020 -0.7608  0.4577
13068TIP3   OH260694   3.365   4.181   0.620 -0.4585  0.0320 -0.0086
13068TIP3    H160695   3.308   4.229   0.680 -0.5491 -0.8347  0.6115
13068TIP3    H260696   3.309   4.161   0.545 -0.6541  0.1657  0.1011
13069TIP3   OH260697   1.986   1.222   3.995 -0.2147  0.4239 -0.5367
13069TIP3    H160698   1.929   1.289   4.031  0.6508  1.2424 -0.6677
13069TIP3    H260699   2.059   1.270   3.957  0.7591 -0.6145 -0.0394
13070TIP3   OH260700   1.170   2.049  11.797 -0.5025 -0.5156  0.2787
13070TIP3    H160701   1.108   2.101  11.848 -0.2259 -0.5411  0.6484
13070TIP3    H260702   1.124   1.968  11.778 -0.9730 -0.1063 -0.3813
13071TIP3   OH260703   4.118   2.128   2.628  0.4112 -0.0588  0.1054
13071TIP3    H160704   4.164   2.059   2.676 -0.2586  0.4154  1.4654
13071TIP3    H260705   4.153   2.209   2.664  1.9701  0.3966 -2.2175
13072TIP3   OH260706   5.654   6.280   6.733 -0.5571 -0.8449  0.0336
13072TIP3    H160707   5.599   6.217   6.686  0.1503 -1.0931 -0.4676
13072TIP3    H260708   5.591   6.341   6.772 -1.1663 -0.7103 -1.1070
13073TIP3   OH260709   1.742   0.760   3.459  0.2485  0.5441 -0.3284
13073TIP3    H160710   1.837   0.777   3.455  0.2411  0.4562 -0.9390
13073TIP3    H260711   1.704   0.828   3.404  0.0411 -0.0614 -0.9465
13074TIP3   OH260712   4.020   0.485   1.085  0.2853 -0.1203  0.7562
13074TIP3    H160713   4.093   0.423   1.082 -0.5430 -1.1231 -2.4994
13074TIP3    H260714   4.056   0.566   1.050  0.2276 -0.1777  0.5603
13075TIP3   OH260715   2.168   3.889  12.991  0.2881  0.9445 -0.1080
13075TIP3    H160716   2.109   3.893  12.915  1.3887  1.0642 -0.9906
13075TIP3    H260717   2.112   3.860  13.063 -0.7792  0.7393 -0.9811
13076TIP3   OH260718   5.360   1.032  13.517 -0.6275 -0.4406 -0.1380
13076TIP3    H160719   5.304   1.005  13.590  0.0686 -0.5169  0.3855
13076TIP3    H260720   5.300   1.049  13.445 -1.1806 -3.3310 -0.5060
13077TIP3   OH260721   3.863   4.554  13.000 -0.2512  0.8002  0.4976
13077TIP3    H160722   3.924   4.594  13.062 -0.4581  0.3643  0.9930
13077TIP3    H260723   3.859   4.462  13.026  0.2643  0.4372 -0.6644
13078TIP3   OH260724   5.090   1.160   0.884 -0.5655  0.8438 -0.0116
13078TIP3    H160725   5.172   1.195   0.849 -1.3024  2.4293 -0.2524
13078TIP3    H260726   5.066   1.221   0.954 -0.2119 -1.0872  1.9281
13079TIP3   OH260727   4.618   5.568   1.872  0.0508  0.2719 -0.2592
13079TIP3    H160728   4.635   5.644   1.927  1.0185 -0.6630  0.8015
13079TIP3    H260729   4.698   5.557   1.821 -0.0762 -0.0480 -0.3915
13080TIP3   OH260730   6.450   0.035   0.330 -0.1122  0.1750 -0.3877
13080TIP3    H160731   6.524   0.095   0.341  0.4209  0.1397 -3.1381
13080TIP3    H260732   6.485  -0.038   0.279 -1.7879 -0.3806 -0.8088
13081TIP3   OH260733   4.102   2.361   6.395 -0.0103 -0.1503 -0.0263
13081TIP3    H160734   4.078   2.299   6.463 -2.7356  2.8307  2.0847
13081TIP3    H260735   4.184   2.400   6.425 -1.0898  1.0001  1.6489
13082TIP3   OH260736   2.210   0.530  12.257  0.7337 -0.6162 -0.1675
13082TIP3    H160737   2.230   0.590  12.329  1.9374 -0.7943 -0.3339
13082TIP3    H260738   2.221   0.443  12.294 -2.2240 -0.8378  0.4261
13083TIP3   OH260739   1.904   6.522  11.083  0.6608  0.1661 -0.1193
13083TIP3    H160740   1.840   6.587  11.054  0.9229 -0.1635 -1.5141
13083TIP3    H260741   1.988   6.555  11.050  1.4493  1.1286  2.5452
13084TIP3   OH260742   3.113   2.735  12.141  0.7143 -0.4653 -0.2676
13084TIP3    H160743   3.027   2.776  12.127 -0.5119 -3.4417 -2.5409
13084TIP3    H260744   3.107   2.698  12.229  0.0349  0.0776 -0.0679
13085TIP3   OH260745   5.600   6.170  17.166  0.4312  0.0629  0.1124
13085TIP3    H160746   5.559   6.090  17.133 -0.2998  0.0683  0.9781
13085TIP3    H260747   5.527   6.222  17.200  1.2167 -0.4700  2.8361
13086TIP3   OH260748   1.404   3.000   1.798 -0.0512 -1.2203 -0.1810
13086TIP3    H160749   1.424   2.925   1.855  1.4352 -0.3662  0.4589
13086TIP3    H260750   1.449   3.074   1.838 -1.4256  0.0356 -0.8529
13087TIP3   OH260751   2.726   6.685  16.511  0.4231  0.0891 -0.1592
13087TIP3    H160752   2.815   6.719  16.515 -0.2100  1.8250  0.3144
13087TIP3    H260753   2.677   6.740  16.571 -0.7190 -1.7339  0.6766
13088TIP3   OH260754   5.549   0.003  12.571  0.0738 -0.0417  0.0329
13088TIP3    H160755   5.507   0.038  12.650 -1.6405 -2.8734  0.5165
13088TIP3    H260756   5.554  -0.092  12.587 -0.2308 -0.6950 -3.1831
13089TIP3   OH260757   6.479   2.688   5.441 -0.1642  0.1577  0.1984
13089TIP3    H160758   6.479   2.649   5.354  2.2421 -0.7161  0.4995
13089TIP3    H260759   6.538   2.763   5.433 -0.3014  0.3488  0.9448
13090TIP3   OH260760   2.718   4.502  16.896  0.2014  0.0463 -0.1076
13090TIP3    H160761   2.710   4.458  16.981  2.4421  1.3756  0.8825
13090TIP3    H260762   2.751   4.589  16.917  0.5229  0.5114 -2.3326
13091TIP3   OH260763   4.392   2.024   0.488 -0.0379  0.4492  0.1022
13091TIP3    H160764   4.432   2.106   0.460 -0.2784  0.6588  0.3641
13091TIP3    H260765   4.359   2.042   0.576  0.1170 -0.0001  0.2545
13092TIP3   OH260766   6.354   0.747   2.829  0.3218  0.3923 -0.1446
13092TIP3    H160767   6.289   0.769   2.896 -0.3605 -0.5476 -0.4748
13092TIP3    H260768   6.435   0.735   2.877 -0.0270  0.3204  0.4367
13093TIP3   OH260769   4.342   6.501  11.885  0.0267  0.1466 -0.0990
13093TIP3    H160770   4.250   6.503  11.913  0.6088 -0.1855  1.9730
13093TIP3    H260771   4.340   6.459  11.799 -1.7284 -0.1124  0.0329
13094TIP3   OH260772   3.748   3.227   4.384 -0.3266  0.3121  0.2641
13094TIP3    H160773   3.832   3.211   4.339 -0.5757  2.6215 -1.2069
13094TIP3    H260774   3.770   3.292   4.451 -0.9044  0.9565 -0.1560
13095TIP3   OH260775   5.470   2.250   0.414 -0.1706  0.1452  0.5311
13095TIP3    H160776   5.388   2.224   0.456  1.5894 -1.5870  3.1995
13095TIP3    H260777   5.462   2.345   0.404 -2.4882  0.0193  0.6467
13096TIP3   OH260778   3.882   0.607   3.822  0.1899  0.6656 -0.2697
13096TIP3    H160779   3.857   0.570   3.737 -0.3858 -0.4176  0.3431
13096TIP3    H260780   3.855   0.541   3.886  0.1990  1.6575  0.8005
13097TIP3   OH260781   3.359   1.904   4.555 -0.2860 -0.6551  0.4828
13097TIP3    H160782   3.274   1.861   4.567 -0.1165 -1.4523 -1.0254
13097TIP3    H260783   3.363   1.924   4.462 -1.1625  4.4403  1.2099
13098TIP3   OH260784   4.192   6.546   5.269  0.5768 -0.0308 -0.4634
13098TIP3    H160785   4.150   6.606   5.330 -1.7924 -0.4458 -1.5735
13098TIP3    H260786   4.279   6.583   5.254  0.3501  1.3423  1.3101
13099TIP3   OH260787   5.029   0.641   2.388 -0.0706  0.2183  0.1376
13099TIP3    H160788   4.985   0.724   2.409  1.4639  0.9832  0.5222
13099TIP3    H260789   5.068   0.656   2.301 -2.8749 -1.4653 -1.5647
13100TIP3   OH260790   2.005   3.794   0.285  0.4969 -0.5140 -0.1101
13100TIP3    H160791   2.027   3.800   0.378 -0.6065 -0.0743  0.1268
13100TIP3    H260792   2.030   3.878   0.249  0.7422 -0.6143 -0.1768
13101TIP3   OH260793   5.875   1.553  14.937  0.1035  0.0571 -0.5227
13101TIP3    H160794   5.862   1.645  14.958 -1.3071 -0.0637 -0.7754
13101TIP3    H260795   5.894   1.511  15.022 -1.1166  0.2929 -0.1123
13102TIP3   OH260796   0.952   1.273   0.787  0.2939 -0.0944 -0.1174
13102TIP3    H160797   1.001   1.249   0.865  0.5001 -0.0428 -0.2303
13102TIP3    H260798   0.875   1.216   0.788  0.1653  0.0841  0.2556
13103TIP3   OH260799   3.237   4.400  11.653 -0.1547 -0.3255 -0.4440
13103TIP3    H160800   3.214   4.385  11.745 -0.3773  1.0952 -0.2463
13103TIP3    H260801   3.162   4.449  11.618  0.2611 -0.2105 -1.1812
13104TIP3   OH260802   2.682   6.486  13.510  0.0415  0.3155 -0.0395
13104TIP3    H160803   2.600   6.441  13.533  0.1251  0.5705  0.7733
13104TIP3    H260804   2.665   6.578  13.531  0.2030  0.5221 -0.7949
13105TIP3   OH260805   3.673   1.170   1.284 -0.8433 -0.3383 -0.3433
13105TIP3    H160806   3.630   1.148   1.201 -2.9000  3.2770 -0.4182
13105TIP3    H260807   3.766   1.169   1.264 -1.1970 -1.3059 -2.1632
13106TIP3   OH260808   5.391   4.360   4.160  0.6781  0.5630 -0.2264
13106TIP3    H160809   5.331   4.432   4.181  1.0434  0.5137  1.0770
13106TIP3    H260810   5.473   4.384   4.204  1.3721  0.2272 -1.2935
13107TIP3   OH260811   3.493   1.312   6.212  0.0411  0.1831 -0.7935
13107TIP3    H160812   3.508   1.385   6.272 -0.0325  0.4492 -1.0962
13107TIP3    H260813   3.564   1.250   6.232  0.1421  0.3643 -0.5812
13108TIP3   OH260814   0.710   1.917  14.011  0.4298 -0.0793  0.3495
13108TIP3    H160815   0.743   1.828  14.016  0.0545 -0.2576 -0.3496
13108TIP3    H260816   0.697   1.942  14.103  0.4916 -0.7564  0.5490
13109TIP3   OH260817   5.075   4.475  14.677  0.0995 -0.4307  0.4450
13109TIP3    H160818   5.058   4.504  14.587 -0.2637 -0.6262  0.4469
13109TIP3    H260819   5.166   4.445  14.675  0.5883  1.0059  0.5336
13110TIP3   OH260820   2.556   0.934  15.987 -0.0515 -0.1732 -0.2781
13110TIP3    H160821   2.610   0.905  15.914  2.0322  0.1763  1.0572
13110TIP3    H260822   2.535   0.854  16.035  0.8566 -0.1236  0.2177
13111TIP3   OH260823   4.579   4.715  11.845 -0.4104  0.2717  0.6694
13111TIP3    H160824   4.595   4.648  11.778 -1.4609  0.2007  0.4858
13111TIP3    H260825   4.503   4.763  11.814 -0.6099  0.5595  1.5787
13112TIP3   OH260826   5.261   1.387   0.044  0.5718  0.0248  0.0599
13112TIP3    H160827   5.286   1.368  -0.046  0.4067  0.1481 -0.0123
13112TIP3    H260828   5.319   1.332   0.097  2.1340  1.4872 -0.0328
13113TIP3   OH260829   5.001   0.949   0.488 -0.4650 -0.0128 -0.3194
13113TIP3    H160830   4.999   0.916   0.578  2.1951  0.8602  0.1498
13113TIP3    H260831   5.030   1.040   0.497  0.9591 -0.2550 -2.1224
13114TIP3   OH260832   4.129   6.286   5.882 -0.3215  0.0298  0.3130
13114TIP3    H160833   4.161   6.220   5.943 -0.8765  0.6564  1.3034
13114TIP3    H260834   4.035   6.291   5.899 -0.5204  0.1149 -0.7084
13115TIP3   OH260835   0.614   1.836   1.583 -1.0463  0.0017  0.1333
13115TIP3    H160836   0.540   1.775   1.583 -0.9335 -0.1695 -1.3463
13115TIP3    H260837   0.574   1.922   1.574 -1.1744  0.1452  1.7194
13116TIP3   OH260838   0.854   3.024   4.955  0.1487 -0.3568  0.2022
13116TIP3    H160839   0.910   3.101   4.969  0.3925 -0.0711 -1.9280
13116TIP3    H260840   0.771   3.061   4.925 -0.4205 -0.8800  1.0938
13117TIP3   OH260841   3.084   3.639  15.810 -0.4983  0.4301 -0.0546
13117TIP3    H160842   3.094   3.731  15.835  0.6566  0.2756  0.1066
13117TIP3    H260843   2.996   3.635  15.771 -1.6355  1.0612  2.2332
13118TIP3   OH260844   4.290   5.099  15.478 -0.0035  0.1177  0.6481
13118TIP3    H160845   4.234   5.021  15.484 -2.7143  2.0037  1.9065
13118TIP3    H260846   4.285   5.125  15.386 -1.0930  0.1234  0.6914
13119TIP3   OH260847   2.492   4.941  15.630  0.3178 -0.0681  0.5301
13119TIP3    H160848   2.398   4.947  15.615  0.5095  1.4871 -0.2609
13119TIP3    H260849   2.511   4.847  15.632 -1.5369 -0.4733  2.7447
13120TIP3   OH260850   3.848   5.571  14.962  0.0299 -0.7274  0.0593
13120TIP3    H160851   3.754   5.588  14.951 -0.0325 -1.1838 -0.0981
13120TIP3    H260852   3.864   5.490  14.915  0.9197  0.4413 -1.7730
13121TIP3   OH260853   3.264   2.585  12.773  0.1420 -0.1992 -0.3045
13121TIP3    H160854   3.203   2.633  12.717 -0.0890 -1.6895 -1.3859
13121TIP3    H260855   3.315   2.532  12.712  2.1019  0.5100  0.6284
13122TIP3   OH260856   5.826   0.825  17.120  0.2695  0.3915 -0.3346
13122TIP3    H160857   5.774   0.747  17.103 -0.6294  1.2826 -1.8519
13122TIP3    H260858   5.914   0.803  17.090 -0.1229  0.1682 -1.3388
13123TIP3   OH260859   5.611   1.191  15.227  0.4817  0.2453  0.0085
13123TIP3    H160860   5.517   1.196  15.243  0.3819 -0.3657 -0.3427
13123TIP3    H260861   5.651   1.221  15.308 -0.0114  1.9031 -0.3171
13124TIP3   OH260862   3.780   0.920   1.478  0.2876  0.2721 -0.3993
13124TIP3    H160863   3.870   0.955   1.472  0.7571 -0.7572  0.2991
13124TIP3    H260864   3.755   0.903   1.388  2.9758 -4.6595 -0.5935
13125TIP3   OH260865   6.813   0.299  12.076 -0.0300  0.1120  0.5454
13125TIP3    H160866   6.830   0.256  12.160  0.9227 -1.2721 -0.3030
13125TIP3    H260867   6.898   0.335  12.050  0.0886 -0.9014 -0.5601
13126TIP3   OH260868   4.706   4.701  13.408 -0.9477 -0.2143  0.1039
13126TIP3    H160869   4.654   4.769  13.365  1.0187  0.1888 -1.8436
13126TIP3    H260870   4.761   4.750  13.471 -0.9986 -0.2811  0.2004
13127TIP3   OH260871   5.904   6.419   3.613 -0.0561 -0.3234  0.2454
13127TIP3    H160872   5.891   6.330   3.582 -2.0266  0.0785 -0.1718
13127TIP3    H260873   5.961   6.410   3.689 -1.4645 -2.1124  1.1491
13128TIP3   OH260874   5.602   6.299   1.904  0.1056  0.1113  0.6612
13128TIP3    H160875   5.568   6.265   1.821 -0.5226 -0.3391  1.0922
13128TIP3    H260876   5.696   6.310   1.888 -0.2559  1.7527 -0.6706
13129TIP3   OH260877   0.610   3.354  13.238 -0.8725 -0.4887  0.4240
13129TIP3    H160878   0.517   3.365  13.223 -0.7136 -0.5189 -0.6834
13129TIP3    H260879   0.649   3.358  13.151  0.0234 -1.7320  0.7318
13130TIP3   OH260880   1.314   5.984   0.801 -0.5520 -0.1376  0.0078
13130TIP3    H160881   1.390   5.934   0.773  1.6729  2.4185  0.9748
13130TIP3    H260882   1.301   5.960   0.893 -1.4756 -1.1784 -0.3823
13131TIP3   OH260883   4.736   0.819  11.507 -0.1526 -0.3144  0.2474
13131TIP3    H160884   4.756   0.811  11.600 -0.7034  0.9032  0.4862
13131TIP3    H260885   4.641   0.824  11.504 -0.2248 -1.6359 -0.5085
13132TIP3   OH260886   0.933   2.221   5.700  0.2594 -0.3184  0.0564
13132TIP3    H160887   0.886   2.302   5.681 -0.2120 -0.8902 -1.3750
13132TIP3    H260888   0.864   2.156   5.716  0.6248 -0.4962  0.9512
13133TIP3   OH260889   4.832   3.452   2.906 -0.7619  0.5786  0.9381
13133TIP3    H160890   4.915   3.450   2.955 -0.1962 -0.7888 -0.0378
13133TIP3    H260891   4.851   3.504   2.828 -0.3473 -1.0456 -0.0722
13134TIP3   OH260892   6.725   0.427  12.431 -0.2187 -0.3829 -0.2591
13134TIP3    H160893   6.630   0.432  12.436 -0.3020 -2.0601  0.8934
13134TIP3    H260894   6.742   0.360  12.364  0.1449 -0.2537 -0.3002
13135TIP3   OH260895   1.430   0.060  13.311  0.1151  0.3293 -0.6393
13135TIP3    H160896   1.363   0.038  13.247 -0.7167 -0.0904  0.3510
13135TIP3    H260897   1.382   0.073  13.393  1.0211  1.9452 -0.3168
13136TIP3   OH260898   0.081   0.949  16.451  0.6223  0.2747 -0.3297
13136TIP3    H160899   0.124   0.866  16.475  2.2202  0.4538 -2.3097
13136TIP3    H260900   0.029   0.972  16.528 -2.8997 -4.3715 -0.9280
13137TIP3   OH260901   6.817   0.228  13.082  0.5387 -0.4814  0.1015
13137TIP3    H160902   6.820   0.169  13.007 -0.1253  0.0267 -0.3296
13137TIP3    H260903   6.872   0.302  13.057 -0.2248  0.0033 -0.1652
13138TIP3   OH260904   6.592   0.445  14.833  0.3396 -0.2433 -0.0317
13138TIP3    H160905   6.525   0.469  14.768  0.5840 -0.3277 -0.3164
13138TIP3    H260906   6.567   0.494  14.912 -0.5631 -0.9492  0.1407
13139TIP3   OH260907   2.169   2.885   2.190  0.1495  0.2957 -0.2776
13139TIP3    H160908   2.264   2.883   2.182  0.0803  0.8164 -1.5705
13139TIP3    H260909   2.145   2.795   2.212  0.9519  0.2414  0.4505
13140TIP3   OH260910   2.291   2.545   0.190  0.2172 -0.4483 -0.1136
13140TIP3    H160911   2.292   2.470   0.129  1.4367 -0.8575  0.3903
13140TIP3    H260912   2.364   2.600   0.161  1.2725 -1.0061  1.3891
13141TIP3   OH260913   4.343   0.763   4.845 -0.7096  0.6922 -0.4273
13141TIP3    H160914   4.263   0.815   4.837 -0.0975  1.5163 -1.2937
13141TIP3    H260915   4.413   0.828   4.852 -0.0643 -0.0248 -0.1190
13142TIP3   OH260916   2.267   4.307   3.054  0.6389  0.0781  0.3287
13142TIP3    H160917   2.204   4.376   3.074  2.7282  1.5120  2.6424
13142TIP3    H260918   2.289   4.269   3.139  1.8112 -1.3354 -0.5587
13143TIP3   OH260919   1.695   5.691  13.742 -0.3381 -0.1352  0.2889
13143TIP3    H160920   1.690   5.665  13.650  0.7843 -0.6568  0.3582
13143TIP3    H260921   1.696   5.787  13.740 -0.8307 -0.1310 -0.1959
13144TIP3   OH260922   0.803   4.998   4.204  0.3740 -0.0033 -0.9467
13144TIP3    H160923   0.806   5.077   4.150  0.3259  0.4222 -0.3393
13144TIP3    H260924   0.849   4.932   4.152  1.1082  0.6294 -1.1262
13145TIP3   OH260925   2.237   3.886   2.334 -0.0415 -0.1868 -0.0121
13145TIP3    H160926   2.321   3.840   2.328  0.5194  0.9440 -1.3883
13145TIP3    H260927   2.255   3.964   2.386  0.3449  1.1646 -2.0465
13146TIP3   OH260928   0.139   6.691   6.136  0.0064  0.1173 -0.3654
13146TIP3    H160929   0.052   6.675   6.171  0.3259 -0.1108  0.3400
13146TIP3    H260930   0.136   6.781   6.104 -0.3162  0.3015  0.1706
13147TIP3   OH260931   1.828   4.294  16.337  0.5403 -0.6909  0.4388
13147TIP3    H160932   1.869   4.223  16.288  0.8614  1.1910 -2.2816
13147TIP3    H260933   1.735   4.273  16.335  0.6740 -1.2812  0.0767
13148TIP3   OH260934   3.080   3.185   5.648  0.3878 -1.0257 -0.1622
13148TIP3    H160935   3.108   3.173   5.557 -0.2523 -1.7787 -0.2763
13148TIP3    H260936   3.137   3.254   5.682  2.0054 -2.1048 -0.5405
13149TIP3   OH260937   4.076   1.660   2.162 -0.2154  0.5210  0.2568
13149TIP3    H160938   4.128   1.580   2.153 -0.6666 -0.0069  1.9653
13149TIP3    H260939   4.029   1.668   2.079 -0.1611 -0.9924  0.0549
13150TIP3   OH260940   0.062   4.586  12.960  0.9532 -0.2148  0.1040
13150TIP3    H160941   0.084   4.531  13.035 -0.1223 -0.2192  0.4309
13150TIP3    H260942  -0.012   4.639  12.990 -0.4916 -1.2612 -1.4110
13151TIP3   OH260943   6.266   5.444   0.113  0.3524 -0.1474  0.7509
13151TIP3    H160944   6.309   5.459   0.197 -1.0174  1.3928  1.2247
13151TIP3    H260945   6.248   5.350   0.112  2.2473 -0.5532  1.2214
13152TIP3   OH260946   2.925   0.659  13.133  0.7359  0.0178 -0.0936
13152TIP3    H160947   2.860   0.602  13.172  1.1053 -2.4246 -2.7462
13152TIP3    H260948   2.875   0.726  13.087  0.0330 -1.3461 -1.3998
13153TIP3   OH260949   6.295   2.871  13.450  0.1872 -0.2440 -0.2274
13153TIP3    H160950   6.368   2.923  13.483 -0.2084  0.8320 -0.9856
13153TIP3    H260951   6.336   2.798  13.404  0.7972  0.5102 -0.9042
13154TIP3   OH260952   4.169   3.291   4.100 -0.1408  0.3486  0.8253
13154TIP3    H160953   4.228   3.328   4.166 -0.4101  0.1229  1.1965
13154TIP3    H260954   4.179   3.348   4.024  1.8159 -0.6179  0.2931
13155TIP3   OH260955   3.384   4.721   5.130 -0.1889 -0.2301 -0.8541
13155TIP3    H160956   3.460   4.707   5.186 -0.1027  0.0335 -0.9010
13155TIP3    H260957   3.310   4.730   5.190 -0.4932 -2.2260 -0.8549
13156TIP3   OH260958   5.408   3.296   0.270 -0.8686 -0.5775 -0.1831
13156TIP3    H160959   5.469   3.222   0.273 -1.2524 -0.9213 -0.7001
13156TIP3    H260960   5.369   3.299   0.358  0.3913  0.0856  0.3825
13157TIP3   OH260961   4.222   5.674  14.862  0.5785  0.5044  0.5925
13157TIP3    H160962   4.146   5.733  14.863  0.6240  0.5606  0.6952
13157TIP3    H260963   4.214   5.626  14.779 -0.9181 -1.2376  1.6663
13158TIP3   OH260964   3.319   4.235  15.746 -0.1836 -0.9779  0.7892
13158TIP3    H160965   3.299   4.318  15.702 -5.0871 -0.9570  2.4353
13158TIP3    H260966   3.341   4.260  15.836  1.8852 -1.4184  0.4641
13159TIP3   OH260967   0.627   5.330   0.657  0.0113 -0.4338 -0.3531
13159TIP3    H160968   0.586   5.406   0.698  0.3165 -0.5889  0.2480
13159TIP3    H260969   0.592   5.329   0.568  0.1923  0.5558 -0.4474
13160TIP3   OH260970   6.615   3.522  11.249 -0.5157  0.4324 -0.0459
13160TIP3    H160971   6.641   3.510  11.157 -0.7722 -0.5822  0.0075
13160TIP3    H260972   6.559   3.600  11.247  0.6038  1.2636 -0.5185
13161TIP3   OH260973   5.843   2.844  16.967  0.1746 -0.2465 -0.3074
13161TIP3    H160974   5.827   2.879  17.055  0.4603 -1.0397  0.0672
13161TIP3    H260975   5.758   2.850  16.923 -0.3968 -1.3936  0.5835
13162TIP3   OH260976   3.536   5.446   4.062  1.2409  0.0513 -0.8948
13162TIP3    H160977   3.593   5.378   4.098  1.1962  0.2412 -0.4632
13162TIP3    H260978   3.478   5.470   4.134 -0.3522 -1.1550 -1.7451
13163TIP3   OH260979   5.065   4.479  12.909  0.4604  0.2196 -0.0891
13163TIP3    H160980   5.105   4.425  12.840 -0.4468 -2.7997  1.5372
13163TIP3    H260981   5.137   4.496  12.970  0.8227  1.2085 -0.7630
13164TIP3   OH260982   4.835   4.922  11.219 -0.0891  0.2829 -0.3428
13164TIP3    H160983   4.878   4.928  11.304  2.1706 -1.9985 -1.2106
13164TIP3    H260984   4.791   5.006  11.208  0.4937  1.0572  2.5552
13165TIP3   OH260985   0.247   0.340  12.951  0.0862 -0.0978  0.7602
13165TIP3    H160986   0.336   0.330  12.986 -0.4654  0.9178  2.5671
13165TIP3    H260987   0.243   0.277  12.879  1.9680 -0.8280  1.2238
13166TIP3   OH260988   0.970   6.432   1.772 -0.3705 -0.0646 -0.4529
13166TIP3    H160989   0.894   6.448   1.715 -1.7603 -1.8029  0.7840
13166TIP3    H260990   0.943   6.466   1.857  0.1224 -0.9521  0.0727
13167TIP3   OH260991   2.618   3.601   1.678  0.1000 -0.1794 -0.1035
13167TIP3    H160992   2.541   3.642   1.638 -0.5939 -1.1513  0.1875
13167TIP3    H260993   2.612   3.623   1.771  0.4090  0.0896 -0.1450
13168TIP3   OH260994   5.238   4.165   4.011 -0.1036 -0.4148  0.0333
13168TIP3    H160995   5.280   4.084   3.983 -0.0371  0.2956 -2.1247
13168TIP3    H260996   5.304   4.210   4.064 -0.5589 -2.2392  2.3350
13169TIP3   OH260997   0.602   2.194   4.109  0.0993  0.2252  0.3517
13169TIP3    H160998   0.677   2.142   4.080  0.7959  1.2576  0.2551
13169TIP3    H260999   0.526   2.139   4.091  0.7643 -0.4547 -0.4397
13170TIP3   OH261000   6.114   0.836  14.095  0.5404  0.5621 -0.6529
13170TIP3    H161001   6.096   0.774  14.166 -0.0955  1.4679  0.0007
13170TIP3    H261002   6.205   0.819  14.071  1.7372  2.0648  2.2640
13171TIP3   OH261003   2.968   2.715   2.193 -0.0932 -0.5390  0.1330
13171TIP3    H161004   2.995   2.686   2.105 -0.6893  2.0632 -1.0231
13171TIP3    H261005   3.050   2.725   2.241  0.3116 -1.1851 -0.4003
13172TIP3   OH261006   2.775   1.961  15.383 -0.1008 -0.1725 -0.4371
13172TIP3    H161007   2.703   1.917  15.337  0.6502 -1.9888  0.0264
13172TIP3    H261008   2.788   1.908  15.462  1.4735  0.3559 -0.3086
13173TIP3   OH261009   1.667   4.261  15.664 -0.0822 -0.2628  0.8722
13173TIP3    H161010   1.645   4.250  15.572 -1.9947 -1.2503  1.3934
13173TIP3    H261011   1.746   4.208  15.676 -1.6242 -2.8298  0.4232
13174TIP3   OH261012   6.074   5.498   4.257  0.2089 -0.0115  0.2756
13174TIP3    H161013   6.112   5.469   4.174  1.6140 -1.0379  1.2400
13174TIP3    H261014   6.065   5.418   4.308 -1.8193  0.4215  0.7061
13175TIP3   OH261015   1.725   3.936  17.042  0.8813  0.0329 -0.2568
13175TIP3    H161016   1.712   3.953  16.949  0.3423 -0.8808 -0.3709
13175TIP3    H261017   1.803   3.881  17.046  1.3093  0.6420 -0.0990
13176TIP3   OH261018   3.912   2.084   3.760 -0.5333  0.0996 -0.0231
13176TIP3    H161019   3.824   2.055   3.737 -0.8601 -0.4787  1.8035
13176TIP3    H261020   3.927   2.048   3.847  2.1583 -1.2148 -0.9294
13177TIP3   OH261021   3.542   5.590   6.733  0.5660 -0.4734  0.2754
13177TIP3    H161022   3.539   5.663   6.796  1.7731 -0.5543  0.4649
13177TIP3    H261023   3.618   5.538   6.762  1.3258 -0.3560 -1.4116
13178TIP3   OH261024   2.229   6.803   0.513  0.0423  0.3362  0.5069
13178TIP3    H161025   2.206   6.715   0.482 -1.3063  0.7333  0.3517
13178TIP3    H261026   2.226   6.857   0.434 -0.1082  0.7206  0.7778
13179TIP3   OH261027   5.786   6.037   4.423 -0.0993 -0.3504  0.4733
13179TIP3    H161028   5.739   6.046   4.506 -0.1374 -0.2450  0.4406
13179TIP3    H261029   5.864   5.984   4.445  0.8719  1.2198  0.9686
13180TIP3   OH261030   1.505   2.626  12.996  0.6832  0.4476 -0.3164
13180TIP3    H161031   1.561   2.551  12.977  1.8825  1.4018 -0.6574
13180TIP3    H261032   1.435   2.621  12.931  0.5415 -0.5728 -0.0998
13181TIP3   OH261033   2.586   6.421   5.729  0.3676 -0.2236 -0.1050
13181TIP3    H161034   2.669   6.386   5.696  1.3232  2.6167 -0.9763
13181TIP3    H261035   2.610   6.468   5.809 -0.8067 -1.1804  0.8498
13182TIP3   OH261036   2.122   6.088  11.781  0.3320  0.0902 -0.2809
13182TIP3    H161037   2.145   6.165  11.729 -0.5280 -0.9387 -2.3178
13182TIP3    H261038   2.186   6.022  11.753 -0.3358 -0.5711 -0.2654
13183TIP3   OH261039   0.077   0.699   5.861 -0.0513  0.2382  0.0568
13183TIP3    H161040   0.076   0.605   5.881 -0.5295  0.4831  1.2267
13183TIP3    H261041   0.076   0.742   5.946 -0.3166  1.3148 -0.4761
13184TIP3   OH261042   5.554   3.304   0.997  0.0553  0.0394 -0.1716
13184TIP3    H161043   5.619   3.375   0.993 -1.4214  1.4154 -2.3104
13184TIP3    H261044   5.603   3.226   0.970  0.9901  0.9399 -1.2308
13185TIP3   OH261045   1.139   1.223   4.440  0.1840  0.3725  0.0362
13185TIP3    H161046   1.193   1.263   4.508 -0.9983  1.5159  0.3567
13185TIP3    H261047   1.107   1.142   4.479  0.5416  0.3935  0.3756
13186TIP3   OH261048   4.738   5.233  11.422  0.3506  0.3819 -0.1722
13186TIP3    H161049   4.698   5.320  11.426  0.2174  0.4525 -1.9840
13186TIP3    H261050   4.714   5.200  11.336  0.9603 -1.1918  0.2262
13187TIP3   OH261051   2.335   4.810   0.035  0.0652 -0.8131  0.1194
13187TIP3    H161052   2.404   4.786  -0.026  2.1931  2.0965  1.1347
13187TIP3    H261053   2.358   4.765   0.116  0.4280 -0.3635  0.2718
13188TIP3   OH261054   0.100   2.195   1.827  0.2299  0.1210 -0.1534
13188TIP3    H161055   0.184   2.189   1.782  1.0190 -2.8796  1.4472
13188TIP3    H261056   0.036   2.165   1.763  0.4848  1.3176 -1.0083
13189TIP3   OH261057   0.197   2.652   1.516  0.2133 -0.2671 -0.3678
13189TIP3    H161058   0.182   2.566   1.556  0.3455 -1.4707 -2.6878
13189TIP3    H261059   0.227   2.631   1.427 -1.0252  2.1780 -1.4568
13190TIP3   OH261060   5.875   0.556   4.835 -0.3323  0.0518 -0.1793
13190TIP3    H161061   5.784   0.584   4.830 -0.1561  0.8741  0.9376
13190TIP3    H261062   5.873   0.479   4.893 -0.5991 -1.4019 -2.0058
13191TIP3   OH261063   2.499   1.375  15.614  0.0526  0.0804  0.1025
13191TIP3    H161064   2.505   1.442  15.546  0.4342 -0.4080 -0.3387
13191TIP3    H261065   2.589   1.346  15.629 -0.1501 -0.5932  0.0410
13192TIP3   OH261066   6.082   4.816  14.194  0.2238 -0.2329 -0.4087
13192TIP3    H161067   6.130   4.742  14.231  0.7776  0.7357  0.8979
13192TIP3    H261068   6.080   4.881  14.264 -0.0933  1.0687 -1.5683
13193TIP3   OH261069   6.057   1.384  16.303  0.2678  0.2176 -0.2318
13193TIP3    H161070   6.092   1.393  16.391 -0.4336 -1.0497  0.2126
13193TIP3    H261071   6.105   1.310  16.265 -0.0378  0.1967 -0.5865
13194TIP3   OH261072   0.663   1.686  13.475  0.0444 -0.6342  0.3916
13194TIP3    H161073   0.688   1.705  13.565 -1.8463  0.1284  0.7904
13194TIP3    H261074   0.614   1.763  13.446  2.7314  0.2997 -2.2024
13195TIP3   OH261075   6.043   5.883   4.469  0.0010 -0.2582  0.1677
13195TIP3    H161076   6.002   5.797   4.463  0.0025 -0.3621  1.3086
13195TIP3    H261077   6.111   5.872   4.536  1.0198  0.2515 -0.7595
13196TIP3   OH261078   1.904   1.691  16.373  0.0261 -0.6208 -0.1578
13196TIP3    H161079   1.966   1.741  16.425 -0.7045  0.6089 -0.4371
13196TIP3    H261080   1.935   1.600  16.380  0.7805 -0.2882  1.2002
13197TIP3   OH261081   5.127   4.240   5.446 -0.4566  0.1403 -0.6346
13197TIP3    H161082   5.115   4.178   5.374 -2.4736  0.4596 -0.6217
13197TIP3    H261083   5.169   4.189   5.515 -1.1747 -0.9425 -0.9853
13198TIP3   OH261084   2.876   4.101   4.923  0.2591 -0.4299  0.1437
13198TIP3    H161085   2.881   4.009   4.950 -1.5606 -1.0995 -1.5171
13198TIP3    H261086   2.826   4.143   4.992  3.0162 -0.0759  2.0927
13199TIP3   OH261087   0.972   2.647   2.430  0.7851  0.2112  0.0394
13199TIP3    H161088   0.972   2.706   2.506  0.7189  2.3564 -1.5544
13199TIP3    H261089   0.885   2.608   2.431  0.3008  1.2627  0.3028
13200TIP3   OH261090   0.343   4.409  14.955  0.0321 -0.8537 -0.2212
13200TIP3    H161091   0.323   4.386  14.864 -0.0596  0.9103 -0.6884
13200TIP3    H261092   0.258   4.426  14.995  0.1817  1.0302 -0.6049
13201TIP3   OH261093   1.608   2.769  11.992 -0.3738 -0.4762 -0.2808
13201TIP3    H161094   1.635   2.681  12.018  3.7384  0.0026 -2.1276
13201TIP3    H261095   1.646   2.826  12.059 -0.7159  0.0292 -0.5119
13202TIP3   OH261096   1.191   2.596   5.170  0.2308 -0.3484 -0.2565
13202TIP3    H161097   1.282   2.620   5.189  1.1661 -3.1695 -0.6418
13202TIP3    H261098   1.192   2.572   5.077 -1.3339  1.1219 -0.6960
13203TIP3   OH261099   3.560   5.281  14.593 -0.0951  0.1578  0.1851
13203TIP3    H161100   3.593   5.191  14.594 -0.9657 -0.2563 -2.0572
13203TIP3    H261101   3.524   5.294  14.681  3.0611 -0.4309  1.6879
13204TIP3   OH261102   2.696   0.178   2.526  0.5908 -0.0175  0.3376
13204TIP3    H161103   2.602   0.192   2.526  0.6371  0.4803  1.6785
13204TIP3    H261104   2.727   0.219   2.445 -0.2110  0.9595  0.5071
13205TIP3   OH261105   2.821   2.098   0.216  0.0792  0.1641 -0.2755
13205TIP3    H161106   2.884   2.154   0.170 -0.9335  0.3266 -1.4852
13205TIP3    H261107   2.876   2.037   0.266  1.2069  0.0572 -1.6029
13206TIP3   OH261108   4.983   0.474   3.845  0.6943  0.0002  0.1239
13206TIP3    H161109   4.981   0.544   3.910  0.9100  0.0302  0.1016
13206TIP3    H261110   4.922   0.408   3.877 -1.2402  1.1725 -0.9808
13207TIP3   OH261111   5.733   3.546   1.338 -0.2168 -0.1674 -0.1680
13207TIP3    H161112   5.638   3.543   1.328 -0.3005  0.4871  0.3967
13207TIP3    H261113   5.754   3.466   1.386 -0.2775 -1.1577 -1.6967
13208TIP3   OH261114   0.176   5.688  15.673 -0.0125  1.0387  0.4636
13208TIP3    H161115   0.117   5.687  15.597 -0.0359  1.1637  0.4796
13208TIP3    H261116   0.245   5.625  15.651 -0.3961  0.5516  0.6377
13209TIP3   OH261117   2.584   6.112   0.968  0.1265 -0.2975  0.0805
13209TIP3    H161118   2.632   6.035   0.938 -0.4219 -0.6040 -0.0275
13209TIP3    H261119   2.636   6.187   0.937  1.8502 -0.5864  2.0659
13210TIP3   OH261120   1.965   0.767   0.800 -0.6172  0.3690  0.5926
13210TIP3    H161121   1.984   0.731   0.886 -1.4375  0.7830  0.9598
13210TIP3    H261122   2.037   0.827   0.782  0.9459 -1.6025 -0.1661
13211TIP3   OH261123   1.421   4.521   2.315 -0.2119  0.3315  0.2066
13211TIP3    H161124   1.425   4.546   2.407  1.2751 -1.7832  0.8147
13211TIP3    H261125   1.398   4.428   2.316  3.1803 -0.7090 -1.2498
13212TIP3   OH261126   2.449   2.020   5.023  0.2048 -0.0603 -0.2679
13212TIP3    H161127   2.461   2.036   5.117 -1.5539 -1.5230  0.2631
13212TIP3    H261128   2.388   2.088   4.995 -1.7664 -1.4641  0.4147
13213TIP3   OH261129   5.865   4.949   3.832 -0.6656 -0.4751 -0.0618
13213TIP3    H161130   5.776   4.941   3.796 -0.9226 -2.3243  0.8594
13213TIP3    H261131   5.854   5.003   3.911 -1.0632 -1.0626  0.2946
13214TIP3   OH261132   1.981   4.240  15.646  0.1196 -0.8011  0.7902
13214TIP3    H161133   2.067   4.224  15.608  0.8745 -0.1465  2.1477
13214TIP3    H261134   1.940   4.302  15.586  2.4622  2.6482  2.4471
13215TIP3   OH261135   4.983   4.105  16.195  0.2463  0.1820  0.2304
13215TIP3    H161136   5.043   4.177  16.209 -0.3148  0.8815 -0.8012
13215TIP3    H261137   4.919   4.139  16.132  0.2605 -1.3660 -0.6668
13216TIP3   OH261138   6.422   3.611  16.477 -0.3164 -0.1522  0.1818
13216TIP3    H161139   6.421   3.580  16.568 -2.1622 -0.1257  0.2063
13216TIP3    H261140   6.332   3.601  16.448 -0.1630  1.6637 -1.0398
13217TIP3   OH261141   5.963   5.630  13.060 -0.1145 -1.0821  0.0037
13217TIP3    H161142   5.938   5.548  13.016 -0.7279 -0.9649  0.1234
13217TIP3    H261143   6.024   5.672  12.999 -0.3682 -1.2843 -0.3972
13218TIP3   OH261144   2.192   3.444   2.176 -0.4067  0.0996  0.5409
13218TIP3    H161145   2.284   3.427   2.155 -0.1160  0.7286  1.2299
13218TIP3    H261146   2.196   3.506   2.250 -1.3582  3.3603 -1.8962
13219TIP3   OH261147   3.748   4.794  12.876 -0.1732 -0.1631 -0.1616
13219TIP3    H161148   3.672   4.812  12.931 -0.0292  0.9369 -0.2969
13219TIP3    H261149   3.788   4.716  12.914 -0.8183 -0.1826  0.4910
13220TIP3   OH261150   5.696   1.934   3.392 -0.3764  0.3464 -0.3121
13220TIP3    H161151   5.712   1.892   3.307 -0.8057  1.0896 -0.7802
13220TIP3    H261152   5.617   1.892   3.425 -0.9256  0.9068 -0.8758
13221TIP3   OH261153   1.556   5.081   0.622 -0.0820 -1.1388 -0.0620
13221TIP3    H161154   1.532   5.149   0.684  0.7295  0.5828 -1.5548
13221TIP3    H261155   1.651   5.074   0.630 -0.1720 -2.2520  0.1918
13222TIP3   OH261156   1.959   4.275   1.743  0.1357 -0.0377  0.3298
13222TIP3    H161157   1.930   4.250   1.655 -0.4267  3.0457 -0.4792
13222TIP3    H261158   1.895   4.340   1.772  0.2250 -1.0756  3.1526
13223TIP3   OH261159   3.641   4.810   2.601  0.1045 -0.4825 -0.1973
13223TIP3    H161160   3.707   4.808   2.532  1.0154  0.8903  0.5991
13223TIP3    H261161   3.673   4.748   2.667 -0.8813 -1.9707 -1.0429
13224TIP3   OH261162   2.695   6.301   2.546 -0.1509  0.2871  0.5827
13224TIP3    H161163   2.618   6.283   2.600 -0.8925  0.6981 -0.3167
13224TIP3    H261164   2.704   6.224   2.490 -0.1091  0.3808  0.4593
13225TIP3   OH261165   1.128   3.184   6.549 -0.3657  0.3642  0.0582
13225TIP3    H161166   1.179   3.254   6.507 -1.0206  1.4152  0.9774
13225TIP3    H261167   1.038   3.200   6.522 -0.3522 -1.0075 -0.8961
13226TIP3   OH261168   4.100   2.693  12.669  0.2051  0.0549  0.5727
13226TIP3    H161169   4.180   2.652  12.702 -0.4928 -1.8430 -0.0080
13226TIP3    H261170   4.131   2.756  12.603  1.2019 -1.3975 -0.4074
13227TIP3   OH261171   0.023   0.110   2.656 -0.4730 -0.2286  0.5492
13227TIP3    H161172   0.015   0.054   2.733  0.7278 -0.6852  0.3638
13227TIP3    H261173   0.104   0.082   2.614  0.3750  1.8865  0.6391
13228TIP3   OH261174   4.823   3.015  10.429  0.1534  0.2535 -0.0392
13228TIP3    H161175   4.831   2.934  10.378 -0.2201 -0.5317  1.1162
13228TIP3    H261176   4.730   3.038  10.421 -0.1900 -0.5842  1.3144
13229TIP3   OH261177   5.984   1.740   3.961 -0.1748 -0.2949 -0.3096
13229TIP3    H161178   5.969   1.788   3.879 -0.7404 -0.0341 -0.0650
13229TIP3    H261179   5.968   1.806   4.029 -1.0074 -0.8366  0.0340
13230TIP3   OH261180   2.221   3.157  15.886 -0.2186  0.0149 -0.0978
13230TIP3    H161181   2.184   3.087  15.940 -0.4767  0.2081 -0.0259
13230TIP3    H261182   2.167   3.157  15.807 -0.5201  0.4570  0.1094
13231TIP3   OH261183   0.504   0.990  15.191 -0.1233 -0.2306 -0.1588
13231TIP3    H161184   0.514   1.078  15.227  0.6033 -0.2278 -0.3588
13231TIP3    H261185   0.486   0.934  15.267 -0.6885  0.1004 -0.0446
13232TIP3   OH261186   1.906   3.333   1.351  0.2079  0.0527 -0.3231
13232TIP3    H161187   1.825   3.375   1.322  1.6273  2.1429 -1.4500
13232TIP3    H261188   1.930   3.380   1.431 -0.7288 -1.9810  1.2564
13233TIP3   OH261189   5.984   0.139  11.959  0.1896  0.2922 -0.1170
13233TIP3    H161190   5.919   0.072  11.940 -0.0020  0.9611 -2.0048
13233TIP3    H261191   5.976   0.154  12.054 -1.6652 -0.3737 -0.1324
13234TIP3   OH261192   5.706   2.138   2.268 -0.1380  0.3495 -0.9148
13234TIP3    H161193   5.677   2.212   2.214 -0.0677  0.1154 -1.2751
13234TIP3    H261194   5.692   2.167   2.358  2.6102  1.9992 -0.8932
13235TIP3   OH261195   1.940   0.417   0.827 -0.4327 -0.0784  0.0182
13235TIP3    H161196   1.917   0.419   0.920 -0.3828  1.0485  0.0290
13235TIP3    H261197   1.856   0.426   0.782 -0.2989  1.4749  0.0135
13236TIP3   OH261198   3.345   6.414  15.608  0.5130 -0.6145 -0.0620
13236TIP3    H161199   3.335   6.392  15.701  0.2719  0.8215  0.2667
13236TIP3    H261200   3.433   6.384  15.586 -0.0114 -2.4846  0.1675
13237TIP3   OH261201   0.324   2.382   0.470  0.2764 -0.2765  0.2192
13237TIP3    H161202   0.420   2.386   0.476  0.3434 -0.2183 -0.7507
13237TIP3    H261203   0.295   2.382   0.561  1.2528 -1.7728  0.5579
13238TIP3   OH261204   3.933   0.135   3.155  0.3482  0.0317  0.1755
13238TIP3    H161205   3.981   0.083   3.220  0.5912 -0.2501 -0.2288
13238TIP3    H261206   4.001   0.176   3.102  0.1685  0.9899  0.6526
13239TIP3   OH261207   6.578   6.450   1.936 -0.2930  0.5845 -0.3959
13239TIP3    H161208   6.549   6.419   2.022  0.8402  0.1623 -0.1505
13239TIP3    H261209   6.500   6.445   1.881 -0.3077 -2.3378 -0.2571
13240TIP3   OH261210   5.810   4.081  14.191 -0.1378 -0.3968 -0.0972
13240TIP3    H161211   5.731   4.130  14.167 -0.5713 -1.0794 -0.0910
13240TIP3    H261212   5.846   4.128  14.266 -0.3482  0.1104 -0.3062
13241TIP3   OH261213   1.289   3.591   1.367  0.1361 -0.3893 -0.5671
13241TIP3    H161214   1.217   3.574   1.307  0.5583 -2.2473 -0.5976
13241TIP3    H261215   1.362   3.617   1.310  0.1199 -0.7005 -0.7305
13242TIP3   OH261216   0.139   2.297   1.164 -0.7637  0.4963  0.3567
13242TIP3    H161217   0.113   2.356   1.235 -0.6071  2.1341 -0.8871
13242TIP3    H261218   0.081   2.222   1.172  0.4686 -0.2650  3.3420
13243TIP3   OH261219   2.024   5.228  11.216 -0.9181  0.1104  0.3242
13243TIP3    H161220   1.989   5.154  11.267  0.8911 -1.2600 -0.3114
13243TIP3    H261221   2.116   5.234  11.242  0.1243 -0.7482 -2.7668
13244TIP3   OH261222   5.024   6.355   2.318 -0.4667 -0.5220  0.0815
13244TIP3    H161223   4.931   6.336   2.307 -0.5816  0.5813 -1.1962
13244TIP3    H261224   5.027   6.447   2.345  0.1870 -1.2101  2.5782
13245TIP3   OH261225   4.598   1.194  15.269  0.7341  0.9466  0.1308
13245TIP3    H161226   4.591   1.223  15.360 -0.9235 -0.9072  0.6627
13245TIP3    H261227   4.688   1.166  15.259  0.8454  0.8331  1.3119
13246TIP3   OH261228   0.440   0.436  16.531  0.1003  0.3643  0.2226
13246TIP3    H161229   0.440   0.367  16.465 -0.4913  0.4023  0.1792
13246TIP3    H261230   0.525   0.479  16.521  0.6842 -0.6670  0.5765
13247TIP3   OH261231   0.948   4.056   2.669 -0.5643 -0.0356 -0.4871
13247TIP3    H161232   1.038   4.083   2.687 -0.5358 -0.3741 -0.1033
13247TIP3    H261233   0.956   3.967   2.635 -0.6748  0.3312 -1.5096
13248TIP3   OH261234   3.547   2.567  15.991  0.5725 -0.2421  0.2242
13248TIP3    H161235   3.462   2.550  16.031  1.5682 -0.9357  2.1365
13248TIP3    H261236   3.526   2.623  15.916 -1.6277 -0.9365  0.2309
13249TIP3   OH261237   3.269   2.777  17.090  0.2973  0.4309 -0.2020
13249TIP3    H161238   3.238   2.690  17.064 -0.3781  0.6631 -0.2023
13249TIP3    H261239   3.322   2.761  17.168  0.4024 -0.0108 -0.3580
13250TIP3   OH261240   0.686   2.071   2.870 -0.2515  0.2750  0.4244
13250TIP3    H161241   0.750   2.004   2.845  0.2259  1.5793 -2.3231
13250TIP3    H261242   0.652   2.042   2.955  4.3590 -0.2141  2.3945
13251TIP3   OH261243   2.217   0.824   6.260  0.1959  0.5101 -0.0938
13251TIP3    H161244   2.258   0.759   6.317 -0.8069  0.7301  0.9101
13251TIP3    H261245   2.186   0.893   6.319  0.4572  1.4917 -1.0491
13252TIP3   OH261246   5.465   1.198  14.663  1.0282 -0.1179  0.1459
13252TIP3    H161247   5.434   1.244  14.741 -1.3635  0.5009 -1.0547
13252TIP3    H261248   5.507   1.265  14.610 -2.8585  1.0960 -1.8145
13253TIP3   OH261249   4.234   6.459   3.317  0.2902  0.0282 -0.3004
13253TIP3    H161250   4.153   6.432   3.273  0.8751 -0.5166 -1.0804
13253TIP3    H261251   4.290   6.491   3.246  0.2512  1.7653  0.3948
13254TIP3   OH261252   5.597   5.409  11.959  0.3304 -0.5795 -0.1250
13254TIP3    H161253   5.594   5.315  11.979  1.8967 -0.8023 -0.8245
13254TIP3    H261254   5.654   5.446  12.027 -3.1654  0.5948  2.4966
13255TIP3   OH261255   6.246   5.074   1.943  0.0745 -0.5787 -0.1667
13255TIP3    H161256   6.202   5.102   2.024 -0.7406  0.0459 -0.8095
13255TIP3    H261257   6.194   5.113   1.873  0.1905 -1.9162 -1.0342
13256TIP3   OH261258   1.197   5.547  13.623  0.3261 -0.1891  0.3371
13256TIP3    H161259   1.141   5.511  13.692  0.6528 -1.6671 -0.1323
13256TIP3    H261260   1.157   5.631  13.601 -1.3742 -0.9458  0.4028
13257TIP3   OH261261   2.153   6.693  12.089 -0.1339  0.0759  0.2446
13257TIP3    H161262   2.203   6.660  12.014 -1.4025 -0.3396 -0.4484
13257TIP3    H261263   2.219   6.709  12.157  1.0229  0.2686 -0.8808
13258TIP3   OH261264   0.219   1.681   5.702 -0.1908  0.0379 -0.4579
13258TIP3    H161265   0.159   1.690   5.775 -0.8625  3.9338 -1.2744
13258TIP3    H261266   0.306   1.687   5.741 -0.4537 -0.4328  0.2205
13259TIP3   OH261267   0.434   4.339  15.294  0.6637 -0.1034  0.0215
13259TIP3    H161268   0.493   4.267  15.274  1.9446  0.8400  0.2793
13259TIP3    H261269   0.472   4.415  15.250 -0.6529  0.4322 -0.2403
13260TIP3   OH261270   3.348   4.011   0.999  0.0359 -0.2010 -0.1366
13260TIP3    H161271   3.343   4.105   1.016  1.2894 -0.2738  0.8685
13260TIP3    H261272   3.442   3.994   0.987  0.1139 -1.6071  1.7733
13261TIP3   OH261273   4.256   6.061  11.260  0.3380  0.1454  0.1597
13261TIP3    H161274   4.314   6.129  11.295  0.0663  0.4495  0.0197
13261TIP3    H261275   4.299   6.032  11.180  1.0917 -0.7295  0.8609
13262TIP3   OH261276   1.200   6.575  11.407  0.4531 -0.6732 -0.0183
13262TIP3    H161277   1.173   6.515  11.477  5.2800  0.2373  3.0862
13262TIP3    H261278   1.186   6.662  11.443  0.5010 -0.0823 -1.3618
13263TIP3   OH261279   2.197   1.537  12.093  0.9973  0.1930 -0.2829
13263TIP3    H161280   2.171   1.581  12.012  2.1228  1.1947 -0.1401
13263TIP3    H261281   2.166   1.447  12.083  0.1045  0.5930 -1.3173
13264TIP3   OH261282   0.555   4.170   6.406  0.4944 -0.1936 -0.3147
13264TIP3    H161283   0.479   4.118   6.434 -0.0279  0.2910 -0.7990
13264TIP3    H261284   0.603   4.112   6.347  1.5193 -1.1721  1.3863
13265TIP3   OH261285   3.458   1.030  16.471  0.2093 -0.2865  0.7257
13265TIP3    H161286   3.483   1.040  16.379 -0.7543 -0.2052  0.4725
13265TIP3    H261287   3.510   0.955  16.501  1.5519  0.5245  0.4990
13266TIP3   OH261288   6.195   5.555   3.543 -0.0322 -0.7188 -0.0313
13266TIP3    H161289   6.160   5.472   3.574 -0.2783 -1.1708 -1.4484
13266TIP3    H261290   6.144   5.621   3.590 -1.5404 -1.3783 -0.6770
13267TIP3   OH261291   0.196   5.362  10.183 -0.1101 -0.2149  0.0100
13267TIP3    H161292   0.154   5.277  10.179  0.0225 -0.2798 -0.0125
13267TIP3    H261293   0.129   5.420  10.219  0.4202 -0.7390  1.9382
13268TIP3   OH261294   6.820   0.669  17.187 -0.0440 -0.2022  0.1123
13268TIP3    H161295   6.809   0.730  17.115  0.2776  0.6188  0.7515
13268TIP3    H261296   6.758   0.598  17.168 -0.6463  0.4659 -0.4740
13269TIP3   OH261297   3.184   6.131  16.340 -0.5578  1.0258 -0.5763
13269TIP3    H161298   3.096   6.169  16.340 -1.1894 -0.3770 -0.8244
13269TIP3    H261299   3.184   6.071  16.414  1.0352  2.7870  0.9667
13270TIP3   OH261300   2.212   2.554   2.507 -0.3291 -0.4505  0.1763
13270TIP3    H161301   2.252   2.511   2.431  0.7009  3.3789 -1.7291
13270TIP3    H261302   2.121   2.525   2.506  0.1538 -2.0928 -1.2068
13271TIP3   OH261303   5.036   1.536   5.875  0.5212 -0.0449  0.2379
13271TIP3    H161304   5.006   1.530   5.966  0.2764  0.1680  0.1715
13271TIP3    H261305   5.118   1.584   5.880  0.0233  0.8196  0.2459
13272TIP3   OH261306   2.469   4.649   3.078  0.0461 -0.2430 -0.8571
13272TIP3    H161307   2.383   4.627   3.043 -0.8743 -0.1495  1.2114
13272TIP3    H261308   2.523   4.666   3.001 -1.5958 -0.9626 -2.2188
13273TIP3   OH261309   5.603   6.321   3.678  0.5734 -0.0417 -0.5849
13273TIP3    H161310   5.686   6.326   3.630  1.6312 -0.1715  1.1257
13273TIP3    H261311   5.573   6.231   3.664 -0.4002  0.5852 -2.9029
13274TIP3   OH261312   3.486   2.667   0.523 -0.0508  0.6168  0.4371
13274TIP3    H161313   3.491   2.572   0.532 -2.6663  0.1423 -1.8221
13274TIP3    H261314   3.577   2.696   0.516  0.7794 -1.7683  0.5269
13275TIP3   OH261315   0.980   5.454   2.426 -0.3468  0.1786 -0.1511
13275TIP3    H161316   1.012   5.537   2.392  0.9864 -0.6544 -1.0279
13275TIP3    H261317   0.968   5.399   2.349  0.4483 -0.9805  0.5086
13276TIP3   OH261318   0.136   3.397  11.963  0.1940  0.0709  0.2158
13276TIP3    H161319   0.074   3.334  11.927 -1.2910  0.3221  2.1797
13276TIP3    H261320   0.132   3.472  11.903 -2.5655  0.6879  1.0654
13277TIP3   OH261321   3.470   2.881  16.790 -0.0191  0.5741 -0.3555
13277TIP3    H161322   3.490   2.788  16.789  0.1388  0.4717  2.4425
13277TIP3    H261323   3.399   2.892  16.728  0.3912 -1.2793 -1.2026
13278TIP3   OH261324   3.818   0.231   1.320 -0.6696  0.0664  0.1773
13278TIP3    H161325   3.858   0.317   1.332  1.8795 -1.0262  0.0332
13278TIP3    H261326   3.730   0.241   1.356 -0.2560  2.5461  0.7043
13279TIP3   OH261327   6.150   4.777   0.162  0.1537  0.2085 -0.4040
13279TIP3    H161328   6.082   4.826   0.115  0.5404  0.0814 -1.1142
13279TIP3    H261329   6.147   4.690   0.123 -0.8352 -0.4987  1.1500
13280TIP3   OH261330   1.329   0.793   1.669 -0.0135 -0.1594 -0.0936
13280TIP3    H161331   1.393   0.777   1.599 -0.5915 -0.8286 -0.4816
13280TIP3    H261332   1.330   0.713   1.721 -1.6401 -0.8167 -1.0077
13281TIP3   OH261333   4.036   1.811   4.394 -0.2734 -0.0715  0.2055
13281TIP3    H161334   4.122   1.848   4.413 -0.5493  0.1672  1.0374
13281TIP3    H261335   3.974   1.876   4.428 -0.7848 -0.1069 -0.6473
13282TIP3   OH261336   5.891   3.032  12.155 -0.5499  0.1244 -0.2872
13282TIP3    H161337   5.805   3.018  12.194  0.1636  0.5895  1.5632
13282TIP3    H261338   5.949   2.973  12.204  1.0243  3.2954  1.9769
13283TIP3   OH261339   4.252   0.789  16.508 -0.2442 -0.2556 -0.0096
13283TIP3    H161340   4.224   0.880  16.518  1.0686 -0.0376  2.2785
13283TIP3    H261341   4.196   0.740  16.568  1.6794 -0.3202  1.8369
13284TIP3   OH261342   2.240   5.886  15.219  0.5116  0.0509  0.7269
13284TIP3    H161343   2.156   5.853  15.251  0.4290 -0.0925  0.3746
13284TIP3    H261344   2.286   5.916  15.297  0.6294 -0.9956  1.0699
13285TIP3   OH261345   1.616   5.609   6.124  0.5385  0.2341 -0.5016
13285TIP3    H161346   1.595   5.696   6.090 -0.9816 -0.0678 -0.4271
13285TIP3    H261347   1.706   5.616   6.154  1.1876  1.1493 -2.4893
13286TIP3   OH261348   1.351   0.286  11.837 -0.1168 -0.3880  0.2478
13286TIP3    H161349   1.320   0.376  11.840  1.7625  0.2878  0.3714
13286TIP3    H261350   1.300   0.245  11.767 -1.8656  0.3990  1.0021
13287TIP3   OH261351   2.400   1.227   4.722 -0.3889 -0.3542 -0.0399
13287TIP3    H161352   2.441   1.212   4.808 -1.8392  0.2138  0.7897
13287TIP3    H261353   2.434   1.311   4.693  0.7863 -0.9525 -0.4574
13288TIP3   OH261354   6.064   0.152   0.198  0.1641 -0.0269 -0.3490
13288TIP3    H161355   6.151   0.151   0.237  0.5740  2.4853 -0.9954
13288TIP3    H261356   6.074   0.106   0.114  0.3298 -1.5347  0.4688
13289TIP3   OH261357   3.536   5.808   0.989  0.3556 -0.2692 -0.0881
13289TIP3    H161358   3.580   5.727   1.015 -0.1306 -0.8490 -0.9939
13289TIP3    H261359   3.562   5.872   1.055  2.2822 -0.6708 -0.3822
13290TIP3   OH261360   5.190   4.914  11.627  0.3541  0.5121  0.6216
13290TIP3    H161361   5.188   4.921  11.722 -2.1148  4.0909  0.4993
13290TIP3    H261362   5.242   4.990  11.598  0.9799 -0.4534 -0.9412
13291TIP3   OH261363   3.601   6.121   2.381 -0.3293  0.0787  0.1543
13291TIP3    H161364   3.542   6.166   2.441 -1.1500 -1.2354  0.3784
13291TIP3    H261365   3.685   6.166   2.390 -0.9864  1.2005  0.7416
13292TIP3   OH261366   1.549   2.458   5.712 -0.6198 -0.1010  0.5477
13292TIP3    H161367   1.489   2.532   5.711 -1.9466 -1.1390 -0.4233
13292TIP3    H261368   1.542   2.421   5.800 -1.3230 -0.1344  0.4836
13293TIP3   OH261369   5.273   4.815  15.325  0.1585 -0.4750 -0.5447
13293TIP3    H161370   5.356   4.857  15.349  0.4981 -0.5085 -1.6065
13293TIP3    H261371   5.293   4.722  15.321 -0.4761 -0.7366  1.3153
13294TIP3   OH261372   6.729   1.563  15.427  0.2818 -0.7665 -0.2080
13294TIP3    H161373   6.657   1.523  15.475  1.6864 -2.3261  0.7056
13294TIP3    H261374   6.738   1.650  15.465 -0.7129 -0.7911  0.0966
13295TIP3   OH261375   4.531   3.726   3.656  0.0751  0.3998 -0.2420
13295TIP3    H161376   4.557   3.637   3.681  0.4455  0.6561  0.3035
13295TIP3    H261377   4.545   3.778   3.735  0.6217  1.0999 -0.7886
13296TIP3   OH261378   3.012   4.185  14.928 -0.2121  0.1410 -0.1323
13296TIP3    H161379   2.948   4.256  14.938 -0.4679 -0.2649  1.3341
13296TIP3    H261380   2.973   4.125  14.865 -0.9259  0.2817  0.1729
13297TIP3   OH261381   6.194   3.136   4.355  0.2792 -0.5617  0.5695
13297TIP3    H161382   6.172   3.174   4.269 -0.3311  0.1234  1.0097
13297TIP3    H261383   6.220   3.046   4.335  0.4075 -0.3351 -0.3647
13298TIP3   OH261384   0.229   3.336  12.344  0.0186  0.0476  0.1509
13298TIP3    H161385   0.223   3.260  12.402 -0.6414  0.5333  0.7376
13298TIP3    H261386   0.162   3.397  12.377 -1.9176 -0.5189 -2.3920
13299TIP3   OH261387   3.434   3.720   1.638  0.3732 -0.0525  0.3436
13299TIP3    H161388   3.447   3.682   1.551 -2.0407  0.9046 -0.5230
13299TIP3    H261389   3.493   3.671   1.695  0.7940 -1.8543 -1.5260
13300TIP3   OH261390   4.653   2.938  13.587 -1.1528 -0.5440 -0.4080
13300TIP3    H161391   4.693   2.872  13.643  1.8917  0.5943 -1.0113
13300TIP3    H261392   4.605   2.889  13.520 -0.1221 -2.1021 -0.0456
13301TIP3   OH261393   0.178   5.365  16.728 -0.2640 -0.4835 -0.7128
13301TIP3    H161394   0.125   5.421  16.785  1.1211  0.2286 -0.0760
13301TIP3    H261395   0.130   5.282  16.724 -1.0066 -0.1288  0.5056
13302TIP3   OH261396   4.112   3.588  11.982  0.2213  0.3312  0.3493
13302TIP3    H161397   4.190   3.583  12.036  1.4858  1.6668 -1.2388
13302TIP3    H261398   4.107   3.680  11.956 -0.9327 -0.0603 -0.9144
13303TIP3   OH261399   5.374   4.700  13.294 -0.1854 -0.0702  0.6043
13303TIP3    H161400   5.470   4.698  13.291 -0.2267 -1.3098 -1.2189
13303TIP3    H261401   5.354   4.791  13.318  1.4531  0.7582 -0.8631
13304TIP3   OH261402   5.641   0.131   5.961 -0.1982 -0.6188 -0.3417
13304TIP3    H161403   5.701   0.121   5.888  0.9376 -0.3668  0.5204
13304TIP3    H261404   5.697   0.156   6.035 -1.5958  1.5943  0.0581
13305TIP3   OH261405   2.490   2.279  14.188 -0.6721  0.0993  0.5378
13305TIP3    H161406   2.504   2.233  14.105  1.3789  0.7827  0.4351
13305TIP3    H261407   2.398   2.264  14.209 -1.0571 -0.7004 -1.4836
13306TIP3   OH261408   4.219   6.417  11.641  0.0724  0.1226 -0.1135
13306TIP3    H161409   4.303   6.443  11.601 -0.0979 -1.9512 -2.0053
13306TIP3    H261410   4.154   6.467  11.591 -0.0249 -1.1643 -1.3265
13307TIP3   OH261411   1.297   0.729   2.391  0.2136  0.5338 -0.0956
13307TIP3    H161412   1.303   0.824   2.378  1.0463  0.5172  0.0807
13307TIP3    H261413   1.343   0.714   2.474  0.4114 -0.0649 -0.3109
13308TIP3   OH261414   2.216   4.449   2.517  0.2088  0.2101 -0.2404
13308TIP3    H161415   2.222   4.406   2.602  2.7409  0.7011 -0.1054
13308TIP3    H261416   2.212   4.543   2.537 -0.8754  0.2741 -0.6554
13309TIP3   OH261417   2.974   2.685   4.467  0.0637  0.2586  0.0542
13309TIP3    H161418   2.900   2.734   4.503 -0.2408  0.9103 -1.3798
13309TIP3    H261419   2.998   2.732   4.387  2.1167  0.1325  0.5345
13310TIP3   OH261420   0.595   6.204  17.083  0.3532 -0.1275 -0.0144
13310TIP3    H161421   0.577   6.125  17.033 -2.9787 -0.0585  0.8811
13310TIP3    H261422   0.523   6.263  17.064  1.3658  1.6946  1.3652
13311TIP3   OH261423   1.908   5.177  11.732 -0.5511 -0.0907  0.2802
13311TIP3    H161424   1.888   5.269  11.748 -0.1564  0.0848 -0.2055
13311TIP3    H261425   1.982   5.179  11.670  1.2658 -0.7101  2.3238
13312TIP3   OH261426   0.062   1.056  14.601  0.1650  0.6258 -0.1524
13312TIP3    H161427   0.146   1.095  14.624  0.8808 -1.2592  0.6261
13312TIP3    H261428   0.071   1.033  14.508  1.6280 -1.9964  0.5226
13313TIP3   OH261429   2.824   1.076  13.004 -0.1170 -0.1587 -0.1218
13313TIP3    H161430   2.765   1.119  12.942 -1.4698  0.1573  1.3084
13313TIP3    H261431   2.829   1.136  13.078  2.6465  0.1522 -0.4886
13314TIP3   OH261432   6.679   5.574   5.392  0.3979 -0.0555  0.4212
13314TIP3    H161433   6.667   5.662   5.426 -0.1913 -0.3965  1.1313
13314TIP3    H261434   6.708   5.523   5.468 -0.4102 -0.7214  0.3040
13315TIP3   OH261435   4.621   1.466  17.187 -0.4622  0.0547 -0.3742
13315TIP3    H161436   4.622   1.371  17.174  0.2951  0.1830 -1.3907
13315TIP3    H261437   4.712   1.493  17.174  0.0589  0.5482  3.2416
13316TIP3   OH261438   6.490   2.482  12.079  0.3100 -0.3688  0.0401
13316TIP3    H161439   6.466   2.556  12.135  1.9619 -2.6682  4.2746
13316TIP3    H261440   6.565   2.514  12.029 -0.3657  1.4105  0.0748
13317TIP3   OH261441   1.983   3.398  16.330  0.7306 -1.1326  0.4341
13317TIP3    H161442   1.948   3.312  16.354 -2.1279 -0.3879 -0.6411
13317TIP3    H261443   2.018   3.387  16.242 -0.7947 -0.9713 -0.2209
13318TIP3   OH261444   3.458   3.660  15.862 -0.1819 -0.0470  0.0487
13318TIP3    H161445   3.480   3.749  15.889 -0.0134 -0.4742  1.4247
13318TIP3    H261446   3.491   3.652  15.773  1.7779  0.5751  0.6643
13319TIP3   OH261447   1.554   3.537   0.002 -0.1822 -0.1555 -0.2845
13319TIP3    H161448   1.543   3.589  -0.077  1.5669  0.8166  0.0560
13319TIP3    H261449   1.620   3.584   0.053  1.3755 -2.5704  0.1333
13320TIP3   OH261450   0.167   4.887  14.833 -0.2201  0.0665 -0.5367
13320TIP3    H161451   0.231   4.925  14.774  0.6018 -0.5013 -0.0250
13320TIP3    H261452   0.083   4.895  14.786  0.4192 -0.4392 -1.8030
13321TIP3   OH261453   6.691   1.109  13.321  0.0783 -0.5263  0.4521
13321TIP3    H161454   6.717   1.128  13.231 -0.2750 -1.2608  0.1809
13321TIP3    H261455   6.610   1.159  13.334 -0.3326 -1.0854  0.0692
13322TIP3   OH261456   4.669   3.949  12.579 -0.8981 -0.7675 -0.3542
13322TIP3    H161457   4.729   3.929  12.651  0.0357 -0.9885 -1.1721
13322TIP3    H261458   4.602   4.004  12.618  0.0256 -0.2328  0.5115
13323TIP3   OH261459   5.230   5.855  15.535 -0.2057 -0.3515 -0.3732
13323TIP3    H161460   5.306   5.913  15.526 -1.2260  0.9312 -1.1432
13323TIP3    H261461   5.205   5.834  15.445 -0.6072 -0.9918 -0.1192
13324TIP3   OH261462   5.765   4.080   3.090 -0.1053  0.3715 -0.0289
13324TIP3    H161463   5.786   4.022   3.163 -1.0635 -0.5439 -0.4468
13324TIP3    H261464   5.807   4.039   3.014 -0.4021  0.4790 -0.2513
13325TIP3   OH261465   5.411   5.464  10.596  0.4493 -0.2545  0.0761
13325TIP3    H161466   5.456   5.454  10.680 -2.4370  0.2441  1.7950
13325TIP3    H261467   5.343   5.397  10.597  0.4160 -0.3216 -1.9768
13326TIP3   OH261468   3.966   4.366   1.829  0.3190  0.0737 -0.3736
13326TIP3    H161469   3.980   4.316   1.748  0.3875 -2.2335  0.9713
13326TIP3    H261470   4.022   4.322   1.894 -0.7803  0.9809  1.2388
13327TIP3   OH261471   4.531   2.671  11.285  0.1623  0.3559  0.4144
13327TIP3    H161472   4.498   2.653  11.373 -0.5402  0.2074  0.1341
13327TIP3    H261473   4.528   2.766  11.277  0.8949  0.4106  0.7981
13328TIP3   OH261474   2.413   3.272   0.254  0.8639  0.0359 -0.1766
13328TIP3    H161475   2.495   3.225   0.236  1.5132  1.0584  0.0271
13328TIP3    H261476   2.370   3.219   0.321  2.4534  0.6699  1.4194
13329TIP3   OH261477   3.962   2.568   1.327  0.0155 -0.0912  0.2914
13329TIP3    H161478   3.993   2.633   1.391 -0.5831  0.4400  0.0493
13329TIP3    H261479   3.879   2.603   1.295 -0.1221 -0.7865 -0.1394
13330TIP3   OH261480   3.942   6.294   4.919 -0.2243 -0.3090 -0.1634
13330TIP3    H161481   3.867   6.303   4.860  0.0507 -1.8265 -0.8009
13330TIP3    H261482   4.014   6.335   4.873  0.0560 -1.7385 -1.0706
13331TIP3   OH261483   5.503   2.578  13.469  0.4970  0.3763  0.2845
13331TIP3    H161484   5.422   2.556  13.422  1.1799 -1.8770  0.0785
13331TIP3    H261485   5.497   2.528  13.551  1.5536  0.4296  0.3971
13332TIP3   OH261486   5.446   5.747  14.641  0.0341 -0.1614  0.0228
13332TIP3    H161487   5.464   5.680  14.574  1.7864 -1.5020  1.7075
13332TIP3    H261488   5.522   5.805  14.637  0.2263 -0.3321  0.8788
13333TIP3   OH261489   6.559   6.369  13.667 -0.6501  0.1042  0.4772
13333TIP3    H161490   6.542   6.279  13.636 -1.5559 -0.0279  1.2784
13333TIP3    H261491   6.649   6.367  13.699 -0.0992 -0.0662 -1.0276
13334TIP3   OH261492   4.253   6.609  13.341  0.1046 -0.0354 -0.0231
13334TIP3    H161493   4.346   6.585  13.344 -0.0114 -0.4274  0.6324
13334TIP3    H261494   4.216   6.555  13.272  0.3043 -0.0833 -0.0929
13335TIP3   OH261495   2.683   1.400   6.238 -0.5391  0.0430  0.3070
13335TIP3    H161496   2.713   1.491   6.241 -2.4032  0.7571 -0.6940
13335TIP3    H261497   2.702   1.365   6.325 -0.7628  1.7337  1.0765
13336TIP3   OH261498   0.805   0.946  14.020  0.3673 -0.1374 -0.2665
13336TIP3    H161499   0.786   0.940  13.926 -1.7040 -2.1323  0.1869
13336TIP3    H261500   0.778   1.035  14.044  0.7731  0.3495 -1.4905
13337TIP3   OH261501   3.894   4.853   1.610 -0.4791 -0.4386  0.2502
13337TIP3    H161502   3.973   4.901   1.587  0.2750 -0.8579  1.8102
13337TIP3    H261503   3.926   4.766   1.635 -1.4166 -0.5767  1.0039
13338TIP3   OH261504   1.296   6.462  15.615  0.5476 -1.0863 -0.0453
13338TIP3    H161505   1.224   6.526  15.611  0.4244 -1.2853 -1.9067
13338TIP3    H261506   1.327   6.467  15.706 -1.2580 -0.3845  0.5918
13339TIP3   OH261507   2.238   5.864  12.650  0.2197 -0.0610  0.2631
13339TIP3    H161508   2.257   5.953  12.680  0.8137 -0.5043  1.2715
13339TIP3    H261509   2.143   5.862  12.638  0.1669  0.6257  0.5407
13340TIP3   OH261510   1.959   0.431  13.557 -0.1830 -0.8955 -0.3116
13340TIP3    H161511   2.048   0.438  13.592 -0.0041  0.7448 -1.0356
13340TIP3    H261512   1.962   0.479  13.474 -1.9712  0.0345  0.1257
13341TIP3   OH261513   1.353   2.094  11.544  0.3636  0.2082 -0.7942
13341TIP3    H161514   1.337   2.005  11.512 -0.4429 -0.1089  0.4007
13341TIP3    H261515   1.291   2.105  11.616  0.0042  1.9963 -1.3452
13342TIP3   OH261516   2.174   6.215  15.531 -0.0283 -0.5731  0.7815
13342TIP3    H161517   2.153   6.127  15.561  1.8771 -1.1718  0.4685
13342TIP3    H261518   2.154   6.214  15.438 -0.6147 -0.4582  0.9012
13343TIP3   OH261519   0.665   6.215  11.774 -0.2720  0.2837  0.1557
13343TIP3    H161520   0.579   6.256  11.784 -0.3617 -0.0271  0.7101
13343TIP3    H261521   0.653   6.127  11.810 -0.0758 -0.2154 -0.9870
13344TIP3   OH261522   1.846   2.212   2.191 -0.1970  0.1883 -0.3828
13344TIP3    H161523   1.819   2.280   2.129  1.1831  1.3306  0.2246
13344TIP3    H261524   1.906   2.156   2.141 -0.5626 -0.0145 -0.6006
13345TIP3   OH261525   5.138   0.896  10.967 -0.2034  0.3047  0.5280
13345TIP3    H161526   5.080   0.855  11.031 -0.4830 -0.3647 -0.1447
13345TIP3    H261527   5.225   0.894  11.008 -0.3242 -0.4255  0.7473
13346TIP3   OH261528   1.883   5.760  11.654 -0.5076  0.5612 -0.2043
13346TIP3    H161529   1.958   5.765  11.714 -0.4116 -1.9175  0.0027
13346TIP3    H261530   1.813   5.806  11.700 -0.2180 -0.6285  1.5382
13347TIP3   OH261531   3.582   4.105  13.436  0.1736  0.4743  0.8086
13347TIP3    H161532   3.601   4.025  13.387 -1.7425  0.4725 -0.0143
13347TIP3    H261533   3.609   4.176  13.377 -1.1007  0.4565  0.1850
13348TIP3   OH261534   4.494   1.278   3.784 -0.3321 -0.4869  0.4112
13348TIP3    H161535   4.488   1.199   3.839 -1.7512 -0.5877  0.1454
13348TIP3    H261536   4.518   1.245   3.698 -0.6580 -0.5922  0.3623
13349TIP3   OH261537   4.604   2.712  14.341  0.0479 -0.0598  0.3981
13349TIP3    H161538   4.636   2.785  14.393  0.2551  0.2714 -0.1854
13349TIP3    H261539   4.588   2.642  14.404 -0.2387  0.5200  0.9689
13350TIP3   OH261540   0.221   2.219  17.036 -0.3104  0.1762  0.6688
13350TIP3    H161541   0.293   2.282  17.027 -0.1557  0.0955  1.2441
13350TIP3    H261542   0.161   2.261  17.097 -0.5947  0.1021  0.4393
13351TIP3   OH261543   3.373   1.585  13.241 -0.3408  0.0768 -0.0425
13351TIP3    H161544   3.389   1.500  13.282  2.2290  0.6315  0.2771
13351TIP3    H261545   3.339   1.640  13.311 -0.0329 -0.1187  0.2602
13352TIP3   OH261546   6.689   3.483  12.795 -0.1862 -0.0272  0.3866
13352TIP3    H161547   6.750   3.532  12.850 -0.4749  1.3762 -0.4906
13352TIP3    H261548   6.745   3.420  12.749  1.0653  2.5103 -1.8928
13353TIP3   OH261549   3.225   5.171  11.966 -0.4656  0.6249 -0.2942
13353TIP3    H161550   3.249   5.238  11.902 -0.3550  0.3191 -0.5785
13353TIP3    H261551   3.131   5.159  11.954 -0.3102 -0.0079 -0.9693
13354TIP3   OH261552   3.524   6.209   5.735 -0.3277  0.4274 -0.0040
13354TIP3    H161553   3.493   6.122   5.710 -1.7283  1.2785 -1.5036
13354TIP3    H261554   3.466   6.235   5.806 -0.7952  0.6352 -0.4517
13355TIP3   OH261555   0.065   4.115  16.928 -0.6288 -0.4099  0.3028
13355TIP3    H161556   0.059   4.179  16.857  0.7759 -0.2750  0.2736
13355TIP3    H261557  -0.002   4.050  16.908  0.2651 -0.8164 -1.6239
13356TIP3   OH261558   1.938   5.936  14.209 -0.2488 -0.0869 -0.4168
13356TIP3    H161559   1.898   5.903  14.129 -0.8607  0.6381 -0.4242
13356TIP3    H261560   1.865   5.941  14.271  0.4822 -2.1238  0.6901
13357TIP3   OH261561   6.625   5.881  12.580  0.0174 -0.3104  0.3642
13357TIP3    H161562   6.578   5.942  12.524  0.9967  0.1657  0.0334
13357TIP3    H261563   6.714   5.879  12.544 -0.1309 -2.4148 -0.0277
13358TIP3   OH261564   0.497   5.389  15.102  0.1392 -0.3312  0.5212
13358TIP3    H161565   0.477   5.479  15.125 -0.1491 -0.1595 -0.3506
13358TIP3    H261566   0.585   5.373  15.137 -0.1693 -0.0182  1.4805
13359TIP3   OH261567   0.431   0.359  10.828  0.2533 -0.0476 -0.3997
13359TIP3    H161568   0.445   0.354  10.734  1.6544 -0.3841 -0.1825
13359TIP3    H261569   0.502   0.413  10.861 -0.9489  1.1526  0.3288
13360TIP3   OH261570   0.293   1.143  15.528 -0.4353  0.5593  0.0910
13360TIP3    H161571   0.383   1.141  15.497  0.1188 -0.2540  1.6679
13360TIP3    H261572   0.267   1.235  15.520  0.8214  0.9542  0.3850
13361TIP3   OH261573   6.388   4.048  15.031 -0.1366 -0.1087  0.2433
13361TIP3    H161574   6.391   4.107  14.956  0.4792  0.6136  0.8106
13361TIP3    H261575   6.476   4.054  15.069 -0.2791 -0.8625  0.7174
13362TIP3   OH261576   4.706   3.105   3.742  0.1216 -0.9162 -0.4477
13362TIP3    H161577   4.752   3.160   3.806  0.2296 -2.4822  0.8813
13362TIP3    H261578   4.660   3.167   3.685 -0.2899  0.5338  1.3855
13363TIP3   OH261579   0.666   3.794  13.434 -0.1038  0.1575 -0.0941
13363TIP3    H161580   0.700   3.863  13.377  0.8473  1.1813  1.6266
13363TIP3    H261581   0.590   3.832  13.477  0.1473 -0.0015  0.5188
13364TIP3   OH261582   5.643   3.270   5.060  0.0351  0.7629  0.0520
13364TIP3    H161583   5.581   3.342   5.049  0.0456  0.5339 -1.7308
13364TIP3    H261584   5.659   3.238   4.971  0.8774 -0.7278  0.7027
13365TIP3   OH261585   5.283   6.381   0.784 -0.3158 -1.1200 -0.6088
13365TIP3    H161586   5.257   6.341   0.866  1.4260 -1.0827 -0.0013
13365TIP3    H261587   5.375   6.357   0.773  0.1673  0.8446 -1.3273
13366TIP3   OH261588   4.368   5.684   5.474  0.0300  0.0057  0.4362
13366TIP3    H161589   4.369   5.780   5.474  1.3271  0.0091  0.7797
13366TIP3    H261590   4.344   5.660   5.563 -0.0808  0.0122  0.4082
13367TIP3   OH261591   0.470   3.815   3.538 -0.0626  0.5534  0.5791
13367TIP3    H161592   0.543   3.836   3.596  0.9647  0.8199 -0.7696
13367TIP3    H261593   0.503   3.832   3.450 -1.3539 -0.5013 -0.1493
13368TIP3   OH261594   0.186   2.163  15.227 -0.4751 -0.2588  0.3048
13368TIP3    H161595   0.243   2.174  15.303 -0.6155  0.1652  0.3526
13368TIP3    H261596   0.241   2.186  15.152 -0.8152  0.9920  0.4177
13369TIP3   OH261597   5.323   3.320   5.234  0.4370  0.4881  0.0322
13369TIP3    H161598   5.330   3.333   5.329 -0.5483 -0.3577  0.2474
13369TIP3    H261599   5.351   3.229   5.220  0.3068  0.5179 -0.4413
13370TIP3   OH261600   3.841   2.586   1.027  0.6326  0.2509 -0.0361
13370TIP3    H161601   3.776   2.568   0.960  0.4072 -2.3156  0.7806
13370TIP3    H261602   3.791   2.628   1.098  0.2743  0.1187 -0.2084
13371TIP3   OH261603   6.486   5.357  14.896 -0.7337 -0.0224  0.1842
13371TIP3    H161604   6.570   5.393  14.869 -1.4360  3.1214  1.7177
13371TIP3    H261605   6.505   5.312  14.978  0.0663 -3.0487 -1.5125
13372TIP3   OH261606   1.571   5.882   1.020 -0.1078 -0.0213  0.4389
13372TIP3    H161607   1.488   5.876   1.067 -1.2523  2.5830 -1.0898
13372TIP3    H261608   1.551   5.853   0.931  0.7452  0.2394  0.1559
13373TIP3   OH261609   3.486   6.474   1.588 -0.1346  0.2825 -0.0628
13373TIP3    H161610   3.520   6.504   1.504  1.6831 -0.0301  0.5350
13373TIP3    H261611   3.553   6.499   1.651 -0.6943 -1.0064  1.0706
13374TIP3   OH261612   0.068   6.561   3.196 -0.0067 -0.5147  0.2841
13374TIP3    H161613   0.144   6.560   3.253  1.0971  0.1969 -1.1126
13374TIP3    H261614   0.096   6.515   3.117 -0.1651  1.8548 -1.2452
13375TIP3   OH261615   1.296   3.941  16.991 -0.0113  0.3718 -0.0553
13375TIP3    H161616   1.299   4.012  16.927  3.2045  1.0244  0.6616
13375TIP3    H261617   1.209   3.949  17.031 -0.4448  2.7509 -1.2737
13376TIP3   OH261618   6.622   1.906   6.240  0.5028  0.2696  0.3362
13376TIP3    H161619   6.623   1.814   6.213  0.7646 -0.0206  1.3140
13376TIP3    H261620   6.593   1.953   6.162 -0.4468 -0.7202  0.0719
13377TIP3   OH261621   0.903   1.136  11.398 -0.4247 -0.1423 -0.5883
13377TIP3    H161622   0.922   1.065  11.337 -1.5620  0.9469 -2.2890
13377TIP3    H261623   0.820   1.110  11.439 -0.4425 -0.1531 -0.6312
13378TIP3   OH261624   3.938   3.569   1.922  0.5664  0.2004  0.1548
13378TIP3    H161625   3.902   3.637   1.979 -1.4942  0.3263 -1.1840
13378TIP3    H261626   3.959   3.614   1.840  1.0013 -0.4467 -0.1033
13379TIP3   OH261627   3.417   5.217  14.209 -0.0769  0.2876  0.1204
13379TIP3    H161628   3.395   5.156  14.138  2.5368  0.0437 -0.5864
13379TIP3    H261629   3.451   5.294  14.164  2.0019 -0.0320  1.0443
13380TIP3   OH261630   0.001   3.008   2.002  0.9134  0.3459  0.2748
13380TIP3    H161631   0.061   3.066   1.955 -2.4817  2.2626 -2.1793
13380TIP3    H261632  -0.038   3.063   2.070  1.1060 -0.5133  1.0988
13381TIP3   OH261633   2.243   5.656  14.389 -0.8020  0.0709  0.5901
13381TIP3    H161634   2.209   5.587  14.446 -0.8885  0.2670  0.7763
13381TIP3    H261635   2.287   5.609  14.318 -0.4172 -0.1750  0.9855
13382TIP3   OH261636   6.782   4.910   0.500 -0.1640  0.7207  0.2121
13382TIP3    H161637   6.742   4.910   0.413  0.4580 -1.0428 -0.1068
13382TIP3    H261638   6.711   4.937   0.559 -0.6840  1.5761 -0.7798
13383TIP3   OH261639   2.464   0.172   4.577 -0.4764 -0.2252 -0.1108
13383TIP3    H161640   2.402   0.244   4.589 -1.5612 -1.1295 -0.1088
13383TIP3    H261641   2.481   0.140   4.666  1.1422  0.9102  0.0384
13384TIP3   OH261642   5.901   2.491  14.179 -0.4650 -0.1835 -0.4375
13384TIP3    H161643   5.861   2.419  14.129  0.1102 -1.3359  0.6811
13384TIP3    H261644   5.842   2.502  14.254 -0.6233  0.6398 -0.6696
13385TIP3   OH261645   3.074   5.797   4.994 -0.2575  0.3182 -0.0796
13385TIP3    H161646   3.147   5.761   4.943 -1.6397 -0.6827 -1.4216
13385TIP3    H261647   3.068   5.741   5.071  1.4482  1.4628  0.9655
13386TIP3   OH261648   2.183   2.405  11.626 -0.6969 -0.3549  0.2201
13386TIP3    H161649   2.107   2.363  11.585 -0.3643  0.1958 -0.9908
13386TIP3    H261650   2.258   2.352  11.598 -0.4918 -0.1206  0.3193
13387TIP3   OH261651   1.855   6.544   4.654  0.0685 -0.0075  0.3389
13387TIP3    H161652   1.849   6.499   4.570 -2.5321 -0.2985  0.6196
13387TIP3    H261653   1.939   6.516   4.690  0.8739 -0.5117 -1.7785
13388TIP3   OH261654   1.217   5.302  15.732 -0.4108  0.5497  0.3933
13388TIP3    H161655   1.286   5.286  15.796  0.5012 -0.6376 -0.8290
13388TIP3    H261656   1.216   5.223  15.678 -1.0334  1.5705 -1.1621
13389TIP3   OH261657   4.647   1.478  10.512  0.1163 -0.1176  0.0847
13389TIP3    H161658   4.684   1.484  10.423  1.0420 -0.4039  0.4348
13389TIP3    H261659   4.661   1.566  10.549 -1.6503  0.4755 -0.5478
13390TIP3   OH261660   4.814   6.078   3.742 -0.7395 -0.2167 -0.0465
13390TIP3    H161661   4.893   6.094   3.794 -1.7193 -1.8754  2.0964
13390TIP3    H261662   4.821   6.140   3.669  2.1245  0.2474  0.4769
13391TIP3   OH261663   6.687   6.488  12.969  0.1920  0.1597 -0.2339
13391TIP3    H161664   6.630   6.537  13.029  0.6727  0.2562  0.1461
13391TIP3    H261665   6.635   6.480  12.888 -1.7885 -2.6610  1.1408
13392TIP3   OH261666   1.849   5.202   4.993 -0.4072  0.1237  0.2613
13392TIP3    H161667   1.907   5.175   4.921  0.7605 -0.8848  1.5178
13392TIP3    H261668   1.785   5.131   5.000  0.1755 -0.3495  0.9285
13393TIP3   OH261669   3.685   1.436  17.079  0.5154 -0.3670  0.1639
13393TIP3    H161670   3.781   1.430  17.084  0.5786 -1.0654 -1.3631
13393TIP3    H261671   3.656   1.346  17.063 -0.7239 -0.8211  3.9621
13394TIP3   OH261672   1.116   4.914  15.990 -0.2309 -0.7423  0.5060
13394TIP3    H161673   1.138   4.821  15.988  1.4078 -0.3764  0.0491
13394TIP3    H261674   1.187   4.956  15.942 -1.2349  0.7031  0.2225
13395TIP3   OH261675   0.410   0.253   2.750 -0.0527 -0.0673 -0.3910
13395TIP3    H161676   0.419   0.324   2.813 -0.4721 -0.6471  0.3536
13395TIP3    H261677   0.340   0.281   2.692 -0.3617  0.0506  0.0282
13396TIP3   OH261678   6.426   5.668  10.799 -0.6135 -0.4780 -0.1340
13396TIP3    H161679   6.516   5.678  10.768 -0.0169 -2.1298  0.9241
13396TIP3    H261680   6.374   5.662  10.719  0.6033 -2.4642 -0.8473
13397TIP3   OH261681   6.535   3.454  15.649 -0.2872 -0.0158 -0.4544
13397TIP3    H161682   6.509   3.415  15.566 -1.3153  1.6512 -0.9724
13397TIP3    H261683   6.452   3.469  15.695  0.1633  0.4506  0.2236
13398TIP3   OH261684   5.370   2.831  12.960  0.0217 -0.1126 -0.9678
13398TIP3    H161685   5.312   2.907  12.952 -0.1317  0.0533  1.2182
13398TIP3    H261686   5.337   2.783  13.036  0.6336 -1.9269 -1.8069
13399TIP3   OH261687   2.729   2.995  14.879 -0.1086  0.3415 -0.1173
13399TIP3    H161688   2.782   3.073  14.896 -0.0047  0.2526 -0.0286
13399TIP3    H261689   2.681   3.016  14.799  0.0559  0.4254 -0.1950
13400TIP3   OH261690   4.457   0.558  13.908 -0.0883  0.6143 -0.3667
13400TIP3    H161691   4.425   0.539  13.996  0.2693  0.6804 -0.2188
13400TIP3    H261692   4.424   0.646  13.889  0.9700  1.1645  0.2548
13401TIP3   OH261693   1.401   1.786   5.052  0.0323  0.3535 -0.5569
13401TIP3    H161694   1.459   1.839   5.107  0.4625 -0.3556 -0.3233
13401TIP3    H261695   1.457   1.717   5.017 -0.6497 -0.3119 -0.3781
13402TIP3   OH261696   2.899   5.791  12.474  0.3421 -0.5463 -0.5775
13402TIP3    H161697   2.881   5.700  12.451  0.1269 -0.4439 -0.8292
13402TIP3    H261698   2.812   5.830  12.485  0.4396 -0.6141  0.5136
13403TIP3   OH261699   5.377   0.291   3.429 -0.1554  0.2437  0.2128
13403TIP3    H161700   5.467   0.295   3.396 -0.0097  0.7227  0.6592
13403TIP3    H261701   5.354   0.198   3.426  0.1142  0.1956 -0.5375
13404TIP3   OH261702   4.182   3.945   0.547  0.5133 -0.2054 -0.1268
13404TIP3    H161703   4.127   3.977   0.619  1.0034  1.3166 -0.3839
13404TIP3    H261704   4.210   4.025   0.502  1.2187 -1.0730 -1.2627
13405TIP3   OH261705   4.459   2.136  12.191 -0.1839 -0.6309 -0.5052
13405TIP3    H161706   4.420   2.048  12.184 -1.1854 -0.2204 -0.2401
13405TIP3    H261707   4.416   2.187  12.124  1.4942 -0.6954 -1.6907
13406TIP3   OH261708   0.837   0.195   4.738  0.7025  0.0280  0.3313
13406TIP3    H161709   0.793   0.230   4.816  0.5637 -0.4384  0.4654
13406TIP3    H261710   0.913   0.251   4.727 -0.8389  2.0347 -0.9556
13407TIP3   OH261711   3.776   2.318   5.702 -0.0674  0.4564  0.0608
13407TIP3    H161712   3.812   2.395   5.659  0.3942  0.1908 -0.0397
13407TIP3    H261713   3.752   2.259   5.630  2.1965 -0.6666  0.1341
13408TIP3   OH261714   1.264   3.515  13.430 -0.2879  0.1587  0.0507
13408TIP3    H161715   1.343   3.521  13.376 -0.2821  0.4861  0.0963
13408TIP3    H261716   1.288   3.457  13.502 -0.3517 -0.4441 -0.3955
13409TIP3   OH261717   2.282   4.268  14.342  0.2713  0.4436 -0.7316
13409TIP3    H161718   2.216   4.204  14.315  0.3281  0.4764 -0.9513
13409TIP3    H261719   2.364   4.234  14.306  0.4340  0.2163 -0.1567
13410TIP3   OH261720   2.227   4.656  13.852 -0.2909 -0.5098 -0.0350
13410TIP3    H161721   2.181   4.671  13.769  2.8044  0.1110 -1.7726
13410TIP3    H261722   2.224   4.741  13.896 -1.7157 -0.7738  0.4328
13411TIP3   OH261723   4.788   5.100  12.353  0.8065 -0.4170  0.0013
13411TIP3    H161724   4.858   5.128  12.412 -0.8440  0.3152  1.6951
13411TIP3    H261725   4.773   5.009  12.376  0.1272 -0.1165  0.7829
13412TIP3   OH261726   1.141   6.044  12.020  0.6407 -0.2945  0.0562
13412TIP3    H161727   1.053   6.074  12.044  0.7728  0.4795 -0.4028
13412TIP3    H261728   1.200   6.098  12.071  0.8872  0.4210 -0.9538
13413TIP3   OH261729   4.860   1.819   3.756 -0.0516 -0.1682 -0.1850
13413TIP3    H161730   4.900   1.849   3.837 -0.5642 -0.4165  0.1650
13413TIP3    H261731   4.872   1.724   3.756 -1.1630 -0.3243  0.2272
13414TIP3   OH261732   1.052   0.832  12.002  0.6881  0.0708  0.4257
13414TIP3    H161733   0.989   0.764  11.978  0.5304 -0.3292  1.9236
13414TIP3    H261734   1.111   0.790  12.064  1.3716  0.9408  0.3809
13415TIP3   OH261735   5.500   6.352  12.459  0.5506 -0.7675  0.2830
13415TIP3    H161736   5.577   6.326  12.510  0.0253 -2.3638  0.3255
13415TIP3    H261737   5.428   6.353  12.522  0.6126  1.4230  0.3911
13416TIP3   OH261738   0.075   3.084   5.551 -0.2166  0.0057  0.0719
13416TIP3    H161739   0.136   3.127   5.611 -0.7301  0.5456  0.2186
13416TIP3    H261740   0.038   3.012   5.601  1.4532 -1.3366 -0.5173
13417TIP3   OH261741   3.740   0.784   1.713 -0.6766 -0.8103 -0.5565
13417TIP3    H161742   3.783   0.704   1.683 -0.2784 -0.0874 -2.0225
13417TIP3    H261743   3.737   0.840   1.635  1.6240  1.7508  1.0136
13418TIP3   OH261744   0.864   6.125  13.590 -0.0977  0.2369  0.2485
13418TIP3    H161745   0.954   6.126  13.623 -0.3750 -0.6454  1.0742
13418TIP3    H261746   0.835   6.035  13.601 -1.5550  0.7988  1.3261
13419TIP3   OH261747   0.414   4.595  15.903 -0.7076 -0.0151  0.2515
13419TIP3    H161748   0.446   4.554  15.823 -0.4459  0.6477  0.0038
13419TIP3    H261749   0.389   4.522  15.960  0.1810 -0.5160  0.0088
13420TIP3   OH261750   1.135   5.129  14.649 -0.1885  0.0663 -0.0420
13420TIP3    H161751   1.213   5.136  14.704 -0.2095 -0.8047  0.1172
13420TIP3    H261752   1.068   5.092  14.708 -0.5956  0.3992 -0.2933
13421TIP3   OH261753   3.863   0.429  13.502  0.1869  0.1229  0.0663
13421TIP3    H161754   3.835   0.470  13.584 -0.7367  0.2214 -0.2819
13421TIP3    H261755   3.933   0.369  13.528  1.3339  1.6325  0.6362
13422TIP3   OH261756   2.401   5.909  13.219 -0.5137 -0.0798  0.3304
13422TIP3    H161757   2.365   5.863  13.295 -2.2862 -0.3254 -0.6024
13422TIP3    H261758   2.331   5.906  13.154  2.2448 -3.4501 -2.8720
13423TIP3   OH261759   3.297   1.576   2.805 -0.4271 -0.0199 -0.1329
13423TIP3    H161760   3.352   1.562   2.882  1.3820  2.1840 -0.9261
13423TIP3    H261761   3.215   1.611   2.840 -0.0289 -0.0316  0.8522
13424TIP3   OH261762   1.926   5.701   1.390  0.0565 -0.2239  0.2848
13424TIP3    H161763   1.945   5.793   1.403 -0.1376 -0.2674  0.8965
13424TIP3    H261764   1.837   5.699   1.355  0.5470 -0.1138 -1.0657
13425TIP3   OH261765   4.947   0.373  17.145 -0.3812 -0.0634 -0.7748
13425TIP3    H161766   4.858   0.402  17.166  0.0557  0.9514 -0.2516
13425TIP3    H261767   4.995   0.383  17.227 -0.2837 -2.7770 -0.4068
13426TIP3   OH261768   3.550   3.891   2.977  0.2744 -0.4906  0.5621
13426TIP3    H161769   3.491   3.922   3.046 -1.2912 -2.3029  0.1319
13426TIP3    H261770   3.638   3.911   3.010 -0.5048  0.9185  1.9238
13427TIP3   OH261771   4.792   3.435   5.092 -0.2086  0.2087  0.6902
13427TIP3    H161772   4.886   3.429   5.112 -0.3588 -0.0571  1.3539
13427TIP3    H261773   4.788   3.477   5.006  0.5429 -0.4175  0.3378
13428TIP3   OH261774   3.407   5.475  12.252  0.1949  0.4754 -0.2926
13428TIP3    H161775   3.325   5.507  12.212 -0.5196 -1.0945 -0.1521
13428TIP3    H261776   3.463   5.455  12.177  0.1476  0.8080 -0.4170
13429TIP3   OH261777   1.824   0.261  11.886 -0.3062  0.4164  0.4835
13429TIP3    H161778   1.806   0.168  11.878 -2.5441  0.8765 -1.0474
13429TIP3    H261779   1.914   0.271  11.857 -0.2433 -1.2027  0.0268
13430TIP3   OH261780   2.933   6.657  13.351 -0.0936  0.3431 -0.1006
13430TIP3    H161781   2.871   6.623  13.415  0.0235 -0.1357 -0.2398
13430TIP3    H261782   2.991   6.715  13.402 -0.5475  0.6632  0.0570
13431TIP3   OH261783   0.066   3.269  11.451  0.1791  0.2713 -0.5904
13431TIP3    H161784  -0.026   3.246  11.456 -0.7500  3.7211  1.4162
13431TIP3    H261785   0.107   3.223  11.524 -0.9531  2.0658  1.2932
13432TIP3   OH261786   5.577   3.341  11.899 -0.6952 -0.2076  0.1522
13432TIP3    H161787   5.540   3.267  11.949 -2.2316  1.7400  2.1199
13432TIP3    H261788   5.538   3.419  11.940  0.4894  1.6991 -2.1222
13433TIP3   OH261789   2.559   3.579   5.994 -0.1994 -0.5434  0.0402
13433TIP3    H161790   2.579   3.525   6.071  1.0986  0.4769  0.4590
13433TIP3    H261791   2.635   3.636   5.985 -0.6009 -0.2256 -1.6578
13434TIP3   OH261792   1.302   3.328   4.637  0.0617  0.2535  0.3875
13434TIP3    H161793   1.288   3.276   4.716 -0.3381  0.1816  0.2701
13434TIP3    H261794   1.226   3.309   4.582 -0.2040  1.1308  0.4357
13435TIP3   OH261795   4.870   5.204   2.407 -0.7993  0.0152  0.1214
13435TIP3    H161796   4.806   5.244   2.349 -2.4766 -1.6920  0.6823
13435TIP3    H261797   4.920   5.144   2.351 -0.8444  0.0727  0.0195
13436TIP3   OH261798   3.384   6.396   5.926  0.4247 -0.1597  0.3249
13436TIP3    H161799   3.359   6.397   6.019 -3.8489  3.5285 -0.5501
13436TIP3    H261800   3.454   6.461   5.920  1.2922 -1.0015  1.0074
13437TIP3   OH261801   3.719   1.213   1.630  0.8562  0.2787 -0.1020
13437TIP3    H161802   3.674   1.142   1.677 -0.2192 -0.5241 -2.2171
13437TIP3    H261803   3.725   1.181   1.540  2.5208  1.9070 -0.6226
13438TIP3   OH261804   3.096   2.970   1.731 -0.4491 -0.1116 -0.0555
13438TIP3    H161805   3.154   3.044   1.716  0.2278 -0.6115  0.0477
13438TIP3    H261806   3.031   2.976   1.660  0.9115 -0.6844 -1.4205
13439TIP3   OH261807   3.300   1.990  16.319 -0.4299 -0.1250  0.1964
13439TIP3    H161808   3.239   2.038  16.262  1.8780  0.9336 -1.5375
13439TIP3    H261809   3.348   1.933  16.260  1.4358  0.3165  1.2226
13440TIP3   OH261810   3.505   3.001  11.611 -0.5793  0.1739  0.3662
13440TIP3    H161811   3.413   2.985  11.631 -0.6120 -1.3247 -0.8178
13440TIP3    H261812   3.548   3.008  11.696 -1.4849 -0.9925  0.9400
13441TIP3   OH261813   0.587   4.338   3.619 -0.1833 -0.4092  0.1653
13441TIP3    H161814   0.554   4.250   3.638  0.1357 -0.3641  0.9925
13441TIP3    H261815   0.669   4.343   3.668  0.2568  0.0402 -0.5922
13442TIP3   OH261816   0.267   6.204   4.033  0.2725  0.0179  0.0335
13442TIP3    H161817   0.176   6.229   4.044  0.0101 -0.5903 -0.7129
13442TIP3    H261818   0.289   6.157   4.114  0.1594  0.8137  0.5384
13443TIP3   OH261819   3.692   3.593  14.252  0.0573 -0.4778  0.0376
13443TIP3    H161820   3.601   3.576  14.229 -0.3005  0.2089  0.8914
13443TIP3    H261821   3.742   3.528  14.203 -0.5475  1.4088 -3.4117
13444TIP3   OH261822   1.351   1.890   1.342 -0.1137 -0.2235 -0.3879
13444TIP3    H161823   1.428   1.841   1.369  0.2071  0.9665  1.0232
13444TIP3    H261824   1.351   1.885   1.246  1.6068 -0.3995 -0.4042
13445TIP3   OH261825   6.395   1.098   1.940  0.1081  0.2003  0.5183
13445TIP3    H161826   6.454   1.119   1.867  0.3459 -0.3231  0.5536
13445TIP3    H261827   6.422   1.010   1.967  0.1277  0.4533  1.3435
13446TIP3   OH261828   2.728   5.679   5.795  0.0052  0.0087 -0.6158
13446TIP3    H161829   2.695   5.660   5.883  1.3583  1.5549  0.2830
13446TIP3    H261830   2.668   5.633   5.736 -0.5904 -1.5524  1.1224
13447TIP3   OH261831   6.783   2.212  17.136  0.4318 -0.0093 -0.0476
13447TIP3    H161832   6.711   2.233  17.196  1.7382  0.1317  1.5522
13447TIP3    H261833   6.742   2.161  17.067 -1.1821 -0.0627  0.8887
13448TIP3   OH261834   4.111   6.431   4.743  1.3314 -0.1977 -0.7051
13448TIP3    H161835   4.070   6.514   4.719 -0.8230 -0.6098  1.2273
13448TIP3    H261836   4.204   6.451   4.748  0.7728  2.4803  1.0296
13449TIP3   OH261837   4.471   6.782   4.743  0.5605 -0.1377  0.3823
13449TIP3    H161838   4.489   6.860   4.690 -0.2120 -0.7099 -0.7590
13449TIP3    H261839   4.530   6.715   4.708 -1.2174 -1.0411 -1.0618
13450TIP3   OH261840   3.976   2.609   6.367  0.4844  0.1737  0.4359
13450TIP3    H161841   4.002   2.521   6.338  1.2988  0.3678  0.5623
13450TIP3    H261842   3.893   2.625   6.322  0.4390 -0.5712  0.2392
13451TIP3   OH261843   4.864   0.265   1.466  0.1093 -0.1726 -0.3003
13451TIP3    H161844   4.951   0.295   1.438  0.0504  0.0510 -0.2415
13451TIP3    H261845   4.882   0.212   1.544  0.3824 -1.6439 -1.3156
13452TIP3   OH261846   2.184   3.657   2.900 -0.4308  0.1645  0.5713
13452TIP3    H161847   2.246   3.589   2.928 -0.0834  0.3562  0.2744
13452TIP3    H261848   2.129   3.671   2.977 -0.6536 -0.6120  0.5697
13453TIP3   OH261849   2.574   1.069  10.347  0.8287 -0.0846 -0.0845
13453TIP3    H161850   2.486   1.105  10.334  1.2613  0.2951 -2.2420
13453TIP3    H261851   2.622   1.141  10.388  0.8108  0.6454 -1.3158
13454TIP3   OH261852   6.827   1.619   6.213  0.4231  0.1476 -0.2423
13454TIP3    H161853   6.869   1.631   6.299 -0.0739 -0.5998  0.1166
13454TIP3    H261854   6.738   1.591   6.234  0.7085 -1.4321 -0.9763
13455TIP3   OH261855   2.051   4.577   4.264  0.2709 -0.0694  0.0040
13455TIP3    H161856   2.099   4.573   4.346 -1.3300  0.3338  1.0156
13455TIP3    H261857   2.055   4.488   4.229  0.7009 -0.3213  0.6748
13456TIP3   OH261858   5.032   0.459   3.549  0.1242 -0.1363 -0.6721
13456TIP3    H161859   5.113   0.508   3.539  0.4951 -0.9209 -1.6069
13456TIP3    H261860   5.011   0.466   3.643 -0.4114  2.6473 -0.9375
13457TIP3   OH261861   1.137   4.729  13.749 -0.3666  0.5267 -0.0921
13457TIP3    H161862   1.043   4.745  13.757 -0.1518  1.5021  0.7839
13457TIP3    H261863   1.162   4.775  13.669 -0.3934  1.5393  0.4647
13458TIP3   OH261864   1.491   3.136  14.269  0.4523 -0.2323  0.4759
13458TIP3    H161865   1.510   3.133  14.363  0.4500 -0.1588  0.4791
13458TIP3    H261866   1.432   3.062  14.255 -0.4367  0.4085  0.7380
13459TIP3   OH261867   3.547   3.216   3.085 -0.1286  0.3029  0.1518
13459TIP3    H161868   3.457   3.245   3.099 -0.5378 -1.3740  1.4639
13459TIP3    H261869   3.566   3.237   2.994 -2.4260 -0.6947 -0.6351
13460TIP3   OH261870   1.071   0.139  13.790  0.0069 -0.0737  0.3766
13460TIP3    H161871   0.980   0.138  13.763  0.1602  2.3246 -0.4618
13460TIP3    H261872   1.070   0.107  13.880 -1.5364 -0.8472  0.1037
13461TIP3   OH261873   5.514   4.103  12.290 -0.4585 -0.1007  0.4196
13461TIP3    H161874   5.557   4.070  12.211 -0.2441  0.7425  0.1759
13461TIP3    H261875   5.563   4.064  12.362 -0.5590 -0.7527  0.1453
13462TIP3   OH261876   2.916   4.521   4.864  0.3660 -0.4864  0.1336
13462TIP3    H161877   2.913   4.496   4.771 -0.4693 -0.9577  0.2789
13462TIP3    H261878   2.996   4.479   4.897  1.4434  0.8401 -0.6815
13463TIP3   OH261879   1.069   4.916   0.987  0.0870 -0.0824  0.1978
13463TIP3    H161880   1.030   4.829   0.976 -0.9042  0.5000 -1.3192
13463TIP3    H261881   1.105   4.937   0.901  2.9885 -0.1633  1.2903
13464TIP3   OH261882   0.690   0.748   0.003 -0.9144  0.1757 -0.4976
13464TIP3    H161883   0.785   0.756  -0.010 -0.9636 -0.5684 -1.4236
13464TIP3    H261884   0.679   0.665   0.050 -1.1704 -0.3380 -1.4394
13465TIP3   OH261885   5.732   2.260  10.733 -0.5531 -0.0268 -0.8379
13465TIP3    H161886   5.803   2.308  10.690 -0.6055 -0.5988 -1.5831
13465TIP3    H261887   5.657   2.270  10.674 -0.7668 -0.3955 -0.6319
13466TIP3   OH261888   1.940   0.829  11.396  0.6474 -0.2469 -0.5697
13466TIP3    H161889   1.954   0.747  11.348 -0.4234 -0.2762 -0.8609
13466TIP3    H261890   2.003   0.890  11.357 -0.2934 -0.2226 -2.1664
13467TIP3   OH261891   6.559   1.196  12.938 -0.6037  0.4250  0.6157
13467TIP3    H161892   6.492   1.217  13.003 -1.4375  0.8105 -0.3372
13467TIP3    H261893   6.545   1.103  12.918  0.2258  0.0666  1.6036
13468TIP3   OH261894   5.852   4.576  16.503 -0.5724 -0.5591 -0.2436
13468TIP3    H161895   5.929   4.630  16.490  0.5058 -1.8439  0.4911
13468TIP3    H261896   5.821   4.555  16.415  1.3598 -1.9636 -0.6490
13469TIP3   OH261897   2.195   5.751   2.005 -0.2522  0.2924  0.6158
13469TIP3    H161898   2.147   5.794   2.075  1.1075  4.6207 -0.7994
13469TIP3    H261899   2.215   5.821   1.943  3.5199 -2.1504 -1.3113
13470TIP3   OH261900   0.193   3.873  11.494  0.0232 -0.3962  0.1104
13470TIP3    H161901   0.287   3.886  11.487 -0.1300  0.4852 -0.4749
13470TIP3    H261902   0.155   3.937  11.433 -0.9759 -0.2955  0.8141
13471TIP3   OH261903   1.528   2.952  15.318 -0.2027  0.3745  0.1301
13471TIP3    H161904   1.506   2.932  15.409 -1.0369 -1.9716 -0.5104
13471TIP3    H261905   1.586   3.028  15.323 -0.1542  0.2450  2.6100
13472TIP3   OH261906   6.073   0.381  14.182 -0.3153 -0.7194  0.8197
13472TIP3    H161907   6.160   0.347  14.203  0.0005 -0.0238  0.6444
13472TIP3    H261908   6.055   0.444  14.251  0.4767  1.1492 -0.6082
13473TIP3   OH261909   0.212   1.889   6.021  0.0530 -0.6562  0.3382
13473TIP3    H161910   0.279   1.891   5.953  1.3600  0.3094  1.6129
13473TIP3    H261911   0.169   1.804   6.009  0.0774 -0.4179 -1.8150
13474TIP3   OH261912   2.595   4.615   3.312  0.2744 -0.1586 -0.6010
13474TIP3    H161913   2.550   4.597   3.229 -0.1345 -0.7511 -0.2589
13474TIP3    H261914   2.664   4.549   3.316 -0.7290 -1.2050  0.2845
13475TIP3   OH261915   4.941   3.630   3.419 -0.3932  0.7649  0.2987
13475TIP3    H161916   4.959   3.715   3.459  0.2732  0.2325  1.1602
13475TIP3    H261917   5.008   3.571   3.455 -0.9527 -0.1710 -0.1442
13476TIP3   OH261918   5.874   3.575   2.695 -0.0430  0.2453  0.0718
13476TIP3    H161919   5.918   3.493   2.719  1.9949  1.5544  1.0687
13476TIP3    H261920   5.821   3.552   2.618  1.1151 -1.8054 -0.1915
13477TIP3   OH261921   2.629   0.573   4.795 -0.3366 -0.1188  0.6310
13477TIP3    H161922   2.688   0.597   4.865  1.0927 -2.3091  0.2700
13477TIP3    H261923   2.545   0.613   4.819  0.3903  0.1271  2.9716
13478TIP3   OH261924   2.236   5.303   0.675 -0.3244 -0.1979  0.0996
13478TIP3    H161925   2.179   5.226   0.663  0.8988 -1.4377  1.6652
13478TIP3    H261926   2.180   5.367   0.720 -0.7607 -1.0512  0.8185
13479TIP3   OH261927   4.825   2.119  14.456 -0.4139  0.0937 -0.3858
13479TIP3    H161928   4.885   2.122  14.381  0.1696 -0.4643  0.0508
13479TIP3    H261929   4.753   2.063  14.425 -1.3024  1.6834 -1.3136
13480TIP3   OH261930   3.723   5.484  14.584  0.5960  0.2104 -0.2012
13480TIP3    H161931   3.654   5.422  14.560  2.7514 -2.2967 -0.2968
13480TIP3    H261932   3.746   5.461  14.674  0.0660  2.3243  0.5469
13481TIP3   OH261933   1.333   1.512   2.026  0.1615  0.0765  0.3715
13481TIP3    H161934   1.382   1.457   2.088  2.2820  0.8743 -0.5120
13481TIP3    H261935   1.324   1.458   1.948  0.9868  0.4777 -0.0009
13482TIP3   OH261936   4.656   0.997  14.972 -0.0762 -0.6945  0.1181
13482TIP3    H161937   4.718   0.944  15.021 -1.2598 -1.3513  0.9622
13482TIP3    H261938   4.573   0.985  15.018 -0.8548  0.0742 -1.0318
13483TIP3   OH261939   3.072   1.116   5.859  0.3459  0.3887  0.3593
13483TIP3    H161940   3.070   1.211   5.868  2.0847  0.4529  0.4016
13483TIP3    H261941   3.083   1.084   5.948  1.0762  0.2125  0.2062
13484TIP3   OH261942   2.972   2.686  13.050  0.0239  0.7460 -0.7256
13484TIP3    H161943   3.039   2.751  13.071  0.6359  0.0270 -0.3862
13484TIP3    H261944   2.899   2.706  13.109  0.6909  0.3843  0.2523
13485TIP3   OH261945   2.373   2.791   5.495 -0.1509  0.7470 -0.2919
13485TIP3    H161946   2.461   2.753   5.505 -0.3178  0.1501 -0.9892
13485TIP3    H261947   2.383   2.882   5.522  0.8727  0.8917 -1.0863
13486TIP3   OH261948   6.288   3.725   1.504 -0.3277 -0.7106 -0.3217
13486TIP3    H161949   6.337   3.702   1.424  0.5398 -1.7671  0.4742
13486TIP3    H261950   6.345   3.788   1.549 -1.6375  1.3302 -1.3578
13487TIP3   OH261951   5.141   0.438  13.120 -0.7452  0.5097 -0.3869
13487TIP3    H161952   5.097   0.514  13.157  0.4167  0.8121  0.4250
13487TIP3    H261953   5.167   0.386  13.197  0.1584  0.2703 -0.8437
13488TIP3   OH261954   3.247   3.401   5.794 -0.1028 -0.3135 -0.5805
13488TIP3    H161955   3.305   3.404   5.718 -0.8268 -1.1642 -1.1992
13488TIP3    H261956   3.304   3.418   5.869  0.5044  1.2236 -1.3588
13489TIP3   OH261957   6.356   2.529  15.493 -0.0928 -0.2712  0.6092
13489TIP3    H161958   6.291   2.484  15.546  0.6078 -0.7820  1.0517
13489TIP3    H261959   6.361   2.479  15.412 -1.4166  0.7104 -0.1147
13490TIP3   OH261960   6.180   6.793   6.621  0.2340  0.3470 -0.3203
13490TIP3    H161961   6.170   6.766   6.712  2.6227  0.8472  0.1542
13490TIP3    H261962   6.097   6.835   6.599 -0.1933  0.7155  1.7990
13491TIP3   OH261963   6.722   0.185  11.834 -0.8150 -0.0075  0.2069
13491TIP3    H161964   6.717   0.279  11.815  1.1071 -0.1509 -1.3510
13491TIP3    H261965   6.748   0.180  11.926 -1.0246  0.9733  0.3292
13492TIP3   OH261966   4.777   6.678   5.335  0.2158 -0.1392 -0.0453
13492TIP3    H161967   4.760   6.725   5.417  1.4651 -1.4391  1.0271
13492TIP3    H261968   4.838   6.735   5.288 -2.3349  1.7802 -1.2785
13493TIP3   OH261969   2.759   0.803  12.932  0.3949  0.3116 -0.1836
13493TIP3    H161970   2.686   0.799  12.994 -0.1715  0.6045 -0.8159
13493TIP3    H261971   2.796   0.891  12.945 -0.4929  0.8442 -1.0922
13494TIP3   OH261972   3.396   4.830  14.326  0.2330  0.5389  1.1193
13494TIP3    H161973   3.428   4.744  14.355  2.1253  1.0200  0.5531
13494TIP3    H261974   3.350   4.812  14.244  2.6728  0.3212 -0.2669
13495TIP3   OH261975   0.792   2.928   2.734 -0.5630  0.4058  0.3850
13495TIP3    H161976   0.872   2.880   2.710 -0.1978  0.9562  0.4831
13495TIP3    H261977   0.814   3.020   2.718 -0.2650  0.8284  2.8318
13496TIP3   OH261978   3.098   3.301   4.055 -0.2822 -0.2136  0.0789
13496TIP3    H161979   3.134   3.216   4.083 -0.1998 -0.0322  0.5244
13496TIP3    H261980   3.028   3.320   4.117 -0.5652 -0.1411 -0.2600
13497TIP3   OH261981   5.125   5.124  15.561 -0.4151  0.5269  0.4258
13497TIP3    H161982   5.094   5.213  15.542  0.7631  0.5838 -1.4396
13497TIP3    H261983   5.105   5.075  15.481 -0.4376 -0.7275  1.1886
13498TIP3   OH261984   2.130   3.044   5.594  0.5112 -0.2421  0.3629
13498TIP3    H161985   2.135   3.129   5.638  0.8987 -0.1413  0.1280
13498TIP3    H261986   2.080   3.061   5.514 -0.6074 -0.5233  0.9878
13499TIP3   OH261987   1.429   6.713   1.179 -0.2951  0.6176  0.5856
13499TIP3    H161988   1.402   6.777   1.245  1.2810  0.2750  1.6228
13499TIP3    H261989   1.388   6.631   1.207 -0.3686  0.6656  0.6191
13500TIP3   OH261990   4.261   3.229   1.669 -0.4148 -0.3876 -0.1922
13500TIP3    H161991   4.331   3.164   1.665  1.0939  1.2077 -2.2783
13500TIP3    H261992   4.303   3.309   1.700 -2.0913 -0.1590  1.7319
13501TIP3   OH261993   0.773   6.456  14.842  0.0558 -0.1095 -1.0052
13501TIP3    H161994   0.710   6.524  14.866  1.4837  1.1315 -0.6198
13501TIP3    H261995   0.742   6.423  14.758 -0.1489  1.7314 -1.7063
13502TIP3   OH261996   2.319   2.750   3.748 -0.1512 -0.7557  0.3255
13502TIP3    H161997   2.323   2.773   3.655 -0.9893 -0.9596  0.2278
13502TIP3    H261998   2.370   2.818   3.792 -1.6676  0.7032 -0.0653
13503TIP3   OH261999   1.221   2.955   3.057  0.0297 -0.8650 -0.1451
13503TIP3    H162000   1.241   2.992   3.143 -0.9509  1.4825 -0.8439
13503TIP3    H262001   1.125   2.962   3.050  0.1422 -0.4621 -1.6417
13504TIP3   OH262002   5.299   4.060  15.205 -0.1742 -0.1716 -0.1954
13504TIP3    H162003   5.342   4.135  15.246  0.4570 -0.1731 -0.8280
13504TIP3    H262004   5.306   3.990  15.270 -0.3299  0.1775  0.2038
13505TIP3   OH262005   1.994   6.350   0.677  0.2310 -0.0508  0.0443
13505TIP3    H162006   2.067   6.405   0.707 -0.8722  1.3537  0.2511
13505TIP3    H262007   2.003   6.270   0.728  1.2216  0.3837  0.5954
13506TIP3   OH262008   1.081   6.158  12.474  0.4110 -0.2325 -0.6879
13506TIP3    H162009   1.172   6.142  12.501  0.1150  0.8498  1.0827
13506TIP3    H262010   1.028   6.113  12.540 -0.3336  0.9587 -0.4331
13507TIP3   OH262011   5.699   5.041   0.516  0.5152  0.1509 -0.3227
13507TIP3    H162012   5.739   5.004   0.595  1.0143 -0.7154 -0.9625
13507TIP3    H262013   5.745   5.124   0.503  1.8335 -0.6215 -0.7955
13508TIP3   OH262014   0.502   3.587  11.595  0.4381 -0.0398  0.8240
13508TIP3    H162015   0.466   3.515  11.646 -2.7823  3.1316  3.5176
13508TIP3    H262016   0.442   3.596  11.521 -0.9568  1.5366  2.0753
13509TIP3   OH262017   4.508   5.746  16.257 -0.5147  0.4889 -0.8140
13509TIP3    H162018   4.590   5.771  16.215  1.4814  2.0105  3.3743
13509TIP3    H262019   4.534   5.686  16.326 -3.3149 -0.8330 -0.7817
13510TIP3   OH262020   0.388   3.662   2.779  0.6501  0.3358  0.6227
13510TIP3    H162021   0.471   3.688   2.819  1.1720  0.2616 -0.3948
13510TIP3    H262022   0.402   3.672   2.685 -0.1259 -0.7599  0.3764
13511TIP3   OH262023   5.258   4.459   1.904 -0.4318 -0.0988 -0.6584
13511TIP3    H162024   5.237   4.551   1.887 -1.3058  0.1490  1.4135
13511TIP3    H262025   5.178   4.423   1.943 -0.1238 -1.7756 -1.4976
13512TIP3   OH262026   5.685   2.505   4.813 -0.4849 -0.3582 -0.1183
13512TIP3    H162027   5.705   2.514   4.906  0.3929  1.6875 -0.4386
13512TIP3    H262028   5.634   2.424   4.807 -0.3117 -0.7012  2.0794
13513TIP3   OH262029   4.014   1.717   1.256 -0.2038 -0.1327  0.2076
13513TIP3    H162030   3.951   1.761   1.313  0.9633  2.4491 -0.3318
13513TIP3    H262031   4.079   1.681   1.316 -0.1508  0.6405  0.6314
13514TIP3   OH262032   6.774   5.734   2.371  0.0567  0.0303 -0.0972
13514TIP3    H162033   6.679   5.723   2.372  0.1196 -0.5700 -0.0244
13514TIP3    H262034   6.803   5.692   2.453  0.4873 -0.8747 -0.6937
13515TIP3   OH262035   2.137   2.134  14.873  0.3651  0.3028 -0.3294
13515TIP3    H162036   2.059   2.181  14.845  0.8366  0.8532 -0.7514
13515TIP3    H262037   2.200   2.147  14.801  0.4967 -0.9945 -0.4586
13516TIP3   OH262038   1.092   5.574   5.655  0.0515  0.1738 -0.0932
13516TIP3    H162039   1.077   5.617   5.571  1.4988  1.5124  0.2979
13516TIP3    H262040   1.017   5.516   5.665 -1.7128  2.1900 -0.9038
13517TIP3   OH262041   3.509   6.322   1.009  0.3788 -0.0378 -0.2305
13517TIP3    H162042   3.555   6.396   0.969  0.2476 -0.2866 -0.8565
13517TIP3    H262043   3.426   6.358   1.038  1.4685  0.7410  2.1344
13518TIP3   OH262044   3.531   0.765  11.618 -0.0655  0.4500  0.3016
13518TIP3    H162045   3.594   0.726  11.557  0.7135  1.1513  0.6290
13518TIP3    H262046   3.521   0.855  11.587 -1.6930  0.0837 -0.3372
13519TIP3   OH262047   4.277   4.345  16.563  0.1057  0.2570  0.0911
13519TIP3    H162048   4.320   4.427  16.537 -0.9846  1.0820  0.8106
13519TIP3    H262049   4.205   4.336  16.501 -1.1480  1.0591  1.3729
13520TIP3   OH262050   0.026   5.353   0.333 -0.0497 -0.1217  0.2304
13520TIP3    H162051  -0.008   5.419   0.394 -0.6483 -0.5842  0.4056
13520TIP3    H262052  -0.045   5.290   0.324  0.2994 -0.4318 -0.4029
13521TIP3   OH262053   6.554   5.892   3.172 -0.3174 -0.1448 -0.1933
13521TIP3    H162054   6.612   5.925   3.103  2.5936 -0.0827  2.0856
13521TIP3    H262055   6.593   5.809   3.198 -0.1591  0.6957  2.5756
13522TIP3   OH262056   3.339   4.075  12.333  0.1673  0.4075 -0.6782
13522TIP3    H162057   3.425   4.064  12.292  1.3527  1.8391  1.2652
13522TIP3    H262058   3.348   4.031  12.418 -1.7496 -1.2377 -1.2500
13523TIP3   OH262059   4.731   2.871   2.969  0.2073 -0.0864  0.5726
13523TIP3    H162060   4.743   2.824   3.051 -1.0736 -2.0547 -0.3052
13523TIP3    H262061   4.814   2.859   2.923  0.6279  0.3190  1.2048
13524TIP3   OH262062   3.870   5.935  15.761 -0.4286 -0.0654 -0.1626
13524TIP3    H162063   3.821   5.937  15.843 -1.0040 -1.2122 -0.4647
13524TIP3    H262064   3.808   5.966  15.695 -0.2532 -0.0322 -0.3132
13525TIP3   OH262065   5.230   1.140  13.306  0.1522 -0.3425  0.3435
13525TIP3    H162066   5.208   1.084  13.231  0.2548 -1.4012  1.0995
13525TIP3    H262067   5.275   1.215  13.267  1.1666 -1.3944 -0.5575
13526TIP3   OH262068   5.185   6.763   3.914 -0.1591  0.0003  0.3469
13526TIP3    H162069   5.132   6.684   3.925 -0.6360 -0.1876 -2.5403
13526TIP3    H262070   5.262   6.733   3.865 -0.6450  1.3659 -1.3487
13527TIP3   OH262071   3.526   0.558  15.238 -0.0223 -0.3090 -0.1623
13527TIP3    H162072   3.612   0.516  15.242 -0.8707 -2.2964 -1.3031
13527TIP3    H262073   3.511   0.591  15.326  1.4644 -0.8488  0.3169
13528TIP3   OH262074   0.045   5.838  16.122  0.4887  0.5325  0.1860
13528TIP3    H162075   0.045   5.835  16.026 -1.3398  1.9477  0.0812
13528TIP3    H262076   0.106   5.769  16.148  1.6104  0.6118 -1.9980
13529TIP3   OH262077   2.497   4.786   2.758  0.1126 -0.0349 -0.4965
13529TIP3    H162078   2.427   4.838   2.719 -0.2679  0.2715  0.5366
13529TIP3    H262079   2.538   4.846   2.821  2.1670  0.2151 -1.9962
13530TIP3   OH262080   4.346   0.136   0.025 -0.6201 -0.3122  0.1991
13530TIP3    H162081   4.402   0.166   0.096 -0.5999 -1.6910  0.8102
13530TIP3    H262082   4.258   0.158   0.053 -0.4764  1.0817 -0.3654
13531TIP3   OH262083   6.492   6.397   4.692 -0.9875 -0.3378  0.1588
13531TIP3    H162084   6.545   6.330   4.736  0.8918 -1.4111 -3.3353
13531TIP3    H262085   6.554   6.467   4.671 -1.1855 -0.8510 -2.5255
13532TIP3   OH262086   2.755   2.682  14.533 -0.9116 -0.3570 -0.9384
13532TIP3    H162087   2.763   2.684  14.438 -0.9724 -0.3801 -0.9440
13532TIP3    H262088   2.670   2.722  14.551 -0.9018 -0.3557 -0.8940
13533TIP3   OH262089   2.939   2.384   2.237  0.2716  0.0881  0.1106
13533TIP3    H162090   2.975   2.472   2.245  0.1661  0.0758  0.7355
13533TIP3    H262091   2.888   2.386   2.156 -0.7317  0.9457  0.7500
13534TIP3   OH262092   0.406   2.386   1.203 -0.0613 -0.6872 -0.1972
13534TIP3    H162093   0.483   2.364   1.255 -1.9589 -0.9325  2.7844
13534TIP3    H262094   0.348   2.310   1.215 -1.4575  0.2521 -0.8153
13535TIP3   OH262095   5.342   2.034  15.187  0.2546 -0.2128  0.7101
13535TIP3    H162096   5.308   1.999  15.269 -0.4588  0.6864  0.8207
13535TIP3    H262097   5.436   2.018  15.191  0.2336 -0.1390  1.7294
13536TIP3   OH262098   5.256   5.303   3.982 -0.4533  0.3274 -0.3212
13536TIP3    H162099   5.207   5.265   3.909 -0.0435  1.0424 -0.9806
13536TIP3    H262100   5.261   5.396   3.962 -1.7434  0.8298  1.4351
13537TIP3   OH262101   0.492   3.144  13.454 -0.2906  0.0540 -0.3646
13537TIP3    H162102   0.547   3.210  13.411 -1.6047 -0.2679 -2.7362
13537TIP3    H262103   0.409   3.189  13.470 -0.6672 -0.5722 -0.5345
13538TIP3   OH262104   4.956   4.735  14.554 -0.4194 -0.3503 -0.3463
13538TIP3    H162105   4.987   4.824  14.569  1.6325 -1.3259  1.9278
13538TIP3    H262106   4.973   4.719  14.462 -0.4216  1.4374 -0.6981
13539TIP3   OH262107   6.391   3.002  13.694 -0.3656 -0.3670  0.4145
13539TIP3    H162108   6.475   3.038  13.724 -0.7242 -0.2840  1.3642
13539TIP3    H262109   6.365   3.059  13.621  1.0646 -1.2335 -0.8213
13540TIP3   OH262110   6.131   2.359   1.633 -0.1537 -0.3742  0.2458
13540TIP3    H162111   6.141   2.287   1.696 -0.1517 -1.4239 -0.8964
13540TIP3    H262112   6.088   2.318   1.558  2.4911  0.0798 -1.6492
13541TIP3   OH262113   3.627   6.688  15.817  0.3704 -0.1959 -0.0613
13541TIP3    H162114   3.684   6.679  15.740  0.5080  0.1676 -0.0045
13541TIP3    H262115   3.614   6.599  15.848  1.8648 -0.1893  0.6246
13542TIP3   OH262116   0.259   6.701   0.095  0.1509  0.7017 -0.1384
13542TIP3    H162117   0.197   6.655   0.039  0.2249  2.2291 -1.5736
13542TIP3    H262118   0.293   6.634   0.153 -2.6835 -0.2491  0.6053
13543TIP3   OH262119   5.988   5.365  15.026 -0.0255 -0.0230  0.1395
13543TIP3    H162120   6.042   5.438  15.058 -1.0626  1.0406 -0.4580
13543TIP3    H262121   5.939   5.337  15.103  1.5349 -1.1915  0.7608
13544TIP3   OH262122   1.391   0.016   1.672  0.2046 -0.7404 -0.2799
13544TIP3    H162123   1.312  -0.007   1.720  0.5970  0.2405  0.8853
13544TIP3    H262124   1.444  -0.064   1.674 -0.2633 -1.0508 -0.0696
13545TIP3   OH262125   5.748   0.122  15.542 -0.3356  0.2419  0.6746
13545TIP3    H162126   5.831   0.081  15.518  0.1897  0.8392  1.4412
13545TIP3    H262127   5.689   0.048  15.558 -0.5055 -0.2021 -1.6112
13546TIP3   OH262128   0.990   2.315  11.886  0.5160  0.1915 -0.2868
13546TIP3    H162129   1.081   2.322  11.916  1.1060  0.6179 -2.0409
13546TIP3    H262130   0.959   2.405  11.881  0.4844  0.1474 -1.0346
13547TIP3   OH262131   1.678   5.037   3.752 -0.1929 -0.2289  0.1882
13547TIP3    H162132   1.595   4.992   3.767  0.1620 -0.0733  3.2972
13547TIP3    H262133   1.740   4.990   3.807  1.7143  0.0027 -1.6441
13548TIP3   OH262134   5.746   3.207  10.480 -0.3475 -0.5471  0.2895
13548TIP3    H162135   5.688   3.172  10.412  1.7651 -2.1406 -0.7793
13548TIP3    H262136   5.753   3.136  10.544  2.3105 -1.3919 -0.8373
13549TIP3   OH262137   5.428   4.070  12.557  0.1258  0.2334  0.4893
13549TIP3    H162138   5.365   4.057  12.486  1.0785 -1.1732 -0.1667
13549TIP3    H262139   5.381   4.118  12.624 -0.9594  1.1697 -0.9017
13550TIP3   OH262140   6.552   2.324  11.643  0.0578 -0.6336 -0.1252
13550TIP3    H162141   6.489   2.261  11.608 -2.5034  1.3104  0.6823
13550TIP3    H262142   6.546   2.313  11.738  2.2072 -1.4699 -0.0165
13551TIP3   OH262143   5.669   1.416   4.605 -0.0770  0.8451  0.2188
13551TIP3    H162144   5.713   1.341   4.563 -0.5960  0.7015 -0.0700
13551TIP3    H262145   5.613   1.376   4.671  0.4106  1.0469  0.7608
13552TIP3   OH262146   5.314   0.991   4.200  0.3265 -0.2529  0.3158
13552TIP3    H162147   5.378   0.931   4.237  1.7129  0.4762 -0.8048
13552TIP3    H262148   5.341   1.002   4.109 -1.6051 -0.1735 -0.2873
13553TIP3   OH262149   4.849   3.623  15.887 -0.1975  0.0154 -0.0222
13553TIP3    H162150   4.843   3.598  15.795  1.3453 -0.2287 -0.0682
13553TIP3    H262151   4.898   3.553  15.929 -0.5672  0.3017  0.9320
13554TIP3   OH262152   6.035   4.897  13.469  0.4367  0.1624  0.0782
13554TIP3    H162153   5.981   4.826  13.435 -2.5350  2.8359 -1.3964
13554TIP3    H262154   6.068   4.942  13.391 -0.3097  2.0929  0.7992
13555TIP3   OH262155   5.644   1.098   5.135  0.4095  0.2658 -0.1743
13555TIP3    H162156   5.611   1.188   5.131 -0.4475 -0.0096  0.3512
13555TIP3    H262157   5.573   1.048   5.174  1.3599 -0.4004  0.7864
13556TIP3   OH262158   3.368   2.470   5.182 -0.3449 -0.1927  0.0558
13556TIP3    H162159   3.366   2.408   5.110  0.5914  1.8939 -1.8855
13556TIP3    H262160   3.276   2.489   5.200 -0.5963 -1.0609 -0.2997
13557TIP3   OH262161   2.485   5.582  14.601  0.2854  0.0749  0.6472
13557TIP3    H162162   2.539   5.580  14.680  0.0711 -0.3302  0.7845
13557TIP3    H262163   2.545   5.556  14.531 -0.1775 -2.4175  1.0778
13558TIP3   OH262164   5.760   1.398  15.395  0.1726  0.3712 -0.1877
13558TIP3    H162165   5.786   1.452  15.469 -3.1004  1.4879  0.3445
13558TIP3    H262166   5.825   1.416  15.327  0.9985  2.4964  1.0643
13559TIP3   OH262167   6.273   2.613  11.761 -0.0787 -0.3406  0.3068
13559TIP3    H162168   6.348   2.613  11.701 -0.5366  0.9067 -0.3058
13559TIP3    H262169   6.288   2.538  11.818  3.5793  1.8224  2.6225
13560TIP3   OH262170   5.677   5.683  13.270 -0.5633 -0.4463  0.2080
13560TIP3    H162171   5.703   5.592  13.254  0.7897  0.0736 -0.7072
13560TIP3    H262172   5.643   5.683  13.359  1.5094 -1.4458  1.0551
13561TIP3   OH262173   1.494   5.372  15.322  0.1231 -0.6220 -0.2763
13561TIP3    H162174   1.526   5.332  15.241  1.4339  0.6942 -0.4604
13561TIP3    H262175   1.520   5.311  15.391  2.2432 -0.1023 -0.5275
13562TIP3   OH262176   6.059   6.263   0.161  0.1380 -0.3629  0.3527
13562TIP3    H162177   6.006   6.265   0.081 -1.2653 -1.3491  1.2162
13562TIP3    H262178   5.998   6.284   0.231  1.2929  0.2254  1.2232
13563TIP3   OH262179   0.114   6.641   1.125  0.3702 -0.3637 -0.4988
13563TIP3    H162180   0.150   6.673   1.208 -0.9396 -1.2415  0.4395
13563TIP3    H262181   0.075   6.557   1.146  0.7694 -1.0239 -2.2076
13564TIP3   OH262182   2.051   2.342   2.324 -0.1618  0.0876  0.1113
13564TIP3    H162183   2.084   2.394   2.251 -0.7626 -2.2799 -1.9729
13564TIP3    H262184   1.979   2.292   2.287  2.4569 -4.8350  0.8594
13565TIP3   OH262185   1.738   5.173  14.309 -0.3067 -0.0065 -0.0218
13565TIP3    H162186   1.725   5.135  14.223  0.4270 -0.9705  0.2836
13565TIP3    H262187   1.687   5.118  14.368 -1.5907  1.2121  0.0636
13566TIP3   OH262188   5.495   5.392  13.390  0.0960  0.2440 -0.3891
13566TIP3    H162189   5.474   5.432  13.305 -0.1243  1.4315  0.1940
13566TIP3    H262190   5.531   5.464  13.442  0.4096 -0.5097  0.4662
13567TIP3   OH262191   0.043   6.367   3.487 -0.2764 -0.0816 -0.6296
13567TIP3    H162192   0.005   6.443   3.444 -1.0765 -0.7168 -1.0561
13567TIP3    H262193  -0.018   6.295   3.470 -0.1599 -0.5608  0.7940
13568TIP3   OH262194   2.515   2.406  14.644  0.0851  0.0181 -0.1737
13568TIP3    H162195   2.583   2.450  14.695 -0.4475 -1.0742  1.5744
13568TIP3    H262196   2.552   2.399  14.556  0.7679  2.5701 -0.1726
13569TIP3   OH262197   0.744   4.624   1.140  0.7488 -0.6056 -0.1470
13569TIP3    H162198   0.688   4.556   1.178  0.4892 -1.3851 -1.8547
13569TIP3    H262199   0.805   4.647   1.210  0.9463 -2.7126  0.4247
13570TIP3   OH262200   1.114   4.188   0.885 -0.3351  0.0672 -0.1187
13570TIP3    H162201   1.153   4.233   0.810  0.9365  0.0121  0.4918
13570TIP3    H262202   1.051   4.251   0.920  0.4386  0.8520 -0.0955
13571TIP3   OH262203   1.211   2.286  15.481 -0.0031 -0.2522 -0.0295
13571TIP3    H162204   1.169   2.342  15.415 -1.1149 -0.6941  0.2788
13571TIP3    H262205   1.154   2.293  15.558  1.6012  0.7578  1.1425
13572TIP3   OH262206   2.230   5.917  13.660  0.6259  0.2431  0.1298
13572TIP3    H162207   2.186   5.956  13.735  0.1251  0.2628 -0.1649
13572TIP3    H262208   2.277   5.842  13.695  1.6491  1.1310  0.7145
13573TIP3   OH262209   6.400   2.309   3.323  0.4406  0.1334  0.4415
13573TIP3    H162210   6.313   2.299   3.363 -0.7779  1.7490 -1.5703
13573TIP3    H262211   6.415   2.226   3.278 -0.8512  0.4060 -0.5426
13574TIP3   OH262212   1.770   2.334   5.975 -0.0100  0.5875 -0.4188
13574TIP3    H162213   1.862   2.342   5.951  0.2470  0.7892  0.6220
13574TIP3    H262214   1.768   2.346   6.070 -0.9158 -0.9945 -0.2015
13575TIP3   OH262215   6.601   5.096  16.982 -0.7770  0.0728  0.3801
13575TIP3    H162216   6.534   5.085  16.915  0.5968 -2.7714 -0.6824
13575TIP3    H262217   6.577   5.033  17.051 -0.0637  0.1533  0.7119
13576TIP3   OH262218   6.600   5.677  10.416  0.4869 -0.3860  0.6238
13576TIP3    H162219   6.604   5.672  10.512 -0.0431  0.3684  0.6905
13576TIP3    H262220   6.586   5.770  10.398  1.6608 -0.3521 -0.2306
13577TIP3   OH262221   4.850   4.654  14.302  0.2875  0.1678  0.3143
13577TIP3    H162222   4.876   4.677  14.212  0.5727 -0.5555  0.2110
13577TIP3    H262223   4.769   4.703  14.316  0.1131  0.1035 -0.4260
13578TIP3   OH262224   4.764   5.349  15.543 -0.3607  0.1855  0.2599
13578TIP3    H162225   4.815   5.306  15.611  1.7749  1.4841 -0.4052
13578TIP3    H262226   4.673   5.327  15.563  0.2351 -0.1036  3.0351
13579TIP3   OH262227   2.646   1.412  11.502 -0.1004  0.0427 -0.0826
13579TIP3    H162228   2.716   1.477  11.499  1.9620 -2.0010  0.2783
13579TIP3    H262229   2.585   1.439  11.433  0.8382  2.1091 -0.1916
13580TIP3   OH262230   0.929   4.339   3.977 -0.1749  0.1032  0.2482
13580TIP3    H162231   0.961   4.307   4.062  0.4444  0.1107  0.0278
13580TIP3    H262232   0.957   4.430   3.974 -0.7049  0.2663  0.2790
13581TIP3   OH262233   5.116   5.730   2.112 -0.2120 -0.1652  0.4718
13581TIP3    H162234   5.075   5.759   2.031 -1.8879 -4.1143 -0.3512
13581TIP3    H262235   5.062   5.769   2.181 -1.0762  0.3014 -0.4433
13582TIP3   OH262236   2.404   0.805  14.391 -0.0633 -0.5923 -0.5052
13582TIP3    H162237   2.411   0.898  14.370 -0.3452 -0.1577  1.1566
13582TIP3    H262238   2.488   0.767  14.364 -0.1877  0.0050 -1.7742
13583TIP3   OH262239   0.152   6.719  13.563  0.1078  0.5923  0.6372
13583TIP3    H162240   0.183   6.791  13.509  1.8987  0.1079  0.9585
13583TIP3    H262241   0.212   6.647  13.545  0.5344  0.2981  2.9470
13584TIP3   OH262242   1.314   1.826  12.694 -0.2906 -0.3419  0.1983
13584TIP3    H162243   1.304   1.745  12.742  0.2515  0.2081  1.2838
13584TIP3    H262244   1.294   1.803  12.603 -2.8790 -1.0652  0.8677
13585TIP3   OH262245   2.439   1.362   5.821 -0.4505  0.0530  0.5968
13585TIP3    H162246   2.525   1.362   5.780  0.1913 -0.7091  1.8658
13585TIP3    H262247   2.396   1.441   5.787  0.8070  0.5415  0.0757
13586TIP3   OH262248   6.425   2.415  13.093 -0.0666  0.5177  0.5654
13586TIP3    H162249   6.461   2.436  13.007 -0.0671  2.3099  0.9737
13586TIP3    H262250   6.330   2.424  13.082 -0.4545 -3.0590 -0.2009
13587TIP3   OH262251   0.217   6.271   2.567 -0.0834 -0.2357 -0.5233
13587TIP3    H162252   0.218   6.190   2.618 -0.3080 -0.1113 -0.3209
13587TIP3    H262253   0.306   6.306   2.576 -0.2462  0.0129  0.1474
13588TIP3   OH262254   2.250   0.496   6.214  0.9277 -0.4036 -0.4243
13588TIP3    H162255   2.293   0.469   6.296 -0.9920  0.6169  0.9994
13588TIP3    H262256   2.314   0.555   6.173  1.6030 -0.2609  0.7731
13589TIP3   OH262257   6.095   0.512   2.912  0.3150  0.3291 -0.4785
13589TIP3    H162258   6.109   0.419   2.927 -1.9804 -0.0271 -0.1833
13589TIP3    H262259   6.013   0.517   2.863  1.1538  2.1481 -1.8208
13590TIP3   OH262260   5.784   0.111  15.177 -0.0708 -0.0831 -0.0844
13590TIP3    H162261   5.792   0.032  15.231  1.1640  0.6245  0.8034
13590TIP3    H262262   5.839   0.093  15.101 -1.7259 -1.0368 -1.1231
13591TIP3   OH262263   4.555   1.115  11.780  0.3246 -0.3200  0.1725
13591TIP3    H162264   4.649   1.098  11.784  0.3874  0.1127  0.6667
13591TIP3    H262265   4.520   1.071  11.857  0.1826 -0.1392  0.2118
13592TIP3   OH262266   4.579   0.184  13.241 -0.1588  0.3983 -0.4537
13592TIP3    H162267   4.490   0.160  13.215 -0.2905 -0.4329  0.7328
13592TIP3    H262268   4.577   0.279  13.247 -1.3630  0.3090  0.9287
13593TIP3   OH262269   4.391   4.614  16.486  0.3217  0.0513  0.0457
13593TIP3    H162270   4.437   4.690  16.522 -0.6682  0.2497  0.9330
13593TIP3    H262271   4.450   4.580  16.419  1.8861  0.1396  1.3178
13594TIP3   OH262272   5.039   3.030   0.634  0.4042 -0.1550 -0.1810
13594TIP3    H162273   4.946   3.011   0.639  0.8191 -2.3403  4.6594
13594TIP3    H262274   5.043   3.119   0.597 -3.6610  0.5310  0.5337
13595TIP3   OH262275   6.512   6.742  16.078 -0.3029  0.2030  0.1865
13595TIP3    H162276   6.561   6.693  16.144 -0.2616 -0.5352 -0.3724
13595TIP3    H262277   6.451   6.796  16.128 -1.6091 -1.7571  0.8289
13596TIP3   OH262278   2.624   2.211  15.850  0.0753  0.1984  0.1288
13596TIP3    H162279   2.692   2.256  15.799 -0.3096  0.2513 -0.3434
13596TIP3    H262280   2.555   2.193  15.787 -0.4574  0.3562  0.6549
13597TIP3   OH262281   1.368   3.406  12.079  0.2910 -0.4038  0.9714
13597TIP3    H162282   1.460   3.384  12.091  0.4055 -0.9183 -0.5435
13597TIP3    H262283   1.323   3.321  12.084  0.1966 -0.4675 -0.5155
13598TIP3   OH262284   0.865   1.478  15.689 -0.1951  0.0861 -0.0204
13598TIP3    H162285   0.945   1.464  15.740 -0.9197 -1.3249  0.7960
13598TIP3    H262286   0.817   1.545  15.738 -0.7718 -1.0855  1.0929
13599TIP3   OH262287   0.302   5.729   2.993  0.0285 -0.3057  0.2038
13599TIP3    H162288   0.257   5.798   2.944 -1.2026 -0.8289  0.5731
13599TIP3    H262289   0.251   5.650   2.976  0.3614 -0.7664  1.2549
13600TIP3   OH262290   2.251   1.843  11.076  0.0569  0.4147 -0.7625
13600TIP3    H162291   2.269   1.751  11.095  0.3405  0.7565  0.7156
13600TIP3    H262292   2.158   1.854  11.098  0.4291  0.8528  0.7056
13601TIP3   OH262293   3.320   5.355   0.498  0.3127 -0.4737  0.2076
13601TIP3    H162294   3.271   5.363   0.580  0.3067 -2.9615  0.5104
13601TIP3    H262295   3.360   5.441   0.486 -2.0041  0.8656  1.2882
13602TIP3   OH262296   6.385   1.486   2.813 -0.2394  0.1107 -0.1195
13602TIP3    H162297   6.394   1.424   2.740  1.5887 -1.3122  1.2035
13602TIP3    H262298   6.305   1.460   2.857  0.7622 -1.7957  0.7301
13603TIP3   OH262299   0.693   5.580  10.585 -0.2848 -0.0791  0.0628
13603TIP3    H162300   0.786   5.571  10.605 -0.2130  2.1588  0.9863
13603TIP3    H262301   0.686   5.553  10.493  1.3978  0.3655 -0.2328
13604TIP3   OH262302   4.692   5.278   0.869 -0.2732  0.1313  0.2132
13604TIP3    H162303   4.597   5.273   0.860 -0.2303 -0.6318  0.1982
13604TIP3    H262304   4.717   5.201   0.920  0.3020  0.5172  0.5421
13605TIP3   OH262305   1.626   2.189  16.532  0.1884 -0.0105 -0.5968
13605TIP3    H162306   1.600   2.263  16.587 -2.2841 -1.1483 -0.0930
13605TIP3    H262307   1.685   2.137  16.588 -0.7070 -0.1084  0.2870
13606TIP3   OH262308   0.743   2.374  11.648  0.2674  0.6821  0.4576
13606TIP3    H162309   0.781   2.289  11.625  0.2621  0.6436  0.5888
13606TIP3    H262310   0.764   2.431  11.574  0.3446  0.5884  0.4081
13607TIP3   OH262311   5.902   6.283   4.117 -0.4579 -0.2623 -0.4145
13607TIP3    H162312   5.918   6.189   4.129  1.7933  0.0476 -0.6357
13607TIP3    H262313   5.841   6.288   4.043 -0.6410 -1.5410 -0.3746
13608TIP3   OH262314   5.924   5.603   1.023 -0.1868  0.9295  0.5703
13608TIP3    H162315   5.857   5.543   0.990 -0.4348  0.5496  1.6975
13608TIP3    H262316   6.006   5.554   1.014 -0.1777  1.0433  0.0202
13609TIP3   OH262317   6.264   5.819  12.426 -0.1814  0.2756  0.2177
13609TIP3    H162318   6.177   5.805  12.389 -0.2067  1.3074 -0.1251
13609TIP3    H262319   6.323   5.779  12.363 -0.4401 -1.3172  0.9288
13610TIP3   OH262320   5.397   3.291  10.458  0.3431 -0.2217 -0.2037
13610TIP3    H162321   5.372   3.371  10.413  1.9637  0.6592  0.3741
13610TIP3    H262322   5.467   3.254  10.404  0.1457 -0.8275 -0.0488
13611TIP3   OH262323   1.479   2.431   1.289 -0.2972 -0.3520 -0.7662
13611TIP3    H162324   1.483   2.515   1.335  1.2928 -1.3318  0.9904
13611TIP3    H262325   1.558   2.430   1.235  0.4484 -1.2641  0.2956
13612TIP3   OH262326   1.820   0.556  12.160  0.5404  0.1137 -0.0604
13612TIP3    H162327   1.907   0.517  12.155  1.3731  1.9429 -1.9017
13612TIP3    H262328   1.785   0.548  12.071 -0.3519  1.1139  0.1757
13613TIP3   OH262329   2.875   6.564   2.809  0.6326  0.2512 -0.5373
13613TIP3    H162330   2.928   6.616   2.749  0.5504 -0.8133 -1.5617
13613TIP3    H262331   2.903   6.474   2.793 -0.8375 -0.2399 -0.4306
13614TIP3   OH262332   4.202   5.667   0.332 -0.1465 -0.3013  0.3126
13614TIP3    H162333   4.215   5.735   0.397 -2.2179  1.0986 -0.6277
13614TIP3    H262334   4.117   5.628   0.354 -0.4442 -0.4324 -0.9786
13615TIP3   OH262335   5.427   5.860   2.394 -0.7121  0.0523  0.5582
13615TIP3    H162336   5.421   5.838   2.301 -0.0440 -0.3660  0.6041
13615TIP3    H262337   5.490   5.932   2.398 -1.1351  0.4211  0.6396
13616TIP3   OH262338   6.694   3.562   1.405  0.3187  0.1601  0.0498
13616TIP3    H162339   6.608   3.597   1.381 -0.5230 -1.5507  0.4279
13616TIP3    H262340   6.713   3.496   1.339  0.9694 -0.0314  0.4177
13617TIP3   OH262341   4.131   4.581  14.185  0.3606  0.0375  0.5257
13617TIP3    H162342   4.121   4.504  14.240  0.8491 -0.3270  0.1098
13617TIP3    H262343   4.043   4.618  14.181  0.0915 -0.5713  0.6282
13618TIP3   OH262344   2.544   3.232   3.819  0.4147  0.3371  0.6071
13618TIP3    H162345   2.454   3.203   3.835  0.4974 -0.4992 -0.3861
13618TIP3    H262346   2.593   3.200   3.895 -0.2978  1.7301  1.7007
13619TIP3   OH262347   1.011   4.616   1.223  0.0916 -0.2250 -1.5604
13619TIP3    H162348   1.060   4.651   1.298 -0.6373 -0.9233 -0.7319
13619TIP3    H262349   1.068   4.631   1.148  1.1628 -0.1784 -0.7608
13620TIP3   OH262350   2.404   1.727  15.056  0.6757 -0.3168  0.3841
13620TIP3    H162351   2.376   1.647  15.010  0.1992  1.1728 -2.0774
13620TIP3    H262352   2.324   1.779  15.064  1.0303  0.0547  1.7426
13621TIP3   OH262353   3.657   5.479   4.966 -0.2290  0.4969 -0.6226
13621TIP3    H162354   3.733   5.423   4.980 -0.6569 -0.2089 -1.0374
13621TIP3    H262355   3.651   5.489   4.871  0.6803  2.4687 -0.5291
13622TIP3   OH262356   4.552   0.147   3.167 -0.1714  0.1018  0.2142
13622TIP3    H162357   4.639   0.169   3.200  0.5051 -0.0919 -1.3418
13622TIP3    H262358   4.503   0.229   3.172  0.3942  0.4442  0.2363
13623TIP3   OH262359   4.887   1.985  15.864 -0.4466  0.7826  0.0033
13623TIP3    H162360   4.850   2.069  15.840 -1.6994 -0.1984 -1.7403
13623TIP3    H262361   4.839   1.958  15.942 -1.3797  0.8566 -0.5338
13624TIP3   OH262362   0.470   1.009  13.937  0.1620  0.8279  0.3829
13624TIP3    H162363   0.476   0.984  13.845  0.2110  0.0196  0.6024
13624TIP3    H262364   0.446   1.102  13.935 -2.2675  0.2552 -0.4535
13625TIP3   OH262365   5.761   5.467  13.923  0.1205  0.3458  0.0506
13625TIP3    H162366   5.833   5.407  13.943  0.5665  1.1467  0.8988
13625TIP3    H262367   5.802   5.554  13.920 -0.9151  0.8923  1.1786
13626TIP3   OH262368   0.803   1.218  14.361  0.3668 -0.6071 -0.2289
13626TIP3    H162369   0.802   1.236  14.267  1.2898 -1.1833 -0.3677
13626TIP3    H262370   0.813   1.123  14.367 -1.1347 -0.7540  0.4675
13627TIP3   OH262371   3.322   5.105   2.869  0.0321 -0.1826 -0.0093
13627TIP3    H162372   3.338   5.117   2.775  0.4415  1.5314  0.2500
13627TIP3    H262373   3.234   5.069   2.874  1.2941 -4.0392 -1.1921
13628TIP3   OH262374   1.313   5.882  16.471 -0.5172 -0.0810  0.2697
13628TIP3    H162375   1.367   5.951  16.434 -1.5238  1.3006  1.2325
13628TIP3    H262376   1.227   5.896  16.432 -0.1986 -2.3913 -1.4287
13629TIP3   OH262377   6.145   0.492  13.508 -0.0598 -0.2154 -0.7206
13629TIP3    H162378   6.186   0.527  13.588 -0.6374 -0.8811 -0.1281
13629TIP3    H262379   6.171   0.554  13.440  1.6595 -0.4070 -0.3102
13630TIP3   OH262380   4.346   6.575   2.531  0.0984  0.1166 -0.0188
13630TIP3    H162381   4.418   6.635   2.514  2.5705 -2.8928 -1.2104
13630TIP3    H262382   4.305   6.560   2.446 -0.0167 -0.4401  0.1264
13631TIP3   OH262383   0.085   0.776  16.905 -0.4269  0.3747  0.3122
13631TIP3    H162384   0.016   0.812  16.851 -2.2858 -1.4078  1.3418
13631TIP3    H262385   0.087   0.683  16.882  3.3004  0.6649 -1.3539
13632TIP3   OH262386   0.973   3.528   3.202  0.2281 -0.2828 -0.7120
13632TIP3    H162387   0.953   3.619   3.177  1.7047 -0.0425 -1.1721
13632TIP3    H262388   0.922   3.513   3.281 -0.0196  0.9695 -0.6033
13633TIP3   OH262389   6.462   5.048   4.619  0.4579 -0.1937  0.0936
13633TIP3    H162390   6.409   5.005   4.687  1.2040 -0.2587  0.6493
13633TIP3    H262391   6.499   5.125   4.663  2.8570 -1.4939  0.5061
13634TIP3   OH262392   4.750   0.435   4.151  0.5108 -0.2473  0.0302
13634TIP3    H162393   4.803   0.425   4.231 -0.7304 -1.2783  0.7625
13634TIP3    H262394   4.795   0.382   4.086 -0.0976 -1.8992  0.9058
13635TIP3   OH262395   0.540   6.036  15.522 -0.3765  0.0163 -0.8299
13635TIP3    H162396   0.620   6.058  15.570 -0.2412 -1.2947 -0.3991
13635TIP3    H262397   0.476   6.101  15.551  0.4941  1.0064 -1.0851
13636TIP3   OH262398   3.152   1.173   3.298  0.0367  0.0149  0.1453
13636TIP3    H162399   3.060   1.169   3.272  0.5674 -2.8859 -1.7869
13636TIP3    H262400   3.178   1.081   3.308  2.7171  0.7494  0.6893
13637TIP3   OH262401   2.840   2.545  16.423 -0.4092 -0.2459 -0.9733
13637TIP3    H162402   2.900   2.590  16.482 -0.9656  0.7317 -1.1326
13637TIP3    H262403   2.884   2.547  16.338  0.4793 -1.8248 -0.5829
13638TIP3   OH262404   1.794   2.562   3.956  0.2007  0.6396  0.1187
13638TIP3    H162405   1.736   2.618   4.008  1.3651  0.5928  1.5343
13638TIP3    H262406   1.866   2.541   4.015 -0.4608 -2.8700 -0.1275
13639TIP3   OH262407   5.860   5.407  12.563  0.2348  0.9699  0.2321
13639TIP3    H162408   5.889   5.338  12.622 -2.4486  1.2073  2.0316
13639TIP3    H262409   5.845   5.363  12.479  0.1205 -0.3185  0.9073
13640TIP3   OH262410   1.770   3.101  17.077  0.1449  0.0467  0.4119
13640TIP3    H162411   1.749   3.129  16.988 -0.9472  0.5524  0.8137
13640TIP3    H262412   1.718   3.158  17.133 -0.6927 -1.5442  1.3150
13641TIP3   OH262413   2.828   3.459  12.406 -0.1674  0.3452  0.1459
13641TIP3    H162414   2.741   3.422  12.419 -0.4647  1.3928  1.2875
13641TIP3    H262415   2.817   3.525  12.338 -0.0214 -0.2999 -0.5171
13642TIP3   OH262416   5.281   4.629  16.174  0.6951 -0.2894  0.6176
13642TIP3    H162417   5.327   4.646  16.256  1.2401  1.1211  0.0410
13642TIP3    H262418   5.197   4.675  16.184  0.1675 -1.2887  0.9243
13643TIP3   OH262419   5.044   0.137  14.219  0.2828 -0.1188  0.4398
13643TIP3    H162420   5.017   0.226  14.198  0.5817 -0.3152 -0.8233
13643TIP3    H262421   5.065   0.140  14.313 -1.8279  0.5825  0.9335
13644TIP3   OH262422   5.172   0.596  15.816  0.0371  0.0110  0.4132
13644TIP3    H162423   5.235   0.609  15.886  0.6953 -1.0826  0.0454
13644TIP3    H262424   5.201   0.654  15.746  1.3573 -1.3176 -0.1952
13645TIP3   OH262425   4.473   3.933   1.318  0.5303 -0.0642  0.3297
13645TIP3    H162426   4.493   3.926   1.224  1.0383 -1.5699  0.5344
13645TIP3    H262427   4.508   4.019   1.343  2.4231 -0.5606 -0.3919
13646TIP3   OH262428   5.884   0.847  13.072  0.1557  0.5540  0.1065
13646TIP3    H162429   5.909   0.935  13.043  0.6920 -0.3170 -2.2777
13646TIP3    H262430   5.944   0.788  13.026  0.3121 -1.0620  2.2222
13647TIP3   OH262431   5.498   0.441   4.214 -0.3705  0.5880  0.2099
13647TIP3    H162432   5.476   0.459   4.305 -0.9531  0.4391  0.1021
13647TIP3    H262433   5.552   0.515   4.187  1.5566 -0.3615  1.2754
13648TIP3   OH262434   0.510   1.235  13.313  0.0220 -0.1657 -0.0344
13648TIP3    H162435   0.574   1.175  13.351  2.1454  0.9412 -1.7080
13648TIP3    H262436   0.527   1.233  13.219 -0.1954  2.5890 -0.2149
13649TIP3   OH262437   4.341   1.104  14.171  0.1325  0.0013  0.1441
13649TIP3    H162438   4.327   1.173  14.105  0.6791 -0.0544 -0.0437
13649TIP3    H262439   4.362   1.026  14.120 -0.5915 -0.3362  0.3549
13650TIP3   OH262440   2.308   0.161   5.653  0.0301  0.0401  0.0230
13650TIP3    H162441   2.362   0.095   5.611 -0.5900 -0.5139  0.0836
13650TIP3    H262442   2.228   0.115   5.679 -0.1770  0.6820  0.5717
13651TIP3   OH262443   1.942   1.674   1.196 -0.3145 -0.9313 -0.0518
13651TIP3    H162444   1.978   1.586   1.183 -3.3121 -2.3918  0.4271
13651TIP3    H262445   1.901   1.695   1.112 -1.0735 -0.7801  0.3462
13652TIP3   OH262446   3.023   5.237  14.845 -0.4252  0.0269  0.4024
13652TIP3    H162447   3.027   5.162  14.786  0.4440 -0.3942  0.9747
13652TIP3    H262448   2.982   5.202  14.925 -1.7778  0.6395 -0.0007
13653TIP3   OH262449   5.550   1.960   3.889 -0.1716 -0.1544  0.7310
13653TIP3    H162450   5.591   1.968   3.975  0.5743 -0.7565  0.4469
13653TIP3    H262451   5.523   1.868   3.884  0.7196 -0.3929 -0.0640
13654TIP3   OH262452   3.970   5.947  17.098  0.5786 -0.6530 -0.4526
13654TIP3    H162453   3.919   5.929  17.019 -0.2176 -0.1683 -0.0594
13654TIP3    H262454   4.026   6.021  17.074  0.7304 -0.8533 -0.7250
13655TIP3   OH262455   5.929   0.290   5.026 -0.3433 -0.7047 -0.0101
13655TIP3    H162456   5.891   0.263   5.110 -2.5317 -2.7476 -1.5014
13655TIP3    H262457   5.965   0.377   5.042 -0.7742 -0.9727  2.9901
13656TIP3   OH262458   1.603   6.546   5.151  0.3102 -0.2036  0.1773
13656TIP3    H162459   1.692   6.514   5.137 -0.5328 -1.7509 -2.2529
13656TIP3    H262460   1.550   6.467   5.162 -1.4376  0.3025 -3.2765
13657TIP3   OH262461   1.408   5.059  12.164  0.0274 -0.0491  0.1673
13657TIP3    H162462   1.401   5.075  12.258  0.8254 -0.8138  0.3766
13657TIP3    H262463   1.324   5.087  12.128  0.5458  2.4683  0.7696
13658TIP3   OH262464   1.125   6.785  13.307  1.1857 -0.0941 -0.2068
13658TIP3    H162465   1.087   6.865  13.269 -0.9799 -0.8832  0.1228
13658TIP3    H262466   1.156   6.735  13.232 -1.0911 -0.6752 -0.8571
13659TIP3   OH262467   1.473   3.930  14.099  0.1919 -0.5989  0.1984
13659TIP3    H162468   1.495   3.867  14.030  2.3535 -0.2906  0.5403
13659TIP3    H262469   1.481   3.881  14.181 -1.1640 -0.6436  0.3275
13660TIP3   OH262470   1.841   3.625   4.399 -0.2856 -0.9048  0.1583
13660TIP3    H162471   1.909   3.644   4.334 -0.1681  0.4763  0.6399
13660TIP3    H262472   1.816   3.534   4.382  0.9906 -1.1330 -0.6563
13661TIP3   OH262473   1.429   4.429  12.617 -0.2726 -0.1376  0.2278
13661TIP3    H162474   1.339   4.399  12.624  0.0597 -0.9734  1.2319
13661TIP3    H262475   1.474   4.360  12.568  0.1274 -0.4518  1.0229
13662TIP3   OH262476   4.652   1.560   2.937 -0.0143  0.0418  0.0857
13662TIP3    H162477   4.637   1.473   2.974  0.2533 -0.8550 -1.7863
13662TIP3    H262478   4.578   1.612   2.967  0.1870 -0.6076  1.8285
13663TIP3   OH262479   2.644   2.943  12.878  0.4588  0.5751 -0.2139
13663TIP3    H162480   2.737   2.933  12.897  0.2831  0.3666  0.5576
13663TIP3    H262481   2.638   2.931  12.783  1.0439 -0.7487 -0.1123
13664TIP3   OH262482   4.788   6.827   2.360  0.0485  0.1462  0.1453
13664TIP3    H162483   4.843   6.792   2.289 -0.4258  0.7674 -0.5497
13664TIP3    H262484   4.769   6.917   2.333 -2.4395 -0.4317 -0.3789
13665TIP3   OH262485   2.329   1.867  14.784  0.2797  0.2980 -0.3661
13665TIP3    H162486   2.295   1.864  14.874 -0.8107  1.2104 -0.7085
13665TIP3    H262487   2.421   1.890  14.794  0.4768 -0.8082  0.5597
13666TIP3   OH262488   1.487   1.153   5.612 -0.5664 -0.2894  0.1906
13666TIP3    H162489   1.394   1.162   5.635 -0.7347 -0.7616 -0.2887
13666TIP3    H262490   1.500   1.218   5.543 -0.9972 -1.4285 -1.0131
13667TIP3   OH262491   4.848   3.589  14.543 -0.3744 -0.0281  0.0201
13667TIP3    H162492   4.848   3.595  14.448  0.5126 -2.0748 -0.1534
13667TIP3    H262493   4.885   3.672  14.573  0.9951 -0.0617 -1.4962
13668TIP3   OH262494   0.478   1.137   6.602  0.1794  0.7742  0.4011
13668TIP3    H162495   0.463   1.065   6.664  1.9573  0.1452  0.1626
13668TIP3    H262496   0.562   1.116   6.561 -0.7014  1.4225 -1.8959
13669TIP3   OH262497   5.268   6.439  11.486 -0.2786 -0.3659 -0.0464
13669TIP3    H162498   5.260   6.534  11.477  1.8469  0.0695  1.7764
13669TIP3    H262499   5.192   6.413  11.537 -1.6941  0.0678 -1.8326
13670TIP3   OH262500   4.212   5.167   1.405  0.1509 -0.4735  0.0495
13670TIP3    H162501   4.205   5.082   1.448 -0.2251 -0.5900 -0.2447
13670TIP3    H262502   4.245   5.225   1.474 -1.5118 -0.3972  0.8339
13671TIP3   OH262503   0.184   3.470   1.627  0.3899 -0.4757 -0.1185
13671TIP3    H162504   0.180   3.562   1.653 -2.0517 -0.5910  0.1049
13671TIP3    H262505   0.205   3.422   1.707  0.0699 -0.2529  0.0963
13672TIP3   OH262506   5.110   3.487   5.669  0.0351 -0.0822 -0.2991
13672TIP3    H162507   5.073   3.479   5.757  1.1585 -0.3425  0.1816
13672TIP3    H262508   5.053   3.434   5.614  1.0349 -2.5572  0.8535
13673TIP3   OH262509   0.546   4.692   2.307 -0.4007 -0.3112 -0.2473
13673TIP3    H162510   0.509   4.606   2.286  2.1347 -1.2308 -1.2498
13673TIP3    H262511   0.502   4.752   2.247 -2.4901 -0.7558  0.7209
13674TIP3   OH262512   1.352   1.089  12.119  0.1837  0.0177 -0.9814
13674TIP3    H162513   1.270   1.121  12.082 -0.5826 -1.2277 -0.4210
13674TIP3    H262514   1.333   0.999  12.147  1.8740 -0.4699 -1.2744
13675TIP3   OH262515   6.192   0.405  11.325  0.4147 -0.3154  0.3069
13675TIP3    H162516   6.135   0.351  11.380  1.3826  0.0670  1.7538
13675TIP3    H262517   6.270   0.420  11.379  1.2957  0.3127 -1.0916
13676TIP3   OH262518   6.015   5.821  11.676  0.8232  0.2755 -0.0473
13676TIP3    H162519   6.034   5.739  11.630  1.4917  0.9863 -1.0701
13676TIP3    H262520   5.958   5.794  11.749  2.5257 -1.3522  0.7588
13677TIP3   OH262521   1.520   4.218   2.009 -0.2898  0.2982  0.0866
13677TIP3    H162522   1.541   4.218   1.916  2.5133  0.5807  0.6261
13677TIP3    H262523   1.498   4.309   2.029 -1.2598  0.1648 -0.3653
13678TIP3   OH262524   4.018   4.376  15.951 -0.5860  0.8108  0.0112
13678TIP3    H162525   4.022   4.281  15.966  0.6232  0.5825 -1.4237
13678TIP3    H262526   4.053   4.415  16.031  0.7440 -0.0645 -0.1107
13679TIP3   OH262527   6.736   3.481   5.502 -0.0672  0.4598  0.4318
13679TIP3    H162528   6.644   3.457   5.494 -0.0747  0.9208 -1.2722
13679TIP3    H262529   6.784   3.404   5.471  0.0862  0.4764  0.6299
13680TIP3   OH262530   3.718   2.955   3.551  0.7761 -0.1491 -0.1135
13680TIP3    H162531   3.632   2.988   3.526  1.1347 -0.7462 -2.3911
13680TIP3    H262532   3.712   2.940   3.645 -1.4583  0.2215 -0.1419
13681TIP3   OH262533   5.335   5.437  12.995  0.1530  0.3037  0.0709
13681TIP3    H162534   5.299   5.386  12.923 -0.2451  0.4664  0.1535
13681TIP3    H262535   5.416   5.391  13.019  1.1847  1.1590 -1.5639
13682TIP3   OH262536   5.750   5.464   4.624  0.1995  0.4022 -0.2193
13682TIP3    H162537   5.770   5.556   4.645 -0.1490  0.6012 -0.7253
13682TIP3    H262538   5.801   5.413   4.687  0.6100  0.9394 -0.1091
13683TIP3   OH262539   5.909   4.622  13.903  0.1873  0.7275 -0.1823
13683TIP3    H162540   5.884   4.694  13.846  1.9231  1.3705 -0.1789
13683TIP3    H262541   5.837   4.615  13.966  0.3693  3.0905  0.3884
13684TIP3   OH262542   0.997   2.927  12.519  0.6328  0.2424  0.3524
13684TIP3    H162543   0.956   3.002  12.562 -1.1504 -0.7181  0.4292
13684TIP3    H262544   1.031   2.962  12.437 -1.0749  0.9604 -0.0885
13685TIP3   OH262545   3.147   2.211   6.936 -0.7388  0.8165  0.4009
13685TIP3    H162546   3.076   2.147   6.932 -0.9395  0.9985  0.9598
13685TIP3    H262547   3.188   2.207   6.849 -1.5075  0.8013  0.0303
13686TIP3   OH262548   5.883   6.205  17.156 -0.7923  0.4343 -0.3138
13686TIP3    H162549   5.929   6.220  17.074  1.8438 -2.3061  0.4847
13686TIP3    H262550   5.794   6.182  17.130 -0.0773 -0.1706 -2.4134
13687TIP3   OH262551   6.129   3.001   3.317  0.1817 -0.3447  0.4980
13687TIP3    H162552   6.070   3.070   3.287  1.2460  0.5717  0.4377
13687TIP3    H262553   6.199   3.000   3.251 -0.5589 -2.5178 -0.3234
13688TIP3   OH262554   5.196   4.999  12.428 -0.2242 -0.0480 -0.3678
13688TIP3    H162555   5.281   4.987  12.470 -0.4830 -1.3433 -0.1734
13688TIP3    H262556   5.139   4.934  12.470 -0.9917 -0.0494 -1.3593
13689TIP3   OH262557   1.771   5.989  10.701  0.4457  0.0800 -0.2756
13689TIP3    H162558   1.730   5.968  10.617  1.6778  1.8554 -1.3945
13689TIP3    H262559   1.730   6.070  10.728  0.8225  0.0869  0.2945
13690TIP3   OH262560   2.661   3.334   2.170  0.1284  0.4096  0.5996
13690TIP3    H162561   2.703   3.419   2.160  0.8985  0.1341  1.3874
13690TIP3    H262562   2.634   3.331   2.262 -0.1090 -0.0913  0.5159
13691TIP3   OH262563   5.405   5.737   1.193  0.1142 -0.1366 -0.6513
13691TIP3    H162564   5.349   5.755   1.268 -0.1046 -1.2956 -0.5284
13691TIP3    H262565   5.433   5.646   1.204  0.8543 -0.0258 -1.4698
13692TIP3   OH262566   1.543   0.602  16.015 -0.3136 -0.2456 -0.2760
13692TIP3    H162567   1.553   0.508  15.999 -0.7734 -0.2234 -0.7151
13692TIP3    H262568   1.537   0.641  15.928 -1.8212 -0.0030 -0.0872
13693TIP3   OH262569   1.182   6.536   0.169  0.3512 -0.5543  0.1376
13693TIP3    H162570   1.091   6.560   0.156  0.8390  0.8395 -0.9640
13693TIP3    H262571   1.180   6.469   0.237 -1.4846 -0.5998  0.0836
13694TIP3   OH262572   0.614   0.501  12.605 -0.3193 -0.0442 -0.1075
13694TIP3    H162573   0.637   0.584  12.563 -0.7579 -0.1396 -0.5431
13694TIP3    H262574   0.576   0.526  12.689 -0.5899  0.2058 -0.3032
13695TIP3   OH262575   2.479   1.291   0.377 -0.0218 -0.0161  0.1325
13695TIP3    H162576   2.412   1.269   0.313 -0.4750 -0.5885  0.7812
13695TIP3    H262577   2.481   1.215   0.436  1.1950 -0.0003  0.1252
13696TIP3   OH262578   6.154   5.350   6.236  0.1526  0.2726 -0.1688
13696TIP3    H162579   6.158   5.305   6.320 -0.8625 -1.0220 -0.7779
13696TIP3    H262580   6.094   5.423   6.252 -2.8785 -1.9295 -0.5304
13697TIP3   OH262581   1.820   2.686   1.585 -0.1126  0.2583 -0.2145
13697TIP3    H162582   1.838   2.768   1.631  1.7653 -1.8426  3.1514
13697TIP3    H262583   1.906   2.645   1.574 -1.0558 -1.6219 -1.1250
13698TIP3   OH262584   4.221   5.675  16.934  0.3082 -0.3829  0.3805
13698TIP3    H162585   4.175   5.592  16.951 -1.3190  0.4383  0.1500
13698TIP3    H262586   4.193   5.733  17.004  1.2260  0.0850  0.3809
13699TIP3   OH262587   0.515   5.915   3.666  0.2988  0.1429  0.3091
13699TIP3    H162588   0.567   5.921   3.746  0.7003 -1.6974  0.2245
13699TIP3    H262589   0.577   5.887   3.598 -0.2990  0.4208 -0.3701
13700TIP3   OH262590   6.590   1.210   3.277  0.0391  0.0695 -0.4373
13700TIP3    H162591   6.574   1.299   3.244  0.0854  1.1119  2.1111
13700TIP3    H262592   6.510   1.188   3.325  0.5381 -0.7271  0.0532
13701TIP3   OH262593   3.599   0.857  13.481 -0.3613  0.1586 -0.2571
13701TIP3    H162594   3.606   0.821  13.569 -2.4555 -2.5905 -1.0700
13701TIP3    H262595   3.644   0.794  13.425 -1.5126  0.3597 -1.4611
13702TIP3   OH262596   6.566   2.781   1.934 -0.3614 -0.4688  0.5046
13702TIP3    H162597   6.594   2.716   1.998  0.4671 -0.1043  0.5259
13702TIP3    H262598   6.637   2.784   1.870 -1.5789 -1.5345 -1.0078
13703TIP3   OH262599   6.577   4.564  15.949 -0.2697  0.6737  0.2365
13703TIP3    H162600   6.606   4.501  16.015 -0.8680 -0.7872 -0.8439
13703TIP3    H262601   6.640   4.553  15.877 -0.4992  1.1612 -0.0425
13704TIP3   OH262602   2.978   3.298   4.343  0.0070 -0.2853 -0.1962
13704TIP3    H162603   2.882   3.301   4.347 -0.0441 -0.2189 -1.2967
13704TIP3    H262604   3.006   3.377   4.388 -0.4605 -0.1784 -0.0848
13705TIP3   OH262605   2.078   1.164  14.776  0.1029  0.5988 -0.2829
13705TIP3    H162606   2.149   1.226  14.759  0.3281  0.2634 -0.5744
13705TIP3    H262607   2.116   1.078  14.761  0.5631  0.1838  2.7304
13706TIP3   OH262608   1.078   1.391   1.576 -0.0416 -0.0428  0.0793
13706TIP3    H162609   1.169   1.402   1.550  0.0169 -0.7524 -0.0427
13706TIP3    H262610   1.029   1.401   1.494  0.0761 -1.4203 -0.1880
13707TIP3   OH262611   0.423   4.229   2.892 -0.4665  0.4972  0.2542
13707TIP3    H162612   0.384   4.152   2.932  1.3236 -1.2896 -1.2436
13707TIP3    H262613   0.375   4.240   2.810 -2.1200  2.3547  1.3579
13708TIP3   OH262614   1.980   6.399   1.671  0.2608 -0.3027  1.0427
13708TIP3    H162615   2.068   6.431   1.650  0.4144  0.0042  2.0867
13708TIP3    H262616   1.946   6.462   1.734 -0.8844 -0.1881  0.3237
13709TIP3   OH262617   1.504   5.171   5.613 -0.2487  0.4997  0.1392
13709TIP3    H162618   1.509   5.230   5.687  0.8871 -0.1986  0.6507
13709TIP3    H262619   1.579   5.196   5.558 -0.7390  0.6254 -0.4841
13710TIP3   OH262620   0.215   0.925   4.467 -0.5157  0.2014  1.0114
13710TIP3    H162621   0.275   0.997   4.484  0.0484  0.5746 -1.9806
13710TIP3    H262622   0.129   0.966   4.461 -0.1730  0.7104 -0.8521
13711TIP3   OH262623   4.532   4.394  16.688  0.7667  0.8009  0.2039
13711TIP3    H162624   4.509   4.302  16.678 -0.1001  0.9406  0.7697
13711TIP3    H262625   4.526   4.430  16.600  2.6495 -0.0018 -0.2896
13712TIP3   OH262626   2.640   4.944   5.749  0.5335 -0.3119 -0.4270
13712TIP3    H162627   2.633   5.000   5.827  0.3368  1.6400 -1.7897
13712TIP3    H262628   2.601   4.861   5.776  0.5093  0.2892  1.5671
13713TIP3   OH262629   2.949   6.367  15.743 -0.7599  0.1229  0.2332
13713TIP3    H162630   2.979   6.276  15.747  0.1450  0.4579  1.7920
13713TIP3    H262631   2.874   6.364  15.683  0.4544 -1.2855 -1.3054
13714TIP3   OH262632   6.416   3.443   4.620 -0.2125 -0.0484 -0.4136
13714TIP3    H162633   6.416   3.444   4.716  1.9161 -0.5594 -0.3635
13714TIP3    H262634   6.462   3.523   4.595  1.6052 -1.1997 -0.9058
13715TIP3   OH262635   6.362   0.969   2.659 -0.1585  0.0694 -0.0346
13715TIP3    H162636   6.293   1.022   2.698 -0.1917  0.7017 -0.9076
13715TIP3    H262637   6.368   0.892   2.715  0.2438  1.2150  1.5837
13716TIP3   OH262638   0.441   6.076   5.909 -0.0848 -0.0708  0.8412
13716TIP3    H162639   0.501   6.109   5.841  1.3174 -4.6518 -0.5588
13716TIP3    H262640   0.354   6.101   5.878  0.6774  0.0026 -1.5062
13717TIP3   OH262641   5.835   1.837  14.997  0.2067 -0.3174 -0.0033
13717TIP3    H162642   5.828   1.849  15.092  0.5445  0.1530 -0.0375
13717TIP3    H262643   5.767   1.893  14.960  0.8437  0.4071 -0.0926
13718TIP3   OH262644   0.995   6.687   3.735  0.0127  0.1325  0.1086
13718TIP3    H162645   1.048   6.613   3.704 -0.4530 -0.7996  1.4634
13718TIP3    H262646   0.908   6.650   3.749 -0.0634  0.7711  1.4285
13719TIP3   OH262647   0.604   4.265   5.755  0.2318  0.2310  0.1466
13719TIP3    H162648   0.511   4.279   5.773 -0.3232 -1.9853 -0.7121
13719TIP3    H262649   0.646   4.266   5.841 -1.0710 -1.6927  0.8686
13720TIP3   OH262650   1.706   5.192   2.475 -0.0418 -0.6639  0.1347
13720TIP3    H162651   1.639   5.236   2.422  0.9608  1.2260  0.3606
13720TIP3    H262652   1.767   5.155   2.411 -1.2365 -2.4008 -0.0724
13721TIP3   OH262653   1.605   0.824  12.099  0.2754 -0.2581 -0.1748
13721TIP3    H162654   1.555   0.846  12.021 -1.0817 -2.6471 -0.1172
13721TIP3    H262655   1.647   0.905  12.126 -0.2823  0.9139 -2.6173
13722TIP3   OH262656   3.134   1.681  14.332  0.4313 -0.4745 -0.6070
13722TIP3    H162657   3.040   1.700  14.325  0.3501 -0.5872  0.1117
13722TIP3    H262658   3.148   1.611  14.268  0.0213 -0.4839 -0.6949
13723TIP3   OH262659   5.080   5.702   3.233  0.0163  0.5526 -0.3370
13723TIP3    H162660   5.002   5.738   3.193  1.1224  2.3114 -1.0385
13723TIP3    H262661   5.061   5.703   3.327 -0.6865  1.2982 -0.4717
13724TIP3   OH262662   3.135   4.425  11.916  0.3493 -0.7565 -0.1058
13724TIP3    H162663   3.044   4.451  11.901  0.8845  2.4226  1.2567
13724TIP3    H262664   3.130   4.358  11.983 -0.9725  1.4945  2.2318
13725TIP3   OH262665   6.685   4.259   2.681 -0.7338  0.2572 -0.4693
13725TIP3    H162666   6.749   4.210   2.628 -0.4428  1.0124 -0.8297
13725TIP3    H262667   6.702   4.231   2.771  1.1599  1.5752 -0.3681
13726TIP3   OH262668   3.672   0.389   0.293 -0.1187 -0.3238 -0.4084
13726TIP3    H162669   3.759   0.420   0.267 -0.4969  1.2031  0.0543
13726TIP3    H262670   3.679   0.376   0.388 -0.7854  1.2249 -0.1255
13727TIP3   OH262671   5.070   6.560  15.454  0.2806  0.2898  0.4054
13727TIP3    H162672   4.998   6.623  15.455 -0.9707 -1.0656  1.6910
13727TIP3    H262673   5.033   6.481  15.413  1.5603  0.1087 -0.4552
13728TIP3   OH262674   0.317   6.109  16.967  0.3944  0.4278 -0.1778
13728TIP3    H162675   0.305   6.094  16.873 -1.2924  0.6759 -0.0282
13728TIP3    H262676   0.246   6.169  16.991 -0.6649 -1.4741  1.7120
13729TIP3   OH262677   2.935   6.244   2.241  0.2271 -0.4078  0.2040
13729TIP3    H162678   2.917   6.219   2.332 -0.5776 -0.4522  0.0439
13729TIP3    H262679   2.941   6.340   2.244  1.9321 -0.4875  0.5813
13730TIP3   OH262680   0.527   6.399  14.340 -0.1806  0.3136 -0.0992
13730TIP3    H162681   0.472   6.476  14.355  1.8403  1.7166  0.6053
13730TIP3    H262682   0.479   6.347  14.276 -1.2803  2.5476 -1.1974
13731TIP3   OH262683   1.773   5.354  12.037  0.4509 -0.4236  0.3796
13731TIP3    H162684   1.794   5.444  12.061  2.9757 -0.7156 -0.4291
13731TIP3    H262685   1.686   5.359  11.998  1.6466  2.2147 -2.3600
13732TIP3   OH262686   6.187   2.145   1.819 -0.7702  0.7462  0.4154
13732TIP3    H162687   6.282   2.141   1.830 -0.8803 -0.1059  1.1033
13732TIP3    H262688   6.152   2.139   1.908 -1.4781  0.9908  0.1634
13733TIP3   OH262689   4.381   6.806   5.288 -0.1618 -0.1548  0.0218
13733TIP3    H162690   4.457   6.858   5.315  0.2606 -0.7915  0.0907
13733TIP3    H262691   4.417   6.718   5.274 -0.3289  0.1227 -2.6837
13734TIP3   OH262692   6.816   5.535  14.360  0.6330 -0.3521  0.1423
13734TIP3    H162693   6.782   5.451  14.329  0.2392 -1.2685  2.8186
13734TIP3    H262694   6.911   5.527  14.350  0.5139 -0.3257 -1.3186
13735TIP3   OH262695   2.850   0.725  15.720  0.3493 -0.0357  0.2507
13735TIP3    H162696   2.925   0.679  15.758 -0.6409 -2.5135 -0.5750
13735TIP3    H262697   2.842   0.689  15.632 -0.7578  1.4929 -0.3153
13736TIP3   OH262698   5.805   1.663   4.594 -0.2347  0.1232  0.3837
13736TIP3    H162699   5.896   1.638   4.577  0.1216  1.2195  0.6505
13736TIP3    H262700   5.759   1.579   4.601  0.5183 -0.4347 -0.9730
13737TIP3   OH262701   1.795   4.299  14.985 -0.8818  0.2271 -0.1330
13737TIP3    H162702   1.875   4.333  14.947 -1.6000  0.1361 -1.8153
13737TIP3    H262703   1.814   4.291  15.078  1.1097  0.0228 -0.5136
13738TIP3   OH262704   0.131   5.323   4.757 -0.3549  0.0739 -0.5433
13738TIP3    H162705   0.196   5.309   4.688  0.9796 -0.5616  0.7744
13738TIP3    H262706   0.141   5.416   4.781 -1.8279  0.7011 -2.1065
13739TIP3   OH262707   4.818   4.630  16.589 -0.4831 -0.0703  0.3183
13739TIP3    H162708   4.753   4.625  16.659  0.2800 -0.0279  1.0449
13739TIP3    H262709   4.895   4.585  16.624  0.1345  0.5125 -0.2453
13740TIP3   OH262710   1.349   0.308   6.054 -0.0511  0.2141  0.2219
13740TIP3    H162711   1.373   0.277   5.966  1.0567 -0.1082  0.6205
13740TIP3    H262712   1.406   0.383   6.069  0.5566 -0.3923  1.0782
13741TIP3   OH262713   3.042   1.498   3.847 -0.1640 -0.5549 -0.1078
13741TIP3    H162714   2.969   1.474   3.789  0.2785  0.0081 -0.9268
13741TIP3    H262715   3.092   1.563   3.797  0.1887  0.0196  0.9466
13742TIP3   OH262716   1.968   5.826   4.727 -0.0218  0.1532 -0.4991
13742TIP3    H162717   1.983   5.921   4.723 -1.2429  0.5762  2.7144
13742TIP3    H262718   2.034   5.794   4.788 -0.9342 -0.7444  0.0382
13743TIP3   OH262719   4.291   5.152  11.402 -0.5897 -0.1510  0.2642
13743TIP3    H162720   4.356   5.165  11.333 -3.5448  1.1348 -2.5233
13743TIP3    H262721   4.266   5.059  11.394 -1.0681  0.0393 -0.6097
13744TIP3   OH262722   5.462   5.129  13.456  0.7958  0.1683 -0.0159
13744TIP3    H162723   5.464   5.206  13.400  1.9469 -0.1852 -0.4771
13744TIP3    H262724   5.420   5.160  13.537  1.4388  1.3392 -0.1057
13745TIP3   OH262725   6.040   4.316   5.564 -0.2415  0.1380  0.2375
13745TIP3    H162726   5.955   4.308   5.608 -0.9894  1.9544 -0.7761
13745TIP3    H262727   6.061   4.227   5.536 -0.5419 -0.8082  2.7139
13746TIP3   OH262728   5.584   0.650  13.572 -0.1181  0.4659  0.2688
13746TIP3    H162729   5.636   0.728  13.591  0.1973  0.0509  1.2033
13746TIP3    H262730   5.617   0.618  13.488 -0.5340  1.5589 -0.3258
13747TIP3   OH262731   5.263   3.618  10.484 -0.0857 -0.2759  0.2843
13747TIP3    H162732   5.299   3.640  10.398 -0.7230  2.2294  0.5616
13747TIP3    H262733   5.336   3.630  10.544 -0.0108 -0.5674  0.2509
13748TIP3   OH262734   6.489   6.506   5.496  0.6042  0.2892 -0.3412
13748TIP3    H162735   6.425   6.552   5.550  1.4444  2.0934 -0.7895
13748TIP3    H262736   6.501   6.563   5.420  3.0359  0.2341 -0.0655
13749TIP3   OH262737   0.774   4.169   4.350 -0.1632  0.4317  0.2202
13749TIP3    H162738   0.772   4.150   4.256  0.6935 -1.6784  0.5678
13749TIP3    H262739   0.843   4.235   4.359 -1.0408  1.5059 -0.7441
13750TIP3   OH262740   2.916   3.977  15.936  0.2907 -0.3405 -0.1124
13750TIP3    H162741   2.863   3.986  16.015 -0.4398 -1.1786 -0.4764
13750TIP3    H262742   3.003   3.952  15.967 -0.4416 -2.4688  0.4070
13751TIP3   OH262743   3.351   1.237   3.826  0.2299 -0.5819 -0.5363
13751TIP3    H162744   3.398   1.246   3.909  0.2624 -0.5807 -0.5552
13751TIP3    H262745   3.356   1.323   3.785  1.2666 -0.9070 -1.1110
13752TIP3   OH262746   1.866   5.873   4.075  0.6467 -0.1869  0.2657
13752TIP3    H162747   1.909   5.834   4.151  0.6513 -3.6031 -1.3175
13752TIP3    H262748   1.936   5.887   4.012  0.1253 -1.5359 -0.6619
13753TIP3   OH262749   5.220   0.697  11.609  0.3837 -0.0076 -0.1822
13753TIP3    H162750   5.278   0.739  11.544  1.8024  2.1120  2.2660
13753TIP3    H262751   5.138   0.746  11.603  0.6368  0.4269 -0.1424
13754TIP3   OH262752   3.500   2.618   2.641  0.2843  0.1890 -0.2202
13754TIP3    H162753   3.586   2.652   2.661 -0.1063  1.5573 -0.7751
13754TIP3    H262754   3.515   2.552   2.572  1.3803 -3.0389  2.8134
13755TIP3   OH262755   6.757   0.791  15.111 -0.3994 -0.2189  0.4688
13755TIP3    H162756   6.731   0.882  15.126  1.5027  0.7601 -1.6086
13755TIP3    H262757   6.794   0.762  15.194  1.1872  1.7396  0.5075
13756TIP3   OH262758   0.848   2.878  11.887  0.2893  0.4771 -0.0521
13756TIP3    H162759   0.834   2.972  11.896 -0.5203  0.6965 -2.5869
13756TIP3    H262760   0.937   2.870  11.852  0.9562  0.1566  1.6612
13757TIP3   OH262761   2.895   3.988   2.751  0.5901  0.1874  0.0706
13757TIP3    H162762   2.963   4.007   2.816  0.7156 -0.7169  0.2046
13757TIP3    H262763   2.944   3.972   2.670  0.3906  2.8418 -0.6940
13758TIP3   OH262764   4.666   5.711  11.871  0.1463 -0.0829  0.0402
13758TIP3    H162765   4.629   5.643  11.814 -0.1438 -1.2514  1.5629
13758TIP3    H262766   4.707   5.663  11.943 -1.2549  1.3435  1.9168
13759TIP3   OH262767   6.771   1.906  11.991  0.6346 -1.1052  0.3048
13759TIP3    H162768   6.706   1.883  11.924  2.5793 -0.0516 -2.0834
13759TIP3    H262769   6.846   1.850  11.971  1.7086  0.1060  0.8234
13760TIP3   OH262770   4.913   6.027  16.303  0.5282  0.4865 -0.1136
13760TIP3    H162771   4.981   6.009  16.238  0.7854 -0.4179  0.3836
13760TIP3    H262772   4.831   6.002  16.260  0.7541 -0.7205  0.1022
13761TIP3   OH262773   3.455   4.060   3.526 -0.2087 -0.0536 -0.5247
13761TIP3    H162774   3.436   4.059   3.432 -1.4539  1.0956 -0.3168
13761TIP3    H262775   3.421   4.144   3.556 -0.5824 -0.7608  1.1199
13762TIP3   OH262776   5.816   5.371  16.912  0.8784  0.1194 -0.4047
13762TIP3    H162777   5.732   5.399  16.875  0.1426 -0.8420  0.4938
13762TIP3    H262778   5.861   5.329  16.838  0.2541 -0.0427 -0.6993
13763TIP3   OH262779   3.727   0.010   5.536 -0.5833 -0.1081  0.1185
13763TIP3    H162780   3.804   0.053   5.572  0.4320 -2.2544  0.7118
13763TIP3    H262781   3.699   0.067   5.464  3.0873 -0.3891 -1.7904
13764TIP3   OH262782   4.809   1.112  16.458 -0.2201 -0.2412 -0.3812
13764TIP3    H162783   4.745   1.151  16.399 -0.2481  2.3408  1.1942
13764TIP3    H262784   4.888   1.165  16.446  0.3227 -0.8068  0.6083
13765TIP3   OH262785   5.139   4.609  11.824  0.0545  0.4115  0.4588
13765TIP3    H162786   5.074   4.558  11.873 -0.8565  2.0066  1.0310
13765TIP3    H262787   5.223   4.573  11.850 -0.5396 -0.7068  0.9128
13766TIP3   OH262788   1.589   3.860  15.736  0.4606 -0.2963  0.1581
13766TIP3    H162789   1.675   3.826  15.711 -0.3717 -1.4003 -1.3623
13766TIP3    H262790   1.571   3.928  15.671 -0.1385 -0.6242 -0.0270
13767TIP3   OH262791   5.696   3.279   0.167  0.5602  0.1270  1.0311
13767TIP3    H162792   5.778   3.317   0.199  1.4658  0.3730 -1.4194
13767TIP3    H262793   5.633   3.352   0.170  0.9630  0.4796  1.0339
13768TIP3   OH262794   0.675   4.508  12.732 -0.8970 -0.2702  0.3567
13768TIP3    H162795   0.609   4.486  12.668 -1.8082  1.8110  0.5058
13768TIP3    H262796   0.700   4.598  12.711 -0.0092 -0.1232  1.8879
13769TIP3   OH262797   3.224   1.605   1.470 -0.3601 -0.2422  0.4473
13769TIP3    H162798   3.294   1.585   1.407 -1.1564 -0.7300 -0.2937
13769TIP3    H262799   3.170   1.670   1.426 -0.2711  0.2942  1.1091
13770TIP3   OH262800   1.439   2.952  10.513  0.0181 -0.7329 -0.1550
13770TIP3    H162801   1.391   2.889  10.459 -0.1733  0.4890 -1.4447
13770TIP3    H262802   1.377   3.023  10.528  0.3281 -0.6930  1.0579
13771TIP3   OH262803   1.160   0.934  16.907  0.0260  0.2280 -0.2437
13771TIP3    H162804   1.160   0.940  17.002 -1.4030 -0.3694 -0.1783
13771TIP3    H262805   1.101   1.003  16.878  1.4891  1.2901 -0.8047
13772TIP3   OH262806   0.100   2.521  13.442 -0.8177  0.2369  0.2898
13772TIP3    H162807   0.143   2.588  13.495 -0.2940  1.1880 -1.2845
13772TIP3    H262808   0.009   2.522  13.473  0.0502 -1.4269  3.2734
13773TIP3   OH262809   3.148   0.424  13.201 -0.1011  0.3395 -0.1059
13773TIP3    H162810   3.091   0.349  13.215 -1.0567  0.9522 -0.5698
13773TIP3    H262811   3.128   0.453  13.112  0.8137  0.6783 -0.2117
13774TIP3   OH262812   5.050   0.992  12.717 -0.4000 -0.1899  0.4082
13774TIP3    H162813   5.084   0.939  12.789 -1.0748 -0.5901  0.4425
13774TIP3    H262814   5.128   1.021  12.670  0.0072 -0.7023  0.7524
13775TIP3   OH262815   5.514   4.382  17.144  0.1879 -0.4855  0.3898
13775TIP3    H162816   5.491   4.312  17.083  1.4367 -1.1133  0.5981
13775TIP3    H262817   5.503   4.343  17.231 -1.7935  0.4690  0.6141
13776TIP3   OH262818   1.406   1.104  11.474 -0.3499  0.4320 -0.3491
13776TIP3    H162819   1.352   1.027  11.456  0.7823 -0.3497 -0.4627
13776TIP3    H262820   1.430   1.137  11.387  0.0332  0.2867 -0.3005
13777TIP3   OH262821   5.694   2.561   2.031 -0.1268 -0.5387 -0.1161
13777TIP3    H162822   5.683   2.606   1.947 -0.6298 -2.5776 -1.1926
13777TIP3    H262823   5.789   2.552   2.040  0.2077  2.8886  1.3984
13778TIP3   OH262824   3.433   0.191  15.036  0.0146 -0.5093  0.2275
13778TIP3    H162825   3.517   0.204  14.991  1.7458 -2.0924  2.7339
13778TIP3    H262826   3.457   0.173  15.127 -2.9722 -2.5810  0.7440
13779TIP3   OH262827   4.524   2.742  12.820 -0.0255  0.5726  0.2059
13779TIP3    H162828   4.474   2.824  12.813 -0.8639  0.0354 -0.2267
13779TIP3    H262829   4.458   2.675  12.837  0.5101 -0.2111 -0.7158
13780TIP3   OH262830   5.054   2.632   3.030 -0.2701  0.1980 -0.3263
13780TIP3    H162831   4.970   2.674   3.049  0.2156  0.5137  1.2746
13780TIP3    H262832   5.064   2.566   3.098  0.7755  0.1590 -0.4965
13781TIP3   OH262833   1.410   0.964   4.664  0.4345 -0.4341  0.0152
13781TIP3    H162834   1.321   0.931   4.675  0.2144  0.1404  0.0008
13781TIP3    H262835   1.399   1.046   4.615  0.9191 -0.0426  0.5543
13782TIP3   OH262836   4.654   3.722   0.937  0.6307 -0.3782  0.2481
13782TIP3    H162837   4.684   3.705   0.847 -0.3293 -1.4119  0.1022
13782TIP3    H262838   4.628   3.636   0.970  1.8954 -0.1683  1.8859
13783TIP3   OH262839   0.357   1.466   5.938 -0.6409  0.6682 -0.4923
13783TIP3    H162840   0.390   1.382   5.907 -1.8744 -0.2328  0.5614
13783TIP3    H262841   0.436   1.517   5.958  0.1265 -0.7875  0.3110
13784TIP3   OH262842   1.335   6.125   1.277 -0.5054 -0.4495  0.0217
13784TIP3    H162843   1.334   6.176   1.196 -1.4316 -0.3865  0.0544
13784TIP3    H262844   1.270   6.169   1.332 -0.0592 -0.6438  0.7053
13785TIP3   OH262845   2.313   1.862   3.011  0.6342  0.2027  0.1525
13785TIP3    H162846   2.323   1.792   3.076  0.1488 -1.0124 -1.0380
13785TIP3    H262847   2.400   1.900   3.003  0.9669 -0.4417  0.6261
13786TIP3   OH262848   2.695   3.678   2.615 -0.2395 -0.6902  0.0599
13786TIP3    H162849   2.683   3.763   2.573  0.7277 -1.2078 -1.3416
13786TIP3    H262850   2.790   3.673   2.632 -0.1815 -1.7667 -0.5103
13787TIP3   OH262851   5.274   2.065  10.917 -0.5253  0.2676  0.0244
13787TIP3    H162852   5.263   1.989  10.859  1.7233  0.9886 -1.4826
13787TIP3    H262853   5.206   2.126  10.888 -2.1710 -0.9941  1.0617
13788TIP3   OH262854   6.050   2.471  14.649 -0.3814 -0.0211  0.7483
13788TIP3    H162855   6.129   2.482  14.596 -1.0546 -1.7751 -0.7418
13788TIP3    H262856   6.077   2.495  14.738  2.1955 -1.7433  0.5328
13789TIP3   OH262857   3.361   2.466   3.402 -0.3422 -0.3861  0.1904
13789TIP3    H162858   3.369   2.549   3.356 -2.3914  0.1818  0.7317
13789TIP3    H262859   3.342   2.401   3.334  0.6082 -0.3110 -0.1591
13790TIP3   OH262860   0.206   0.801   4.929 -0.3333 -0.6451  0.4127
13790TIP3    H162861   0.185   0.723   4.981 -1.6134 -0.7063 -0.1445
13790TIP3    H262862   0.301   0.799   4.918 -0.2527 -1.6093  1.2093
13791TIP3   OH262863   1.382   5.477   3.486 -0.7064  0.0988 -0.1583
13791TIP3    H162864   1.407   5.441   3.400 -0.2363  2.3221 -1.0034
13791TIP3    H262865   1.428   5.421   3.549 -0.4718 -1.1262 -1.3670
13792TIP3   OH262866   3.311   6.648  12.948  0.5858 -0.5545 -0.0007
13792TIP3    H162867   3.274   6.560  12.955  0.8176 -0.7892 -1.4551
13792TIP3    H262868   3.363   6.658  13.028  0.9033 -1.9050 -0.0093
13793TIP3   OH262869   4.111   5.551  11.996 -0.3715  0.0506  0.5053
13793TIP3    H162870   4.023   5.567  11.963 -1.2819  1.1080  3.1468
13793TIP3    H262871   4.159   5.631  11.977 -0.7876  0.5202  1.3885
13794TIP3   OH262872   4.694   5.246  11.742 -0.1619  0.4287  0.0271
13794TIP3    H162873   4.651   5.203  11.668 -0.1996  2.9174 -1.5335
13794TIP3    H262874   4.785   5.255  11.715  0.4960 -1.1441  1.5602
13795TIP3   OH262875   3.852   3.186   5.042 -0.1099 -0.2460  0.7395
13795TIP3    H162876   3.879   3.174   5.133  1.9059  0.2787  0.2654
13795TIP3    H262877   3.932   3.215   4.998 -1.0482 -0.4979 -1.1973
13796TIP3   OH262878   0.495   0.562   2.666 -0.4985  0.4482 -0.0107
13796TIP3    H162879   0.439   0.639   2.678  0.0211  0.7588  0.4534
13796TIP3    H262880   0.503   0.525   2.754 -1.1019 -0.3957 -0.2959
13797TIP3   OH262881   2.288   0.717   0.950 -0.4343  0.2583  0.0346
13797TIP3    H162882   2.382   0.727   0.934 -0.1149 -1.1610  0.8458
13797TIP3    H262883   2.280   0.718   1.046 -0.9091 -2.0096  0.0634
13798TIP3   OH262884   2.694   2.281  13.699  0.0274 -0.1775  0.0379
13798TIP3    H162885   2.731   2.364  13.729  1.3599 -1.5981  2.6146
13798TIP3    H262886   2.765   2.218  13.706 -1.4111 -1.9149 -0.1312
13799TIP3   OH262887   3.975   1.768  13.701 -0.7124  0.1484 -0.0640
13799TIP3    H162888   4.042   1.720  13.652  1.2533  1.4463  1.2431
13799TIP3    H262889   4.004   1.859  13.699 -2.3797  0.7258  0.6737
13800TIP3   OH262890   4.104   1.002  12.368 -0.4513 -0.1100 -0.6913
13800TIP3    H162891   4.128   0.929  12.311  1.0082  0.6932 -1.1658
13800TIP3    H262892   4.091   0.962  12.454  1.3124 -0.8109 -0.7175
13801TIP3   OH262893   2.321   6.537   1.330 -0.1028 -0.4082  0.0935
13801TIP3    H162894   2.226   6.524   1.326 -0.3491  1.3477 -0.6136
13801TIP3    H262895   2.355   6.491   1.254 -0.5675  0.1789 -0.4807
13802TIP3   OH262896   0.998   1.630  16.019  0.1675  0.1298 -0.5556
13802TIP3    H162897   1.069   1.569  16.039 -0.8741 -1.5060 -1.6264
13802TIP3    H262898   1.040   1.702  15.973  1.4377  0.2941  0.7803
13803TIP3   OH262899   1.683   6.019   2.853 -0.2365  0.4361 -0.2687
13803TIP3    H162900   1.758   6.012   2.912 -0.3760  1.6117  0.0699
13803TIP3    H262901   1.631   5.941   2.872 -0.1606  0.6663  1.0195
13804TIP3   OH262902   5.939   1.142   0.219  0.1348  0.7636 -0.0997
13804TIP3    H162903   6.014   1.128   0.160  1.0462 -0.5041  1.2838
13804TIP3    H262904   5.863   1.145   0.160  0.8534 -1.8319 -1.3146
13805TIP3   OH262905   0.541   5.772   3.220 -0.2636  0.0709 -0.1691
13805TIP3    H162906   0.627   5.808   3.200  0.0499 -0.3023  0.4932
13805TIP3    H262907   0.544   5.682   3.185 -0.3603  0.0318 -0.0768
13806TIP3   OH262908   6.577   2.985  12.066  0.3688 -0.2984 -0.0583
13806TIP3    H162909   6.569   2.918  11.999  1.1796  0.2606 -0.7401
13806TIP3    H262910   6.515   3.053  12.041  0.0467 -0.4707  0.2514
13807TIP3   OH262911   5.402   3.031   5.206 -0.2115  0.0965 -0.0506
13807TIP3    H162912   5.314   2.993   5.205  0.0298 -0.4565 -0.2923
13807TIP3    H262913   5.441   3.002   5.124  0.4207 -0.1678  0.3439
13808TIP3   OH262914   4.964   2.035   3.532  0.3817  0.0127 -0.2692
13808TIP3    H162915   4.916   1.972   3.477 -0.2846 -0.0902  0.4020
13808TIP3    H262916   4.897   2.071   3.590  1.3006 -0.9158  1.4342
13809TIP3   OH262917   4.220   5.962   0.404 -0.0553 -0.3550 -0.8353
13809TIP3    H162918   4.300   6.014   0.412 -0.0750 -0.4562  0.1150
13809TIP3    H262919   4.205   5.957   0.309  0.7750  0.0932 -1.0088
13810TIP3   OH262920   4.375   4.670  13.611 -0.3819  0.4017 -0.1458
13810TIP3    H162921   4.319   4.593  13.602  0.4366 -0.2598  0.2102
13810TIP3    H262922   4.332   4.724  13.677 -0.3547 -0.3435  0.4962
13811TIP3   OH262923   6.152   0.455  11.849  0.3312 -0.2982 -0.0359
13811TIP3    H162924   6.185   0.518  11.785  0.4556  0.0714  0.3917
13811TIP3    H262925   6.134   0.507  11.927 -0.1996 -0.6827  0.1035
13812TIP3   OH262926   2.519   3.001  13.636  0.8437 -0.3323  0.4914
13812TIP3    H162927   2.515   2.954  13.553  1.1137 -1.0005  0.8430
13812TIP3    H262928   2.575   2.946  13.691  1.1138  0.3789  0.9369
13813TIP3   OH262929   2.945   1.600  13.198 -0.2028  0.8484  0.0576
13813TIP3    H162930   2.979   1.612  13.109  0.6732 -0.9233  0.1041
13813TIP3    H262931   2.894   1.679  13.215 -0.7279  1.0672 -2.1708
13814TIP3   OH262932   0.907   3.394  16.445  0.4407  0.1134 -0.2436
13814TIP3    H162933   0.918   3.474  16.394  0.3275  0.4739  0.2861
13814TIP3    H262934   0.994   3.355  16.449  0.7271  0.8090  0.4625
13815TIP3   OH262935   2.470   4.359   1.202 -0.5455 -0.5852 -0.1579
13815TIP3    H162936   2.516   4.442   1.193 -0.9448 -0.2085  1.1696
13815TIP3    H262937   2.526   4.296   1.156  1.0361 -0.0292  0.9171
13816TIP3   OH262938   3.131   6.149  12.620 -0.0350  0.3775  0.0203
13816TIP3    H162939   3.222   6.153  12.590 -0.9412 -0.3502 -3.1918
13816TIP3    H262940   3.137   6.121  12.711  2.9542  0.6892  0.0207
13817TIP3   OH262941   2.730   6.135  15.404 -1.1315  0.0627 -0.2801
13817TIP3    H162942   2.724   6.101  15.493  0.9242 -0.3785 -0.2583
13817TIP3    H262943   2.726   6.057  15.348  0.6161  0.0189 -0.3861
13818TIP3   OH262944   0.072   3.690  17.076 -0.3299 -0.0220 -0.5561
13818TIP3    H162945   0.068   3.597  17.098  0.3085 -0.0377 -0.4709
13818TIP3    H262946  -0.013   3.709  17.037 -0.8628 -0.3908  0.3821
13819TIP3   OH262947   1.073   1.733  11.637  0.0587  1.2433 -0.4646
13819TIP3    H162948   1.041   1.648  11.605 -0.4881  1.5560 -0.7655
13819TIP3    H262949   1.096   1.781  11.557  1.0920  1.0983 -0.2575
13820TIP3   OH262950   6.645   5.502  16.145  0.1020 -0.0757 -0.4546
13820TIP3    H162951   6.598   5.534  16.222  0.3289  0.1260 -0.3983
13820TIP3    H262952   6.725   5.555  16.142  0.4532 -0.5908 -0.3954
13821TIP3   OH262953   1.496   3.973   2.128 -0.2163 -0.1245 -0.0932
13821TIP3    H162954   1.585   3.941   2.116 -0.6207 -0.8809 -1.3528
13821TIP3    H262955   1.495   4.058   2.084 -0.2950 -0.4550 -0.7450
13822TIP3   OH262956   3.579   3.792   4.091 -0.1662 -0.0799  0.6104
13822TIP3    H162957   3.513   3.860   4.077  1.6321  1.5333 -0.6653
13822TIP3    H262958   3.557   3.724   4.027 -0.7586  0.2854  0.4178
13823TIP3   OH262959   2.388   2.337   2.910  0.4425  0.3960 -0.0679
13823TIP3    H162960   2.448   2.291   2.968  0.3376  2.0589  1.4890
13823TIP3    H262961   2.301   2.303   2.933  0.4930  0.3864  0.1110
13824TIP3   OH262962   5.039   4.683   0.274  0.2838  0.2708  0.2582
13824TIP3    H162963   5.000   4.762   0.237 -0.6047  0.4261  1.4838
13824TIP3    H262964   5.038   4.620   0.202 -0.7241  0.7908 -0.2001
13825TIP3   OH262965   0.771   0.992  15.143 -0.6526  0.1807 -0.3213
13825TIP3    H162966   0.685   0.998  15.183 -1.0505 -3.1038 -0.3750
13825TIP3    H262967   0.832   1.012  15.214 -1.4335 -1.4568  0.8681
13826TIP3   OH262968   5.851   1.529   0.213 -0.2993 -0.7232  0.3333
13826TIP3    H162969   5.940   1.560   0.227 -0.7668  1.0246 -0.3583
13826TIP3    H262970   5.860   1.454   0.155  0.6483  0.2228 -0.7862
13827TIP3   OH262971   1.524   4.928   6.468  0.3873  0.3080  0.1915
13827TIP3    H162972   1.459   4.927   6.539  0.2283  0.6219  0.0522
13827TIP3    H262973   1.607   4.906   6.511 -0.0015 -1.4033  0.1627
13828TIP3   OH262974   5.660   1.353   5.388  0.4541  0.0775  0.1863
13828TIP3    H162975   5.625   1.374   5.301 -0.2344 -0.0440  0.4268
13828TIP3    H262976   5.752   1.332   5.372  1.0042  2.4773 -0.1693
13829TIP3   OH262977   3.457   0.537   1.879  0.3472 -0.1056 -0.5832
13829TIP3    H162978   3.538   0.548   1.829  0.2331 -0.5810 -0.8847
13829TIP3    H262979   3.432   0.446   1.864  0.6261 -0.4393  0.8408
13830TIP3   OH262980   4.296   2.209  16.112 -0.1355  0.1209  0.4727
13830TIP3    H162981   4.345   2.158  16.175  0.1995 -1.1784 -0.7870
13830TIP3    H262982   4.207   2.175  16.116 -0.1763  0.2235  0.4461
13831TIP3   OH262983   6.268   1.297   5.207  0.0023  0.1657  0.2448
13831TIP3    H162984   6.304   1.385   5.215  0.9815 -0.1605 -0.4141
13831TIP3    H262985   6.313   1.259   5.132  0.8048 -1.4776  1.4988
13832TIP3   OH262986   2.911   6.697   5.821  0.3586 -0.0382  0.4119
13832TIP3    H162987   2.880   6.669   5.735 -2.0159  1.3488  0.7109
13832TIP3    H262988   2.949   6.618   5.860 -1.4280 -1.5397 -0.6930
13833TIP3   OH262989   1.396   5.211   2.122  0.4935  0.0347  0.2585
13833TIP3    H162990   1.319   5.245   2.167  1.8631  2.4739  0.9564
13833TIP3    H262991   1.361   5.162   2.048 -1.7426 -1.2195  2.0205
13834TIP3   OH262992   0.941   4.318  13.026 -0.6182 -0.0937 -0.3589
13834TIP3    H162993   0.938   4.317  12.930  1.3512 -1.1427 -0.4714
13834TIP3    H262994   0.993   4.241  13.049 -1.4584 -0.1381  1.5950
13835TIP3   OH262995   3.791   0.222  12.379  0.5712  0.2842  0.0161
13835TIP3    H162996   3.786   0.129  12.402  1.6397 -0.2429 -1.6914
13835TIP3    H262997   3.735   0.265  12.443 -2.3424 -1.8596 -0.8633
13836TIP3   OH262998   5.835   6.650   1.335 -0.1076 -0.5987  0.3829
13836TIP3    H162999   5.819   6.725   1.277 -2.4524 -0.7819  0.7061
13836TIP3    H263000   5.781   6.580   1.299  1.7308 -2.0520  0.3364
13837TIP3   OH263001   3.925   6.794  12.983  0.0684 -0.2412 -0.6125
13837TIP3    H163002   4.017   6.808  12.962  0.5947 -1.8275  0.4211
13837TIP3    H263003   3.893   6.880  13.010  1.3161  0.2819 -0.7544
13838TIP3   OH263004   0.568   4.345   6.116  0.0673 -0.5953 -0.1105
13838TIP3    H163005   0.519   4.263   6.121 -2.2071  0.5705 -1.7083
13838TIP3    H263006   0.631   4.331   6.045 -0.6878 -0.7930 -0.7534
13839TIP3   OH263007   2.326   2.443   2.259  0.2844  0.7926 -0.5639
13839TIP3    H163008   2.421   2.457   2.252  0.5933  0.3401  2.0253
13839TIP3    H263009   2.316   2.351   2.284 -0.7325  1.2467  0.8118
13840TIP3   OH263010   5.337   5.653  16.284 -0.4203  0.6041  0.3200
13840TIP3    H163011   5.258   5.615  16.245  1.0129 -0.7964 -1.3889
13840TIP3    H263012   5.356   5.729  16.230  0.5038 -0.2507 -0.6140
13841TIP3   OH263013   0.264   2.642   3.785 -0.1131  0.2534 -0.2592
13841TIP3    H163014   0.325   2.712   3.810  0.4407 -0.5773  0.7827
13841TIP3    H263015   0.321   2.572   3.753 -0.5884 -0.1834 -0.1483
13842TIP3   OH263016   3.904   3.222  13.173 -0.3774  0.1784  0.3980
13842TIP3    H163017   3.920   3.131  13.199 -0.4809  0.3327  1.0219
13842TIP3    H263018   3.963   3.273  13.228  0.5509  0.4234 -0.7824
13843TIP3   OH263019   6.326   0.077   0.588  0.1516  0.1060  0.2417
13843TIP3    H163020   6.351   0.069   0.496  0.2925 -2.0150  0.4246
13843TIP3    H263021   6.258   0.145   0.588  0.0310  0.0424 -1.4387
13844TIP3   OH263022   5.103   3.681   2.210 -0.6656 -0.2771 -0.1453
13844TIP3    H163023   5.198   3.684   2.200 -0.5660  0.9105  0.9539
13844TIP3    H263024   5.083   3.751   2.272 -2.4356  0.6225 -1.6407
13845TIP3   OH263025   5.935   6.355  13.446 -0.2923  0.4948  0.8824
13845TIP3    H163026   5.905   6.441  13.418 -1.0591  0.4001  1.3679
13845TIP3    H263027   5.867   6.295  13.414  0.0344  0.1211  0.8902
13846TIP3   OH263028   4.656   0.865  16.188 -0.0860 -0.6014 -0.3588
13846TIP3    H163029   4.598   0.804  16.141 -1.4391  0.2595  0.1223
13846TIP3    H263030   4.744   0.834  16.169 -0.6517 -1.2912 -2.0617
13847TIP3   OH263031   5.801   3.767  16.190  0.5577 -0.0631 -0.2941
13847TIP3    H163032   5.725   3.818  16.218  0.2902 -1.7618  2.4404
13847TIP3    H263033   5.851   3.753  16.271  3.0420 -0.2420 -1.7588
13848TIP3   OH263034   1.805   5.366   0.771 -0.1668  0.0069  0.0415
13848TIP3    H163035   1.733   5.425   0.792 -1.2976 -0.7968 -1.4075
13848TIP3    H263036   1.873   5.423   0.735 -0.8187  0.5699 -0.3277
13849TIP3   OH263037   4.313   1.858  15.303  0.4867  0.1283  0.1949
13849TIP3    H163038   4.273   1.783  15.348 -1.6899  0.8635 -0.3813
13849TIP3    H263039   4.327   1.922  15.373 -1.4534  0.6823  0.1364
13850TIP3   OH263040   2.861   1.322  12.635 -0.1919  0.5830  0.2744
13850TIP3    H163041   2.935   1.294  12.582  1.1200  0.1919  2.2181
13850TIP3    H263042   2.844   1.412  12.607 -0.0953  0.1254 -1.3486
13851TIP3   OH263043   6.781   1.085  14.305 -0.3725  0.8516  0.4312
13851TIP3    H163044   6.715   1.018  14.293 -0.0223  0.9411 -3.0701
13851TIP3    H263045   6.860   1.038  14.333 -0.5357 -0.0204 -0.5316
13852TIP3   OH263046   1.860   2.915  12.675  0.9689  0.0798  0.0960
13852TIP3    H163047   1.766   2.905  12.662  1.1335 -0.9248 -0.4444
13852TIP3    H263048   1.868   2.981  12.744 -0.2149 -1.4166  1.7685
13853TIP3   OH263049   4.237   2.171  16.639 -0.3809 -0.1735 -0.2083
13853TIP3    H163050   4.190   2.089  16.655 -0.6841  0.1438  0.5985
13853TIP3    H263051   4.180   2.238  16.678  0.2780  0.3222 -0.0934
13854TIP3   OH263052   0.215   1.213   2.767  0.2113 -0.6995  0.2837
13854TIP3    H163053   0.170   1.213   2.683  1.0419 -0.3181 -0.1680
13854TIP3    H263054   0.194   1.127   2.805 -0.2487 -0.8358 -0.2570
13855TIP3   OH263055   5.786   3.987  15.576  0.1498  0.1492  0.0063
13855TIP3    H163056   5.703   3.973  15.621  0.0601  0.3015 -0.1095
13855TIP3    H263057   5.852   3.973  15.643  0.0711 -0.8087 -0.1009
13856TIP3   OH263058   5.139   5.613  13.066  0.1359  0.2068 -0.2939
13856TIP3    H163059   5.209   5.554  13.038  2.4784  2.2851  0.7109
13856TIP3    H263060   5.071   5.556  13.101  0.3995 -2.0408 -3.0724
13857TIP3   OH263061   5.014   0.892  15.283  0.3334 -0.3936 -0.3164
13857TIP3    H163062   5.101   0.898  15.243  0.3448 -1.5553 -0.5051
13857TIP3    H263063   5.029   0.856  15.370 -0.0052 -1.2877 -0.6129
13858TIP3   OH263064   1.463   4.157  13.397 -0.1311 -0.6825  0.2911
13858TIP3    H163065   1.476   4.248  13.368  1.3628 -0.7987  0.4917
13858TIP3    H263066   1.398   4.164  13.466  0.6632  0.3994  0.9791
13859TIP3   OH263067   1.889   5.953  13.191  0.0620  0.1282 -0.0693
13859TIP3    H163068   1.911   5.907  13.272  0.4589  1.4565  0.6151
13859TIP3    H263069   1.821   6.016  13.216  1.7660  2.1590 -0.1839
13860TIP3   OH263070   6.377   5.096   0.562  0.0896 -0.2449 -0.2830
13860TIP3    H163071   6.311   5.102   0.631 -0.5582 -0.6566 -0.8561
13860TIP3    H263072   6.352   5.163   0.499  0.0999 -0.5347 -0.5990
13861TIP3   OH263073   4.479   4.980   4.236 -0.0653 -0.3020  0.1741
13861TIP3    H163074   4.479   5.013   4.325 -1.0777 -1.2128  0.5342
13861TIP3    H263075   4.493   4.885   4.246  1.0376 -0.2575 -0.7149
13862TIP3   OH263076   0.489   3.990   2.501  0.4317 -0.5180 -0.2803
13862TIP3    H163077   0.468   4.080   2.477 -3.2370 -1.5269 -1.4295
13862TIP3    H263078   0.555   3.963   2.436  1.4061  1.1857 -0.0638
13863TIP3   OH263079   4.077   0.348   2.591 -0.4112  0.1746  0.2459
13863TIP3    H163080   4.121   0.267   2.618  0.3382  0.5222  0.0879
13863TIP3    H263081   3.984   0.329   2.601 -0.3458 -1.2884 -1.3330
13864TIP3   OH263082   4.078   0.700   1.470 -0.1200  0.6353  0.2811
13864TIP3    H163083   4.168   0.667   1.462 -0.0728  1.0788 -1.3971
13864TIP3    H263084   4.080   0.755   1.549  0.9821  0.3274  0.4918
13865TIP3   OH263085   1.662   2.120  13.962  0.3630  0.8490 -0.2336
13865TIP3    H163086   1.676   2.080  14.047 -1.3594 -0.7071 -0.6135
13865TIP3    H263087   1.597   2.064  13.919 -1.3863  3.4404 -1.2448
13866TIP3   OH263088   6.197   3.335   3.050 -0.2957  0.0380 -0.3681
13866TIP3    H163089   6.277   3.383   3.029 -1.5287  1.9561 -0.9890
13866TIP3    H263090   6.184   3.351   3.143 -0.5681  0.7838 -0.5190
13867TIP3   OH263091   3.500   2.097   0.283  0.1455  0.2900  0.1906
13867TIP3    H163092   3.430   2.155   0.254 -0.6438 -0.8534 -0.2424
13867TIP3    H263093   3.463   2.051   0.359 -0.1446 -1.3606 -0.8954
13868TIP3   OH263094   5.593   5.668   4.225 -0.2139  0.1947  0.1692
13868TIP3    H163095   5.595   5.629   4.138 -1.0861  1.4011 -0.4299
13868TIP3    H263096   5.685   5.675   4.250  0.1219  0.7648 -1.1193
13869TIP3   OH263097   1.931   0.586  11.281  0.0429 -0.1569 -0.4665
13869TIP3    H163098   1.937   0.624  11.194 -0.8087 -0.7669 -0.7999
13869TIP3    H263099   1.980   0.504  11.275  0.9609  0.3344 -0.0391
13870TIP3   OH263100   1.351   5.203   0.195 -0.0508  0.4139  0.4306
13870TIP3    H163101   1.297   5.279   0.174  1.8395  2.2792  1.8950
13870TIP3    H263102   1.343   5.147   0.118 -2.1201  1.6926 -0.3976
13871TIP3   OH263103   1.591   5.278   3.601 -0.0067  0.2484 -0.2302
13871TIP3    H163104   1.615   5.191   3.633 -1.3677  0.5268  1.7195
13871TIP3    H263105   1.664   5.305   3.545  1.4635 -1.2303  0.9245
13872TIP3   OH263106   0.827   1.937   4.405  0.4285  0.1599  0.2257
13872TIP3    H163107   0.776   1.996   4.460  1.1836 -0.6091  1.8214
13872TIP3    H263108   0.916   1.973   4.408  0.2201  0.9327 -1.7227
13873TIP3   OH263109   2.307   1.486  17.009  0.6650  0.6296 -0.6099
13873TIP3    H163110   2.323   1.398  16.976  1.1106  0.0491  1.0692
13873TIP3    H263111   2.394   1.521  17.028  0.5550  1.7801 -2.0395
13874TIP3   OH263112   2.731   4.257   1.431 -0.5027  0.0331 -0.2517
13874TIP3    H163113   2.779   4.323   1.381  0.3748  1.2713  2.0791
13874TIP3    H263114   2.674   4.307   1.489  1.9277 -0.9863  3.3158
13875TIP3   OH263115   6.386   2.701   2.366 -0.0761 -0.0952  0.4833
13875TIP3    H163116   6.374   2.662   2.452  2.7301  0.3387  1.1980
13875TIP3    H263117   6.476   2.736   2.368  0.1671 -0.2098 -2.6635
13876TIP3   OH263118   3.445   4.308  15.990  0.6652 -0.4364  0.1516
13876TIP3    H163119   3.366   4.292  16.042  0.1054  0.2145 -0.4718
13876TIP3    H263120   3.504   4.237  16.013 -0.2818 -1.2028  0.2944
13877TIP3   OH263121   3.291   3.863  14.532  0.4237 -0.2748 -0.5013
13877TIP3    H163122   3.294   3.931  14.600 -1.7019 -2.3213  1.8319
13877TIP3    H263123   3.383   3.842  14.515  1.1154  2.5434 -0.7231
13878TIP3   OH263124   1.992   1.055  11.157 -0.5446  0.5611  0.2076
13878TIP3    H163125   1.902   1.085  11.141  0.0800  2.6466  0.3426
13878TIP3    H263126   2.038   1.075  11.076 -0.1783 -0.5395  0.1255
13879TIP3   OH263127   6.088   4.618   2.323 -0.6272 -0.1699 -0.5117
13879TIP3    H163128   6.141   4.693   2.350 -0.3583 -1.5098  3.2283
13879TIP3    H263129   6.150   4.545   2.320 -1.7524 -1.2589  1.3617
13880TIP3   OH263130   0.467   5.490  13.916  0.6314 -0.2737  0.0801
13880TIP3    H163131   0.519   5.483  13.997  1.4752 -0.2238 -0.4375
13880TIP3    H263132   0.492   5.574  13.879 -0.8654  0.3784  0.4922
13881TIP3   OH263133   6.435   4.392  12.626  0.3265  0.0471  0.5816
13881TIP3    H163134   6.344   4.381  12.654  0.9023 -0.1188  2.5330
13881TIP3    H263135   6.482   4.320  12.669  1.9420  2.1426  2.5857
13882TIP3   OH263136   0.287   0.179   0.698 -0.0904 -0.6557 -0.1004
13882TIP3    H163137   0.268   0.127   0.777 -2.5938 -0.1097 -0.2675
13882TIP3    H263138   0.252   0.266   0.717 -0.9374 -0.5638 -1.8833
13883TIP3   OH263139   3.392   3.544   1.406  0.0153  0.2774 -0.0404
13883TIP3    H163140   3.372   3.635   1.382 -0.4538  0.3982  0.7873
13883TIP3    H263141   3.326   3.492   1.359  0.3606  0.3399 -0.6135
13884TIP3   OH263142   6.581   1.207  10.995 -0.0190  0.2212  0.2002
13884TIP3    H163143   6.562   1.123  11.037 -0.2154  0.2822  0.2391
13884TIP3    H263144   6.529   1.206  10.915  1.6265 -0.5919 -0.9131
13885TIP3   OH263145   2.961   0.347   0.349 -0.2371  0.4847  0.8131
13885TIP3    H163146   2.973   0.252   0.347 -1.4543  0.2872  1.6706
13885TIP3    H263147   2.897   0.364   0.280  1.4101  0.9494 -0.6511
13886TIP3   OH263148   6.410   1.520  11.704  0.0186 -0.4348  0.0009
13886TIP3    H163149   6.451   1.526  11.790  0.3146 -1.9434 -0.0118
13886TIP3    H263150   6.467   1.461  11.654 -0.2689  0.2359 -1.1641
13887TIP3   OH263151   1.454   4.108  16.747 -0.3187  0.2047  0.1363
13887TIP3    H163152   1.401   4.163  16.689 -0.2080  0.7238  0.5189
13887TIP3    H263153   1.536   4.095  16.700 -0.6289 -0.2609 -0.2824
13888TIP3   OH263154   5.372   5.690  16.850 -0.6791  0.3550  0.4645
13888TIP3    H163155   5.390   5.709  16.758  1.0546  0.1266  0.7227
13888TIP3    H263156   5.370   5.776  16.893 -2.0638  0.5079  0.1634
13889TIP3   OH263157   6.387   4.800  15.367 -0.4073  0.3635 -0.2056
13889TIP3    H163158   6.304   4.823  15.326 -0.6736  0.7365  0.5336
13889TIP3    H263159   6.428   4.740  15.305 -0.9031  0.7373 -0.9115
13890TIP3   OH263160   4.379   1.077   1.509 -0.4021 -0.1444  0.1058
13890TIP3    H163161   4.412   1.062   1.598 -0.3620  0.3832  0.1865
13890TIP3    H263162   4.302   1.133   1.522 -0.0969  0.3608 -0.2246
13891TIP3   OH263163   1.986   2.508  13.954 -0.0248  0.4525 -0.6840
13891TIP3    H163164   2.008   2.417  13.972 -1.3049  0.2599  0.0577
13891TIP3    H263165   1.996   2.517  13.859  0.6795 -0.2867 -0.6877
13892TIP3   OH263166   2.905   6.356   1.146  0.1467 -0.2862  0.3816
13892TIP3    H163167   2.940   6.393   1.227 -0.0804 -0.1312  0.4097
13892TIP3    H263168   2.907   6.430   1.084 -0.7971 -0.0838  0.5843
13893TIP3   OH263169   4.715   2.311  15.116  0.1150  0.4553  0.2676
13893TIP3    H163170   4.780   2.364  15.070  0.8480 -1.2816 -0.8363
13893TIP3    H263171   4.759   2.284  15.197  0.0495  0.8241  0.4289
13894TIP3   OH263172   4.479   5.164   6.346 -0.5241  0.4437 -0.4776
13894TIP3    H163173   4.547   5.191   6.408 -1.0048  0.6322 -0.0263
13894TIP3    H263174   4.466   5.071   6.363  2.0777 -0.5294 -2.9255
13895TIP3   OH263175   4.197   3.135  10.647  0.2927 -0.0618 -0.3256
13895TIP3    H163176   4.150   3.203  10.598  1.2370  0.1185 -1.0212
13895TIP3    H263177   4.254   3.094  10.581  2.1847  0.7072  0.7624
13896TIP3   OH263178   3.833   6.097  15.099 -0.0906 -0.0428  0.4705
13896TIP3    H163179   3.921   6.132  15.087  0.1458 -0.7963 -0.0138
13896TIP3    H263180   3.839   6.041  15.176  0.0332 -0.6752  0.0055
13897TIP3   OH263181   2.121   4.240   0.928 -0.3555 -0.4205 -0.3585
13897TIP3    H163182   2.210   4.273   0.934 -0.7878  0.7339 -0.1158
13897TIP3    H263183   2.128   4.161   0.874  1.0605 -1.3178  1.0216
13898TIP3   OH263184   3.275   5.981  16.561  0.0197 -0.1013  0.4218
13898TIP3    H163185   3.255   5.956  16.651  1.1375 -0.6986  0.5228
13898TIP3    H263186   3.304   5.900  16.519 -1.1212  0.0177 -0.6854
13899TIP3   OH263187   2.008   4.924   4.434 -0.2964  0.0891 -0.2063
13899TIP3    H163188   2.070   4.894   4.501  0.5845  1.5486 -0.3036
13899TIP3    H263189   2.007   4.854   4.369  0.0805 -0.6338  0.5500
13900TIP3   OH263190   4.225   3.490   5.434 -0.5549  0.4753  0.1529
13900TIP3    H163191   4.310   3.451   5.415 -0.5104  1.7943 -2.9659
13900TIP3    H263192   4.172   3.418   5.467  1.5677 -0.4847  1.7299
13901TIP3   OH263193   6.688   5.216  16.147 -0.6229 -0.3965 -0.1827
13901TIP3    H163194   6.611   5.173  16.184  0.0684  0.1003  1.9801
13901TIP3    H263195   6.666   5.309  16.147 -0.9593 -0.4502 -1.9714
13902TIP3   OH263196   6.496   6.571   5.210  0.1761  0.1321 -0.3800
13902TIP3    H163197   6.554   6.503   5.175  0.1818 -0.4478  0.7270
13902TIP3    H263198   6.408   6.542   5.187  0.2421  0.4624 -1.1015
13903TIP3   OH263199   6.177   3.960  17.071  0.0586  0.3584 -0.0579
13903TIP3    H163200   6.178   4.006  16.987 -0.3359 -0.4386 -0.5110
13903TIP3    H263201   6.235   4.012  17.128  0.0005  1.1359 -0.6886
13904TIP3   OH263202   5.654   4.834  16.966  0.2220 -0.0100 -0.0770
13904TIP3    H163203   5.640   4.752  17.013 -0.6267 -0.5224 -1.1652
13904TIP3    H263204   5.597   4.897  17.012  0.6515 -0.0912  0.5801
13905TIP3   OH263205   1.438   4.617  17.109 -0.5577 -0.1250  0.2087
13905TIP3    H163206   1.405   4.698  17.070 -0.6991 -1.5961 -3.0533
13905TIP3    H263207   1.458   4.561  17.034  0.8387 -2.6311  2.2971
13906TIP3   OH263208   5.942   2.846   6.157 -0.0465 -0.2256  0.0561
13906TIP3    H163209   6.024   2.808   6.127 -1.3308 -1.5313 -2.0131
13906TIP3    H263210   5.887   2.771   6.180 -1.4435  0.4921 -0.8024
13907TIP3   OH263211   5.708   5.416  14.617 -0.3364  0.0525 -0.2778
13907TIP3    H163212   5.770   5.377  14.679 -0.6503  0.5860  0.3917
13907TIP3    H263213   5.697   5.506  14.649 -0.0425  0.5223 -1.4688
13908TIP3   OH263214   2.852   2.935  12.421  0.1042 -0.0300 -0.1179
13908TIP3    H163215   2.851   2.842  12.442  2.0551 -0.0387  0.1310
13908TIP3    H263216   2.808   2.941  12.336  1.0485 -1.3673 -0.7407
13909TIP3   OH263217   2.277   5.568  11.828 -0.2631 -0.5169  0.0462
13909TIP3    H163218   2.199   5.567  11.883  0.5291 -0.4105  1.2056
13909TIP3    H263219   2.335   5.501  11.866 -0.0721 -1.1420 -1.2533
13910TIP3   OH263220   4.805   0.139  15.052  0.2122 -0.6988  0.2514
13910TIP3    H163221   4.784   0.192  15.128  0.6259 -0.0306 -0.0871
13910TIP3    H263222   4.808   0.049  15.085  1.5740 -0.3132  1.2982
13911TIP3   OH263223   2.745   0.377  13.662 -0.7896  0.2029 -0.2890
13911TIP3    H163224   2.653   0.400  13.651 -0.7065  0.1674 -1.1162
13911TIP3    H263225   2.747   0.319  13.739 -1.2925  1.1328  0.4428
13912TIP3   OH263226   2.837   3.013   4.743  0.0904  0.6310  0.5961
13912TIP3    H163227   2.820   3.031   4.836  0.5685  0.6286  0.6864
13912TIP3    H263228   2.922   3.054   4.726 -0.0090  0.6525  0.1518
13913TIP3   OH263229   3.549   3.726   5.676  0.3484 -0.2939  0.0361
13913TIP3    H163230   3.489   3.797   5.651 -0.0648 -1.3118 -2.0992
13913TIP3    H263231   3.549   3.667   5.600  2.5227 -1.3621  0.7963
13914TIP3   OH263232   0.387   5.615   3.788 -0.0942  0.1093  0.3523
13914TIP3    H163233   0.383   5.694   3.840  0.4941 -0.8696  1.9518
13914TIP3    H263234   0.375   5.645   3.698  0.3865  2.0276  0.8823
13915TIP3   OH263235   2.298   2.475  11.268 -0.8702 -0.0603 -0.1547
13915TIP3    H163236   2.327   2.440  11.184 -0.4205 -0.7923  0.2930
13915TIP3    H263237   2.375   2.468  11.325 -1.2699  0.0922  0.4176
13916TIP3   OH263238   5.640   4.519   3.269  0.1999 -0.3887 -0.3793
13916TIP3    H163239   5.621   4.594   3.326 -0.5809 -1.8409  1.3939
13916TIP3    H263240   5.735   4.519   3.260  0.3862 -0.2578  1.2101
13917TIP3   OH263241   5.130   1.781   2.874 -0.0024 -0.4508  0.0782
13917TIP3    H163242   5.167   1.861   2.837 -0.0473 -0.5976 -0.2863
13917TIP3    H263243   5.068   1.812   2.940 -1.6096 -0.1176 -1.5316
13918TIP3   OH263244   0.305   0.521  17.087 -0.0916 -0.2570 -0.0115
13918TIP3    H163245   0.283   0.594  17.145 -1.1158  0.3200 -1.0916
13918TIP3    H263246   0.228   0.464  17.091  0.4981 -1.0298  0.4326
13919TIP3   OH263247   0.118   4.545  17.190 -0.1909 -0.2092  0.1425
13919TIP3    H163248   0.209   4.563  17.168 -1.4691  0.4098 -7.3862
13919TIP3    H263249   0.109   4.450  17.183 -0.2450 -0.1611 -0.6022
13920TIP3   OH263250   5.485   2.855   1.949  0.5674  0.3078  0.2070
13920TIP3    H163251   5.510   2.787   1.886  1.3866 -0.0355  0.8965
13920TIP3    H263252   5.444   2.923   1.895  1.0534 -0.0809 -0.6767
13921TIP3   OH263253   4.511   3.284   0.929  0.0658 -0.3101  0.2960
13921TIP3    H163254   4.418   3.282   0.906  0.1821  0.9792 -0.3564
13921TIP3    H263255   4.556   3.250   0.852  0.4484  3.9288 -1.6316
13922TIP3   OH263256   3.858   5.497   4.687 -0.4785 -0.2173  0.8458
13922TIP3    H163257   3.805   5.452   4.620  0.4867  0.8863 -0.7307
13922TIP3    H263258   3.948   5.468   4.670 -0.5025 -2.6693  3.9711
13923TIP3   OH263259   2.658   2.407   0.842  0.5443 -0.2654 -0.3092
13923TIP3    H163260   2.595   2.335   0.844 -0.9583  0.9826 -0.7611
13923TIP3    H263261   2.638   2.459   0.920  2.6156 -1.0976  0.8572
13924TIP3   OH263262   6.285   6.085  14.515  0.1578 -0.4754 -0.5688
13924TIP3    H163263   6.359   6.144  14.515 -0.2733  0.1476  1.9542
13924TIP3    H263264   6.223   6.124  14.454  0.7978  0.4399 -0.6444
13925TIP3   OH263265   0.766   2.189  13.921  0.5564  0.4359  0.4379
13925TIP3    H163266   0.774   2.093  13.924  0.5383  0.4470  2.4288
13925TIP3    H263267   0.675   2.206  13.946  0.6780  0.9889  0.5092
13926TIP3   OH263268   4.631   3.236   2.750 -0.1372 -0.7028 -0.3454
13926TIP3    H163269   4.573   3.227   2.675 -0.5463 -2.2488  0.1105
13926TIP3    H263270   4.590   3.182   2.818  1.4087 -1.1951  0.2474
13927TIP3   OH263271   0.944   4.280  12.045  0.3093  0.2602  0.4916
13927TIP3    H163272   0.982   4.339  12.110  1.4625  0.6038 -0.4465
13927TIP3    H263273   0.902   4.338  11.981  0.7779  0.0433 -0.0264
13928TIP3   OH263274   6.771   5.536   2.173 -0.0220  0.6590 -0.6829
13928TIP3    H163275   6.787   5.584   2.255 -0.7569  0.8227 -0.6348
13928TIP3    H263276   6.686   5.567   2.142  0.5302  1.0729 -1.8511
13929TIP3   OH263277   0.443   2.200   5.557  0.1666 -0.6180  0.4637
13929TIP3    H163278   0.366   2.172   5.606 -1.2776 -0.8736 -1.8254
13929TIP3    H263279   0.463   2.288   5.592 -2.3336  0.2757 -0.1484
13930TIP3   OH263280   1.748   4.561   0.962 -0.3910 -0.7634  0.9337
13930TIP3    H163281   1.779   4.559   0.872 -0.7081 -0.9179  0.8277
13930TIP3    H263282   1.822   4.527   1.013 -0.3963 -1.1574  0.6812
13931TIP3   OH263283   1.710   6.406  12.672 -0.1983  0.0205 -0.3632
13931TIP3    H163284   1.665   6.335  12.718 -0.9951  0.3565 -0.6049
13931TIP3    H263285   1.674   6.403  12.583 -1.8545  2.0383  0.1584
13932TIP3   OH263286   4.245   5.873  12.151  0.4477  0.2484  0.0610
13932TIP3    H163287   4.189   5.802  12.181 -0.2020  0.1907 -1.2192
13932TIP3    H263288   4.334   5.840  12.161  0.2192 -0.1102  0.9932
13933TIP3   OH263289   4.048   5.087   5.550 -0.3652 -0.2075 -0.0483
13933TIP3    H163290   3.974   5.129   5.594 -1.0943 -1.9242  0.4444
13933TIP3    H263291   4.035   5.106   5.457  1.2402  3.5327  0.3062
13934TIP3   OH263292   4.633   1.132   1.394 -0.3533  0.1001  0.3248
13934TIP3    H163293   4.671   1.110   1.309  2.0464  1.6354  0.8953
13934TIP3    H263294   4.540   1.141   1.377 -0.1347 -0.9804 -1.8315
13935TIP3   OH263295   6.282   5.187   4.982  0.1493 -0.2295 -0.0383
13935TIP3    H163296   6.213   5.227   5.035 -1.0394 -0.2231 -1.5148
13935TIP3    H263297   6.239   5.166   4.899  1.6326 -1.3603 -0.5648
13936TIP3   OH263298   1.592   3.605  16.303 -0.5038  0.3100 -0.0824
13936TIP3    H163299   1.520   3.588  16.365 -1.1915  0.2547 -0.8815
13936TIP3    H263300   1.633   3.519  16.290  0.5358  0.5482  1.3394
13937TIP3   OH263301   4.820   4.554  15.239  0.0189  0.8629 -0.2763
13937TIP3    H163302   4.820   4.615  15.164  2.4166  1.3120 -0.0214
13937TIP3    H263303   4.896   4.497  15.222 -0.0356  0.2942  1.2861
13938TIP3   OH263304   0.095   6.151  14.350 -0.0452  0.0420 -0.2863
13938TIP3    H163305   0.021   6.164  14.290 -0.8041  0.5931  0.7273
13938TIP3    H263306   0.059   6.172  14.437  1.3129  0.3627  0.2253
13939TIP3   OH263307   1.694   2.535  12.100  0.3574  0.2095 -0.1551
13939TIP3    H163308   1.737   2.450  12.094  0.5006  0.1413  1.4357
13939TIP3    H263309   1.711   2.565  12.189 -1.7115  0.8115  0.1112
13940TIP3   OH263310   6.340   1.749  15.896  0.0503 -0.5246  0.2957
13940TIP3    H163311   6.317   1.831  15.939  0.1484 -0.4963  0.2937
13940TIP3    H263312   6.257   1.719  15.857  0.5684  1.1602 -2.3984
13941TIP3   OH263313   4.007   4.859   5.317 -0.3966 -0.6481  0.5328
13941TIP3    H163314   3.933   4.812   5.278 -0.5698 -0.4580  0.6297
13941TIP3    H263315   4.082   4.836   5.262 -0.7224 -0.0035 -0.2088
13942TIP3   OH263316   1.664   2.632   4.368 -0.4117  0.2876  0.1814
13942TIP3    H163317   1.607   2.669   4.301  1.2992  0.1544 -1.4464
13942TIP3    H263318   1.702   2.708   4.412 -1.5554  0.3753  1.0517
13943TIP3   OH263319   1.659   0.596   5.073  0.1717 -0.3852 -0.5146
13943TIP3    H163320   1.708   0.607   5.154  0.2446  1.3075 -0.7618
13943TIP3    H263321   1.693   0.515   5.035 -0.0813 -1.3869  1.2743
13944TIP3   OH263322   4.259   4.935   2.828 -0.3376  0.1987 -0.2384
13944TIP3    H163323   4.166   4.912   2.829 -0.3354  0.1977  0.1945
13944TIP3    H263324   4.278   4.959   2.919 -0.4460  2.3175 -0.7234
13945TIP3   OH263325   6.311   3.411   0.832 -0.0890  0.1976 -0.0343
13945TIP3    H163326   6.261   3.483   0.870  1.4366  1.2605  0.0655
13945TIP3    H263327   6.351   3.367   0.907  1.3348  1.0904 -0.2171
13946TIP3   OH263328   4.937   3.783  15.559 -0.2849  0.0871  0.2202
13946TIP3    H163329   5.007   3.848  15.562 -0.1671 -0.0695  0.9987
13946TIP3    H263330   4.946   3.742  15.473  1.0232 -0.4236  0.5816
13947TIP3   OH263331   0.827   6.143   0.847  0.3203  0.1063 -0.5424
13947TIP3    H163332   0.873   6.213   0.894 -0.7687  0.3278  0.2158
13947TIP3    H263333   0.746   6.184   0.816 -0.7764 -1.0315  0.6957
13948TIP3   OH263334   4.289   5.221  11.680  0.8222 -0.2554  0.2250
13948TIP3    H163335   4.357   5.154  11.681  0.3741 -0.8107 -2.0719
13948TIP3    H263336   4.272   5.238  11.588 -1.6898  0.3335  0.7041
13949TIP3   OH263337   2.736   0.959   2.072  0.2441  0.3812 -0.0176
13949TIP3    H163338   2.747   1.036   2.017  2.0058  1.6214  1.9135
13949TIP3    H263339   2.816   0.909   2.060 -0.9964 -1.3898 -1.4605
13950TIP3   OH263340   6.501   1.849   1.686 -0.0879 -0.0525 -0.1281
13950TIP3    H163341   6.507   1.935   1.728  0.5984  1.1901 -2.5931
13950TIP3    H263342   6.573   1.799   1.724  0.5529  1.0369  0.1370
13951TIP3   OH263343   1.294   2.576   3.963 -0.3174  0.6402  0.4048
13951TIP3    H163344   1.254   2.635   3.899  1.4188  1.9861  0.4695
13951TIP3    H263345   1.350   2.519   3.911 -0.9822 -0.0944  0.4802
13952TIP3   OH263346   1.610   5.486  13.361 -0.2068 -0.5139 -0.0925
13952TIP3    H163347   1.651   5.560  13.315  0.1450 -1.4411 -1.3194
13952TIP3    H263348   1.628   5.410  13.305 -1.6530 -1.3282  0.4902
13953TIP3   OH263349   3.170   2.203   4.487 -0.3220 -0.2863  0.2617
13953TIP3    H163350   3.152   2.120   4.443  2.0271 -0.4645 -0.4601
13953TIP3    H263351   3.234   2.182   4.554 -0.0352  0.8687  0.3679
13954TIP3   OH263352   3.626   6.312   4.604  0.3136 -0.3147  0.2771
13954TIP3    H163353   3.582   6.270   4.678  0.8530  0.0788  0.8395
13954TIP3    H263354   3.713   6.272   4.603  2.1538  3.0192  2.9997
13955TIP3   OH263355   6.311   2.780  11.127 -0.0557 -0.2682  0.3686
13955TIP3    H163356   6.266   2.844  11.182 -1.1166 -0.9475  0.3024
13955TIP3    H263357   6.257   2.772  11.049  0.1022 -1.2041  0.3483
13956TIP3   OH263358   6.276   3.651  11.696 -0.4654  0.8056 -0.2745
13956TIP3    H163359   6.279   3.556  11.689 -0.1512  0.8691 -1.1649
13956TIP3    H263360   6.235   3.679  11.614  0.3935  1.4924 -0.4784
13957TIP3   OH263361   0.399   0.638  13.607  0.5828  0.4444  0.7339
13957TIP3    H163362   0.315   0.653  13.649 -1.1798  2.3077 -2.9722
13957TIP3    H263363   0.451   0.716  13.628 -0.7646  2.0017 -1.3975
13958TIP3   OH263364   6.716   4.924   6.316 -0.2222 -0.5669  0.5736
13958TIP3    H163365   6.790   4.922   6.256  0.4605 -2.3799  1.3980
13958TIP3    H263366   6.686   5.015   6.315  1.7829  0.1308 -0.0651
13959TIP3   OH263367   6.012   0.309  15.645 -0.1479 -0.4639 -0.1766
13959TIP3    H163368   5.985   0.225  15.682 -0.5444 -1.0453 -1.7115
13959TIP3    H263369   5.931   0.347  15.610 -0.0473  0.7727  0.8459
13960TIP3   OH263370   0.719   1.379   2.970 -0.2456  0.1468 -0.1605
13960TIP3    H163371   0.789   1.410   3.027 -1.3763  0.6118  1.0125
13960TIP3    H263372   0.640   1.422   3.002 -1.4942 -2.1779  0.0911
13961TIP3   OH263373   3.746   4.778   4.492 -0.1365 -0.4841 -0.0216
13961TIP3    H163374   3.771   4.686   4.497 -1.5904 -0.8700  0.7228
13961TIP3    H263375   3.653   4.779   4.515 -0.6830  0.9230 -1.9775
13962TIP3   OH263376   2.297   5.493  17.002 -1.0804  0.1573 -0.5567
13962TIP3    H163377   2.217   5.547  16.998 -0.6032  1.0581  1.1092
13962TIP3    H263378   2.363   5.546  16.957 -1.1059 -0.0137 -0.7971
13963TIP3   OH263379   2.880   1.290   1.714  0.2008 -0.0054  0.1619
13963TIP3    H163380   2.945   1.221   1.699 -0.5136 -0.6434 -0.0497
13963TIP3    H263381   2.931   1.364   1.746  1.3947  0.3680 -2.3961
13964TIP3   OH263382   6.321   1.341  14.169 -0.1400  0.6035 -0.4149
13964TIP3    H163383   6.343   1.375  14.256  1.3393 -0.9379 -0.1207
13964TIP3    H263384   6.406   1.316  14.131 -1.0735 -3.4533 -0.2470
13965TIP3   OH263385   1.477   0.910  15.606  0.4839  0.1232  0.1512
13965TIP3    H163386   1.430   0.888  15.686 -1.0097  1.0810 -0.3940
13965TIP3    H263387   1.556   0.955  15.635 -0.2123  0.7735  1.1100
13966TIP3   OH263388   4.848   6.016   0.089 -0.1852  0.0492  0.1759
13966TIP3    H163389   4.854   5.933   0.041 -0.5061  0.7913 -1.2270
13966TIP3    H263390   4.930   6.061   0.069 -0.4520  0.4940  0.0628
13967TIP3   OH263391   0.862   5.500  11.409  0.0776  0.4785  0.0886
13967TIP3    H163392   0.795   5.511  11.477  0.4536  1.3668  0.3318
13967TIP3    H263393   0.869   5.587  11.368  1.4635  0.5485  0.4351
13968TIP3   OH263394   0.897   1.447   1.327 -0.6110  0.4583 -0.0348
13968TIP3    H163395   0.822   1.441   1.386 -1.1499 -0.8276 -0.8270
13968TIP3    H263396   0.863   1.418   1.242  0.9480 -0.8716 -0.2419
13969TIP3   OH263397   4.338   1.533   6.547  0.2853  0.4293 -0.7564
13969TIP3    H163398   4.259   1.564   6.504 -0.6686 -1.0204 -0.1426
13969TIP3    H263399   4.307   1.482   6.622  1.8320  0.7740  0.1861
13970TIP3   OH263400   2.309   5.504  12.660 -0.0307 -0.1868 -0.2963
13970TIP3    H163401   2.316   5.530  12.568  0.7021 -0.4543 -0.3260
13970TIP3    H263402   2.347   5.578  12.708 -0.9124  0.1878 -0.1709
13971TIP3   OH263403   5.107   5.665   5.090  0.0157  0.1400 -0.5069
13971TIP3    H163404   5.032   5.626   5.045  0.4000 -0.3131 -0.7507
13971TIP3    H263405   5.168   5.593   5.102  0.4493  0.5283 -0.3796
13972TIP3   OH263406   0.438   1.035   1.863  0.0604 -0.2956 -0.4758
13972TIP3    H163407   0.490   0.961   1.831 -0.2478 -1.1464  0.9094
13972TIP3    H263408   0.397   1.070   1.784  1.2185 -0.7939 -1.3390
13973TIP3   OH263409   3.327   2.236   3.234 -0.1184 -0.3205 -0.1469
13973TIP3    H163410   3.410   2.235   3.187 -0.4076 -1.4103 -0.6693
13973TIP3    H263411   3.292   2.148   3.223 -0.7731 -0.2431  1.1035
13974TIP3   OH263412   4.936   3.308   2.001  0.2850  0.4168 -0.4861
13974TIP3    H163413   4.916   3.291   2.093 -0.4238  0.2385 -0.6614
13974TIP3    H263414   4.928   3.403   1.991  0.0499  0.4038 -0.4284
13975TIP3   OH263415   5.315   6.114  10.639 -0.3035 -0.0163 -0.0915
13975TIP3    H163416   5.375   6.155  10.577 -0.5739  0.5384  0.0097
13975TIP3    H263417   5.228   6.144  10.613 -0.3320  1.1230  1.2020
13976TIP3   OH263418   2.399   1.062   5.038  0.5167  0.1694 -0.0639
13976TIP3    H163419   2.465   1.057   5.108  0.8903 -2.5146 -0.5025
13976TIP3    H263420   2.316   1.044   5.083  0.7027 -1.1333 -0.2265
13977TIP3   OH263421   2.146   4.386   4.844  0.2234 -0.1733  0.2805
13977TIP3    H163422   2.190   4.379   4.760 -0.5837 -1.1683 -0.0741
13977TIP3    H263423   2.217   4.379   4.909  0.8845  0.8948 -0.2873
13978TIP3   OH263424   0.928   5.230   6.168 -0.7355  0.4269 -0.4583
13978TIP3    H163425   0.857   5.289   6.145 -0.5341  1.3656  1.1538
13978TIP3    H263426   0.884   5.146   6.184 -1.5385  1.0287  0.6707
13979TIP3   OH263427   3.586   3.383   0.093  0.8530  0.7784  0.2606
13979TIP3    H163428   3.614   3.384   0.184  1.1543  0.8751  0.1670
13979TIP3    H263429   3.667   3.393   0.042  1.0966 -2.0770 -0.1018
13980TIP3   OH263430   0.667   3.331   5.205 -0.0825 -0.1415  0.4505
13980TIP3    H163431   0.588   3.285   5.176 -0.6673  1.5158 -0.6971
13980TIP3    H263432   0.735   3.263   5.205 -0.9261 -1.0536 -1.1353
13981TIP3   OH263433   3.765   1.967  14.659 -0.5091 -0.4492  0.5500
13981TIP3    H163434   3.853   1.934  14.678 -0.1723  0.2817  0.3158
13981TIP3    H263435   3.769   1.992  14.567 -1.2912 -1.4054  0.2572
13982TIP3   OH263436   1.850   3.026  14.215 -0.3535  0.6669  0.2871
13982TIP3    H163437   1.860   2.935  14.189 -1.0791  1.0130 -1.3671
13982TIP3    H263438   1.774   3.027  14.273  0.0874  0.1451  0.8917
13983TIP3   OH263439   0.073   6.497  10.717  0.7513 -0.1109  0.3957
13983TIP3    H163440   0.082   6.495  10.622 -0.2158 -1.5286  0.2937
13983TIP3    H263441  -0.004   6.442  10.735  1.3754 -0.5096  2.0504
13984TIP3   OH263442   6.324   0.328  17.070 -0.5215 -0.4819 -0.9193
13984TIP3    H163443   6.283   0.344  16.985  0.8994  1.9238 -1.2304
13984TIP3    H263444   6.418   0.334  17.053 -0.2074  0.2092  0.8499
13985TIP3   OH263445   0.607   2.886   3.357 -0.9038  0.3719 -0.4836
13985TIP3    H163446   0.700   2.866   3.346 -0.4654  1.4396  0.9790
13985TIP3    H263447   0.603   2.982   3.360 -1.9583  0.3178  0.2262
13986TIP3   OH263448   0.188   4.995  12.250 -0.0807  0.4103  0.2721
13986TIP3    H163449   0.135   4.925  12.213  0.0088  0.4055  0.1540
13986TIP3    H263450   0.137   5.027  12.325  0.7503 -1.0654  1.5337
13987TIP3   OH263451   1.861   3.492  11.205  0.8507 -0.3667 -1.0816
13987TIP3    H163452   1.930   3.528  11.260  0.0561  0.2318 -0.4463
13987TIP3    H263453   1.907   3.441  11.138  1.9130  0.2890 -0.8693
13988TIP3   OH263454   4.181   4.415   1.355  0.1389  0.0509  0.2146
13988TIP3    H163455   4.202   4.401   1.262 -0.7456 -2.6026  0.3062
13988TIP3    H263456   4.244   4.362   1.402 -1.3110 -1.1482  0.9077
13989TIP3   OH263457   3.763   1.114  15.746  0.0545  0.4296 -0.2272
13989TIP3    H163458   3.799   1.051  15.808 -0.8602  0.9958  0.9094
13989TIP3    H263459   3.837   1.137  15.690  0.9508  0.0368  0.7677
13990TIP3   OH263460   1.522   0.517  17.145  0.3901  0.5915  0.9453
13990TIP3    H163461   1.562   0.471  17.071  0.3185 -0.4058  1.5109
13990TIP3    H263462   1.492   0.447  17.203  2.5749  1.2840  3.0828
13991TIP3   OH263463   2.559   6.568  15.747  0.6271 -0.3065 -0.4393
13991TIP3    H163464   2.653   6.576  15.765  0.4231  2.0833 -0.0786
13991TIP3    H263465   2.530   6.658  15.733 -1.3872 -1.1145 -1.8525
13992TIP3   OH263466   1.891   0.579   4.643  0.4354  0.0847 -0.2266
13992TIP3    H163467   1.895   0.532   4.726  2.1191  0.9144  0.2191
13992TIP3    H263468   1.933   0.521   4.580 -1.8721 -1.0432 -0.8152
13993TIP3   OH263469   4.444   0.827   2.024 -0.2489 -0.8818  0.0348
13993TIP3    H163470   4.360   0.820   2.071  0.1422 -1.9681  0.6185
13993TIP3    H263471   4.466   0.736   2.002  1.1382 -0.6863  0.5543
13994TIP3   OH263472   4.168   6.311  14.182  0.9908 -0.2628 -0.1247
13994TIP3    H163473   4.215   6.300  14.265 -0.1169 -0.7007  0.4571
13994TIP3    H263474   4.171   6.406  14.166 -0.3564  0.0801  1.3788
13995TIP3   OH263475   2.554   4.645  11.988  0.9527  0.0697 -0.4678
13995TIP3    H163476   2.515   4.602  11.912  3.3381 -1.2214 -1.0598
13995TIP3    H263477   2.580   4.574  12.046 -0.1505  1.0162  1.2616
13996TIP3   OH263478   0.917   1.995  11.000  0.0927 -0.5076 -0.0373
13996TIP3    H163479   0.824   1.970  11.003  0.2478 -1.0220  0.5562
13996TIP3    H263480   0.925   2.044  10.918 -0.6510 -0.6795 -0.2248
13997TIP3   OH263481   5.681   5.223  11.174 -0.1024 -0.5293  0.0418
13997TIP3    H163482   5.624   5.147  11.183 -3.8690  1.7894 -1.8505
13997TIP3    H263483   5.734   5.204  11.097 -1.4085 -1.0200 -0.7632
13998TIP3   OH263484   2.905   5.882   1.899 -0.2474  0.3229  0.2307
13998TIP3    H163485   2.851   5.961   1.896  0.2630  0.6539 -0.9747
13998TIP3    H263486   2.848   5.814   1.935 -0.9307  1.0692  0.5509
13999TIP3   OH263487   0.095   6.551   0.487 -0.1491  0.3945  0.5759
13999TIP3    H163488   0.011   6.573   0.445 -0.6036 -1.5046  0.3908
13999TIP3    H263489   0.083   6.577   0.578 -1.1526 -0.2979  0.6612
14000TIP3   OH263490   0.288   6.628   4.345 -0.4432 -0.0322  0.1507
14000TIP3    H163491   0.242   6.567   4.404 -0.4205  0.4520  0.6807
14000TIP3    H263492   0.268   6.714   4.380 -1.1922  0.3319 -1.1138
14001TIP3   OH263493   1.361   2.034  10.643 -0.5781 -0.9402 -0.2186
14001TIP3    H163494   1.435   2.095  10.640 -1.2231  0.0317  1.8101
14001TIP3    H263495   1.308   2.064  10.717 -3.7125 -0.8225 -2.3143
14002TIP3   OH263496   0.292   1.675   1.137  0.0513  0.2647  0.4060
14002TIP3    H163497   0.338   1.712   1.062  0.4476 -1.3692 -0.2000
14002TIP3    H263498   0.361   1.649   1.198 -0.1947  0.2882  0.6980
14003TIP3   OH263499   1.293   2.058   5.512  0.0614 -0.4281  0.5074
14003TIP3    H163500   1.297   2.132   5.573 -1.1078 -0.3497  0.5270
14003TIP3    H263501   1.345   2.086   5.437 -1.6447  1.1253 -0.1722
14004TIP3   OH263502   0.490   2.721   1.360 -0.2048  0.0864 -0.8931
14004TIP3    H163503   0.414   2.697   1.307 -1.3290  0.5428  0.4304
14004TIP3    H263504   0.494   2.817   1.353 -0.7265  0.2062  0.2834
14005TIP3   OH263505   6.716   0.085   4.616 -0.0172 -0.0155  0.5768
14005TIP3    H163506   6.628   0.118   4.601 -0.1998 -0.4543  0.6785
14005TIP3    H263507   6.710   0.034   4.697 -0.2181 -1.9595 -0.5770
14006TIP3   OH263508   5.566   3.574  12.209  0.4771  0.4965 -0.2753
14006TIP3    H163509   5.495   3.611  12.157  0.4819 -3.1239 -3.2113
14006TIP3    H263510   5.644   3.623  12.183  0.0116  0.5414 -1.6241
14007TIP3   OH263511   4.994   6.033  15.719  0.2040 -0.6857  0.0741
14007TIP3    H163512   5.002   6.123  15.750  0.1519 -0.2035 -1.2571
14007TIP3    H263513   5.080   6.013  15.682  0.2266 -1.2095  0.3962
14008TIP3   OH263514   4.179   2.002  13.505 -0.3719 -0.1456  0.2030
14008TIP3    H163515   4.178   1.979  13.598  1.0484 -0.2319  0.2282
14008TIP3    H263516   4.193   2.096  13.503  2.5076 -0.4837  0.1327
14009TIP3   OH263517   3.349   3.722  15.484 -0.1418  0.3576  0.1360
14009TIP3    H163518   3.272   3.751  15.434 -0.2262  0.1991  0.1732
14009TIP3    H263519   3.351   3.780  15.560 -0.1996  0.3880  0.1143
14010TIP3   OH263520   0.081   2.256   0.878 -0.1232  0.5121 -0.1287
14010TIP3    H163521   0.114   2.210   0.955 -0.5176 -2.0110 -1.3557
14010TIP3    H263522  -0.010   2.278   0.901  0.1715  1.0273  0.5998
14011TIP3   OH263523   2.004   2.432   3.118  0.3439 -0.3979 -0.2107
14011TIP3    H163524   2.017   2.509   3.062  1.9690 -0.3700  0.1624
14011TIP3    H263525   2.043   2.360   3.068 -0.7889 -0.9284 -0.3673
14012TIP3   OH263526   2.333   0.117   0.721 -0.0831  0.2078  0.4379
14012TIP3    H163527   2.299   0.060   0.652 -0.0645 -0.2978  0.8393
14012TIP3    H263528   2.391   0.178   0.676 -0.6487  0.3540 -0.0927
14013TIP3   OH263529   1.677   1.525  14.845 -0.4889  0.3486 -0.0003
14013TIP3    H163530   1.761   1.487  14.821  0.0141  0.8921  0.8273
14013TIP3    H263531   1.622   1.514  14.767 -0.4203 -2.1157  0.2197
14014TIP3   OH263532   3.442   0.190  12.979  0.2220  0.3492  0.1547
14014TIP3    H163533   3.457   0.273  13.024  0.2497  0.7509 -0.5818
14014TIP3    H263534   3.514   0.133  13.007 -0.0534  0.4160  1.0176
14015TIP3   OH263535   3.279   2.181   0.926  0.0201  0.2649 -0.2686
14015TIP3    H163536   3.272   2.156   1.019  0.3119 -1.0131 -0.5706
14015TIP3    H263537   3.227   2.261   0.919  1.2274  1.2806  1.3219
14016TIP3   OH263538   2.838   5.942  15.573 -0.2125  0.7158 -0.4485
14016TIP3    H163539   2.852   5.923  15.665 -2.1860  1.0836 -0.0414
14016TIP3    H263540   2.927   5.954  15.537  0.8148 -2.3753  0.6951
14017TIP3   OH263541   2.909   0.509   3.282  0.0022 -0.6032  0.5905
14017TIP3    H163542   2.906   0.416   3.260  1.5206 -0.1074 -2.0924
14017TIP3    H263543   2.826   0.525   3.328 -0.9541 -2.9550 -0.1510
14018TIP3   OH263544   0.699   0.461  10.568  0.3091  0.6146  0.3613
14018TIP3    H163545   0.766   0.405  10.607  0.2904  0.0382 -0.4160
14018TIP3    H263546   0.625   0.402  10.552 -0.2238  1.1501  0.7892
14019TIP3   OH263547   1.393   2.772  13.442 -0.6127  0.5960 -0.0995
14019TIP3    H163548   1.377   2.863  13.467 -5.2637 -0.0327  0.1930
14019TIP3    H263549   1.349   2.721  13.510  1.6202 -1.9448 -0.3906
14020TIP3   OH263550   2.173   0.922   0.803  0.1840  0.3215 -0.2310
14020TIP3    H163551   2.239   0.863   0.839 -0.0583 -0.1957 -0.6207
14020TIP3    H263552   2.224   0.992   0.761  0.5388 -0.8102 -1.7832
14021TIP3   OH263553   3.493   3.323  11.240  0.1108  0.0012 -0.4175
14021TIP3    H163554   3.580   3.295  11.271  0.1120  1.6004  1.2606
14021TIP3    H263555   3.507   3.414  11.212 -1.1592  0.5552  0.6662
14022TIP3   OH263556   6.490   1.247  10.350 -0.4786  0.4880 -0.5666
14022TIP3    H163557   6.456   1.310  10.286  0.2168  1.3176 -0.1490
14022TIP3    H263558   6.422   1.241  10.417 -0.3328  1.2245 -0.3368
14023TIP3   OH263559   2.598   6.340   4.849  0.1596 -0.6532  0.0241
14023TIP3    H163560   2.587   6.363   4.941 -0.9419 -0.7633 -0.0563
14023TIP3    H263561   2.689   6.312   4.841  0.5867  0.4475  0.8254
14024TIP3   OH263562   0.867   4.019  11.896  0.5274 -0.2615 -0.3149
14024TIP3    H163563   0.854   4.055  11.984 -1.2721 -1.1666 -0.1702
14024TIP3    H263564   0.942   3.959  11.906 -1.2337 -2.3809  1.3034
14025TIP3   OH263565   1.645   4.853   2.511  0.2107  0.4929  0.3993
14025TIP3    H163566   1.583   4.864   2.439 -1.5109 -1.4661  1.4676
14025TIP3    H263567   1.592   4.821   2.584  2.4170 -1.0780  1.4503
14026TIP3   OH263568   6.552   1.586  13.386  0.1211 -0.8221  0.8137
14026TIP3    H163569   6.532   1.649  13.455 -0.4668  0.1210 -0.1852
14026TIP3    H263570   6.645   1.598  13.369 -0.3200  1.1414 -0.6131
14027TIP3   OH263571   1.977   1.068   1.751  0.4049  1.0402 -1.0029
14027TIP3    H163572   1.949   1.063   1.659  0.3256  0.7340 -0.9644
14027TIP3    H263573   2.065   1.106   1.747  0.7283  0.2975 -1.2737
14028TIP3   OH263574   2.091   5.233  11.534 -0.2321  0.0762 -0.0850
14028TIP3    H163575   2.155   5.186  11.588  0.0930  1.2875  0.6102
14028TIP3    H263576   2.143   5.293  11.481 -0.7495  0.7787  0.1812
14029TIP3   OH263577   5.865   6.685  12.793  0.3415 -0.3402  0.7784
14029TIP3    H163578   5.922   6.631  12.738  1.2319  0.2142  1.1464
14029TIP3    H263579   5.871   6.773  12.757 -1.2824 -0.4847  0.0465
14030TIP3   OH263580   5.461   0.031   6.740 -1.0905  0.1303 -0.4206
14030TIP3    H163581   5.407   0.036   6.661 -1.9036 -0.8692  0.0534
14030TIP3    H263582   5.493  -0.059   6.743  0.0475  0.5149 -0.3115
14031TIP3   OH263583   6.625   3.177  16.809 -0.3432  0.4740  0.4311
14031TIP3    H163584   6.572   3.132  16.744 -0.3100 -1.4595  1.6736
14031TIP3    H263585   6.572   3.254  16.833 -1.4650 -0.1058 -0.0860
14032TIP3   OH263586   2.592   2.228  16.756  0.5632 -0.2225  0.4271
14032TIP3    H163587   2.539   2.304  16.782 -0.8684 -1.7861  2.4056
14032TIP3    H263588   2.658   2.264  16.697 -1.2864  2.2214 -0.3282
14033TIP3   OH263589   0.478   0.034  15.508  0.3226  0.1653  0.0308
14033TIP3    H163590   0.397   0.079  15.534 -1.4872 -2.4491 -0.6180
14033TIP3    H263591   0.508  -0.008  15.589  0.7389  0.6766  0.1477
14034TIP3   OH263592   4.469   0.155   0.278  0.1974 -0.1724 -0.2740
14034TIP3    H163593   4.400   0.164   0.344  1.6298  0.1482  1.2811
14034TIP3    H263594   4.489   0.061   0.277  0.8768 -0.0554  0.5694
14035TIP3   OH263595   2.647   3.123   1.995 -0.1260  0.3375 -0.0064
14035TIP3    H163596   2.645   3.209   2.038 -0.1910  0.4972 -0.3197
14035TIP3    H263597   2.727   3.082   2.027  0.1048  0.6707 -0.1436
14036TIP3   OH263598   6.558   5.680  13.395 -0.0546 -0.3973  0.3123
14036TIP3    H163599   6.514   5.676  13.480 -0.1988 -0.5253  0.2303
14036TIP3    H263600   6.489   5.703  13.333 -0.2390 -1.6934  0.0086
14037TIP3   OH263601   0.446   0.648  14.866  0.0498 -0.2896  0.1808
14037TIP3    H163602   0.525   0.700  14.883 -0.7863  0.2465  2.7509
14037TIP3    H263603   0.474   0.557  14.877  0.1557 -0.0653  1.9826
14038TIP3   OH263604   6.678   4.329   2.993  0.4214  0.0993 -0.0711
14038TIP3    H163605   6.766   4.358   3.017  0.3518 -1.5246  2.6617
14038TIP3    H263606   6.691   4.245   2.948  0.2919 -0.1271  0.3055
14039TIP3   OH263607   5.121   5.440   2.148 -0.5661  0.1914  0.3571
14039TIP3    H163608   5.113   5.442   2.243 -1.3831  1.9552  0.2917
14039TIP3    H263609   5.101   5.529   2.120  0.3387 -0.1127 -1.4343
14040TIP3   OH263610   1.340   5.174   3.377  0.0538 -0.6637 -0.1166
14040TIP3    H163611   1.396   5.245   3.347  0.0618 -1.6290 -2.5401
14040TIP3    H263612   1.253   5.214   3.384  0.3313 -0.0649  0.0314
14041TIP3   OH263613   3.294   4.973  15.615 -0.1902 -0.2194 -0.2948
14041TIP3    H163614   3.230   5.044  15.611 -0.6586 -0.7028 -1.8849
14041TIP3    H263615   3.317   4.955  15.524  1.6312 -0.5984  0.1986
14042TIP3   OH263616   5.586   4.839  13.830 -0.5446 -0.3827  0.3856
14042TIP3    H163617   5.644   4.789  13.888 -0.5754 -0.9331 -0.0492
14042TIP3    H263618   5.608   4.930  13.847 -0.2013 -0.5548  0.8992
14043TIP3   OH263619   3.081   1.963  14.187 -0.2385 -0.3341  0.1381
14043TIP3    H163620   3.061   1.880  14.231  0.1533 -0.8638 -0.6635
14043TIP3    H263621   3.170   1.952  14.154  0.2861  0.8634  1.0546
14044TIP3   OH263622   0.383   6.737  15.938 -0.5902 -0.2251  0.5942
14044TIP3    H163623   0.359   6.693  16.020  0.1432  0.1126  0.9911
14044TIP3    H263624   0.409   6.825  15.964 -0.9401  0.0842 -0.0764
14045TIP3   OH263625   1.345   5.381   5.237  0.0582 -0.6435  0.0038
14045TIP3    H163626   1.330   5.464   5.282 -0.3429 -1.3333  1.2035
14045TIP3    H263627   1.366   5.405   5.147 -1.2441  0.7006  0.0226
14046TIP3   OH263628   4.225   4.253  15.162 -0.5345 -0.2515  0.4140
14046TIP3    H163629   4.141   4.236  15.205 -0.1048 -1.7853  0.7099
14046TIP3    H263630   4.287   4.196  15.207  0.6703  0.8143  0.1514
14047TIP3   OH263631   3.271   6.193  11.538  0.3128 -0.1786  0.2885
14047TIP3    H163632   3.211   6.195  11.612  1.6159 -0.3036  1.3831
14047TIP3    H263633   3.269   6.283  11.504 -0.5183 -0.1921  0.2735
14048TIP3   OH263634   0.556   4.172  11.368  0.0045  0.6136 -0.5375
14048TIP3    H163635   0.641   4.136  11.392 -0.1208 -0.7115 -1.9218
14048TIP3    H263636   0.573   4.222  11.288 -0.5866 -0.0769 -1.1079
14049TIP3   OH263637   1.525   3.970  12.822 -0.1661  0.2867 -0.1638
14049TIP3    H163638   1.478   3.971  12.739 -1.5722  1.1401  0.6009
14049TIP3    H263639   1.457   3.958  12.888  0.8587  0.1883  0.9106
14050TIP3   OH263640   3.131   6.778  15.703 -0.0921 -0.1617  0.0701
14050TIP3    H163641   3.061   6.739  15.651 -0.1715  0.2900 -0.1723
14050TIP3    H263642   3.210   6.764  15.652  0.3291 -2.3203  1.1947
14051TIP3   OH263643   2.659   1.595   4.351  0.0014  0.2143  0.2037
14051TIP3    H163644   2.715   1.518   4.361  0.4044  0.2544 -1.3530
14051TIP3    H263645   2.696   1.660   4.411  1.1857 -0.0108 -0.2563
14052TIP3   OH263646   4.138   0.482   0.798  0.3766 -0.1009 -0.2109
14052TIP3    H163647   4.163   0.396   0.830  1.0607 -0.5196 -1.8144
14052TIP3    H263648   4.220   0.525   0.775 -0.0297  0.5441 -0.5232
14053TIP3   OH263649   3.838   6.025  13.825 -0.2186  0.2929 -0.3180
14053TIP3    H163650   3.912   6.078  13.795 -0.3193  0.7921  0.2886
14053TIP3    H263651   3.766   6.088  13.833 -0.1827  0.1936  0.9873
14054TIP3   OH263652   2.907   3.990   2.269  0.5737 -0.2576  0.3059
14054TIP3    H163653   2.987   4.030   2.234  0.5090 -0.7985 -0.4906
14054TIP3    H263654   2.836   4.028   2.217  0.0986  1.5954  2.2022
14055TIP3   OH263655   2.276   1.985  15.938 -0.2580  0.0176 -0.7350
14055TIP3    H163656   2.262   1.971  15.844  0.6004  3.0767 -1.4338
14055TIP3    H263657   2.189   1.974  15.977 -1.0839  0.8176 -2.2438
14056TIP3   OH263658   4.424   1.448  14.326 -0.0719  0.2367  0.3371
14056TIP3    H163659   4.380   1.499  14.394 -0.9032 -0.3633  0.2615
14056TIP3    H263660   4.413   1.357  14.352  1.3714  0.0733  0.4489
14057TIP3   OH263661   0.532   0.888  12.136 -0.0236 -0.0624  0.1000
14057TIP3    H163662   0.538   0.899  12.041  1.7503  1.1309  0.3063
14057TIP3    H263663   0.618   0.853  12.161 -0.8754 -1.5207  1.1580
14058TIP3   OH263664   0.028   4.918  14.584 -0.3266  0.5830  0.0302
14058TIP3    H163665  -0.020   4.987  14.631 -0.0322  1.0602 -0.3571
14058TIP3    H263666   0.114   4.956  14.567  1.0442 -1.0385  2.6649
14059TIP3   OH263667   5.420   5.173  16.964  0.0806  0.0825  0.5633
14059TIP3    H163668   5.345   5.231  16.963  0.3692  0.4994 -0.9940
14059TIP3    H263669   5.384   5.087  16.942 -0.1245 -0.0096  1.2443
14060TIP3   OH263670   4.503   4.124   5.600  0.0104 -0.1724 -0.0833
14060TIP3    H163671   4.441   4.141   5.671  1.3446  0.8731  0.8793
14060TIP3    H263672   4.517   4.029   5.603  0.2454 -0.1241  1.2598
14061TIP3   OH263673   5.792   5.114   4.058 -0.4492 -0.1109 -0.0244
14061TIP3    H163674   5.711   5.065   4.049  0.8231 -2.6031  1.1731
14061TIP3    H263675   5.775   5.177   4.129 -0.9545 -1.5098  1.1316
14062TIP3   OH263676   2.106   4.477  16.331  0.0822 -0.3317  0.0832
14062TIP3    H163677   2.087   4.453  16.240  0.7475 -1.1327  0.1518
14062TIP3    H263678   2.180   4.537  16.324  0.0516 -0.2924  0.0961
14063TIP3   OH263679   5.761   0.857   5.752  0.2256  0.7587  0.0132
14063TIP3    H163680   5.705   0.810   5.815 -0.7732 -0.6762 -1.8399
14063TIP3    H263681   5.805   0.924   5.805  1.5641 -2.0599  2.8255
14064TIP3   OH263682   4.809   1.001  11.791 -0.3822 -0.2585 -0.3108
14064TIP3    H163683   4.853   0.925  11.828 -0.4611 -0.2056 -0.1095
14064TIP3    H263684   4.880   1.058  11.762 -0.2742  0.5847  1.5142
14065TIP3   OH263685   0.700   1.285   4.885 -0.0447  0.5474 -0.5659
14065TIP3    H163686   0.765   1.355   4.898  0.4126  0.1993 -0.9643
14065TIP3    H263687   0.707   1.232   4.964 -0.0465  0.6722 -0.4811
14066TIP3   OH263688   6.238   5.628   2.297  0.3878 -0.2411  0.5379
14066TIP3    H163689   6.289   5.637   2.377  0.1165 -0.8835  0.7885
14066TIP3    H263690   6.177   5.702   2.299  0.2337 -0.3794  1.0335
14067TIP3   OH263691   1.755   2.731   2.303 -0.1459  0.4144  0.4888
14067TIP3    H163692   1.777   2.758   2.213 -0.2269 -1.1580 -0.0226
14067TIP3    H263693   1.660   2.735   2.307 -0.2792 -1.4590 -0.1609
14068TIP3   OH263694   5.762   1.691  14.548  0.4066 -0.2150  0.2463
14068TIP3    H163695   5.772   1.652  14.461  0.6876  1.1848 -0.3616
14068TIP3    H263696   5.844   1.738  14.563  0.1605 -0.0388  1.0628
14069TIP3   OH263697   4.505   3.849   5.588  0.2000 -0.4289  0.1506
14069TIP3    H163698   4.417   3.813   5.577  0.8379 -2.1063  0.3203
14069TIP3    H263699   4.555   3.779   5.629  1.3827  0.8518  0.9835
14070TIP3   OH263700   0.372   2.289  15.409 -0.3214 -0.3642  0.3522
14070TIP3    H163701   0.361   2.368  15.357 -1.5615 -0.1695  0.8819
14070TIP3    H263702   0.466   2.285  15.428  0.6336 -1.5608 -3.6127
14071TIP3   OH263703   2.613   0.116   0.837 -0.4095 -0.1625  0.0071
14071TIP3    H163704   2.552   0.180   0.873 -1.1412  0.2992 -1.9641
14071TIP3    H263705   2.570   0.031   0.853 -1.3085  0.1187 -0.7963
14072TIP3   OH263706   2.614   0.376   4.385 -0.1018  0.6311  0.0458
14072TIP3    H163707   2.699   0.337   4.363 -0.2414  0.5531 -0.3764
14072TIP3    H263708   2.556   0.300   4.395 -0.7098  0.7239 -2.1714
14073TIP3   OH263709   4.896   5.401  17.188 -0.3488  0.3457  0.7494
14073TIP3    H163710   4.869   5.472  17.246  1.1563  1.6841 -0.1088
14073TIP3    H263711   4.858   5.424  17.103 -0.9376 -0.5903  0.7439
14074TIP3   OH263712   4.593   6.451   0.077  0.2268 -0.3094 -0.1163
14074TIP3    H163713   4.523   6.515   0.067  0.8182  0.5215  0.8487
14074TIP3    H263714   4.671   6.496   0.045  0.2300 -1.4872 -1.9014
14075TIP3   OH263715   5.251   1.248   1.635 -0.0178 -0.5146 -0.1291
14075TIP3    H163716   5.320   1.187   1.610  0.5775 -0.3145  0.9630
14075TIP3    H263717   5.253   1.249   1.731 -1.8550 -0.8538 -0.0541
14076TIP3   OH263718   6.472   0.381   0.472 -0.4718 -0.4883 -0.0141
14076TIP3    H163719   6.523   0.419   0.400 -0.9440  0.6448  0.2347
14076TIP3    H263720   6.382   0.378   0.439 -0.2564 -2.6486 -0.5183
14077TIP3   OH263721   6.055   3.401   2.795  0.2025  0.8397 -0.6447
14077TIP3    H163722   6.081   3.345   2.721  0.2804  1.1518 -0.8581
14077TIP3    H263723   6.129   3.398   2.855 -0.1080  0.0960 -0.2857
14078TIP3   OH263724   4.118   3.060   0.695  0.0046 -0.0243  0.7767
14078TIP3    H163725   4.208   3.042   0.668 -0.4962 -0.1571 -0.8685
14078TIP3    H263726   4.069   3.066   0.614 -1.2750  1.2529  1.5972
14079TIP3   OH263727   0.223   1.642   3.534  0.6166  0.0919  0.5477
14079TIP3    H163728   0.263   1.724   3.506 -1.4974  0.9546 -0.1557
14079TIP3    H263729   0.213   1.591   3.454  1.7720 -0.8267  0.9559
14080TIP3   OH263730   6.508   4.401   2.461  0.1824  0.0120 -0.6028
14080TIP3    H163731   6.577   4.345   2.499  0.0265  0.2310  0.0077
14080TIP3    H263732   6.550   4.486   2.450  0.2395 -0.0627 -0.9622
14081TIP3   OH263733   5.768   1.335  17.049 -0.2506 -0.0810  0.0261
14081TIP3    H163734   5.745   1.400  16.982  0.6146  0.3798  0.1703
14081TIP3    H263735   5.790   1.256  16.999 -1.3754 -0.3049 -0.1443
14082TIP3   OH263736   6.018   3.854   6.003 -0.7846 -0.3599  0.5236
14082TIP3    H163737   5.989   3.931   6.053 -0.5888  1.2578 -1.6689
14082TIP3    H263738   5.937   3.813   5.975 -0.8951 -0.5291  1.0699
14083TIP3   OH263739   1.084   4.310   5.690  0.1847  0.9807  0.2749
14083TIP3    H163740   1.024   4.324   5.763  1.4991  1.7168  1.2568
14083TIP3    H263741   1.057   4.226   5.652 -1.6469  1.4524  0.4671
14084TIP3   OH263742   1.151   4.389  13.241  0.4956  0.4302  0.1513
14084TIP3    H163743   1.064   4.378  13.202 -0.6400 -1.0546  2.8295
14084TIP3    H263744   1.210   4.350  13.177 -0.8317  1.0526 -1.5325
14085TIP3   OH263745   3.822   1.120   0.994  0.0220 -0.6030  0.6478
14085TIP3    H163746   3.882   1.164   1.054 -2.0119  0.8844  1.6611
14085TIP3    H263747   3.879   1.085   0.925  1.8826  2.4049  0.5196
14086TIP3   OH263748   4.317   0.675   4.083 -0.1599 -0.7246 -0.0421
14086TIP3    H163749   4.286   0.715   4.164  1.3688 -0.1117  0.2811
14086TIP3    H263750   4.272   0.723   4.013 -1.1859 -0.9916  0.4250
14087TIP3   OH263751   3.002   3.557   1.864 -0.1115 -0.2797 -0.0541
14087TIP3    H163752   3.055   3.621   1.817 -1.9843  1.3807  0.0105
14087TIP3    H263753   2.961   3.504   1.796 -0.0064 -0.2215 -0.1620
14088TIP3   OH263754   3.460   0.790   0.408 -0.2086 -0.0241  0.3081
14088TIP3    H163755   3.511   0.752   0.336 -1.7924 -0.0558 -0.8323
14088TIP3    H263756   3.443   0.880   0.381  1.2509  0.7612  1.7985
14089TIP3   OH263757   4.097   1.871   0.369 -0.4361 -0.5150 -0.9601
14089TIP3    H163758   4.186   1.887   0.400 -0.6386  1.9716 -1.4554
14089TIP3    H263759   4.107   1.859   0.275 -0.6341  0.2145 -1.0832
14090TIP3   OH263760   3.521   3.115   3.399 -0.7998 -0.2187 -0.3984
14090TIP3    H163761   3.568   3.195   3.423  1.0170 -1.1721 -0.6850
14090TIP3    H263762   3.510   3.122   3.304 -0.9251 -0.1737 -0.3813
14091TIP3   OH263763   1.737   6.653   2.120  0.0385  0.2470 -0.0324
14091TIP3    H163764   1.804   6.611   2.175 -0.0630  0.2471  0.0934
14091TIP3    H263765   1.758   6.747   2.124  0.0331  0.2468  0.0040
14092TIP3   OH263766   2.093   5.707  12.818 -0.1495  0.1879 -0.7515
14092TIP3    H163767   2.052   5.675  12.738  2.6407 -1.6205 -1.5759
14092TIP3    H263768   2.162   5.765  12.789 -2.6275  4.2586  0.6551
14093TIP3   OH263769   0.484   6.712   3.398  0.5265  0.3656  0.3960
14093TIP3    H163770   0.487   6.723   3.493  0.7857 -0.3991  0.4818
14093TIP3    H263771   0.484   6.617   3.384 -0.9418  0.4339 -0.3212
14094TIP3   OH263772   0.938   0.939   3.927 -0.1891 -0.0029  0.4267
14094TIP3    H163773   0.955   0.998   3.853 -1.2299  0.9182  0.8978
14094TIP3    H263774   0.844   0.924   3.925 -0.1595 -0.3639  1.2806
14095TIP3   OH263775   6.550   3.431   2.652 -0.6372 -0.5027 -0.2356
14095TIP3    H163776   6.606   3.364   2.690  0.8878  1.1359  0.5229
14095TIP3    H263777   6.566   3.426   2.558 -0.8155 -1.3971 -0.2309
14096TIP3   OH263778   6.389   2.188   2.643 -0.3103 -0.0481  0.1134
14096TIP3    H163779   6.474   2.170   2.682 -0.3471  1.2115  0.8410
14096TIP3    H263780   6.394   2.150   2.555  2.3410  2.9043 -1.2434
14097TIP3   OH263781   2.032   1.122   0.393 -0.5669  0.1533  0.3385
14097TIP3    H163782   1.971   1.049   0.406 -1.7333  0.8313 -0.9913
14097TIP3    H263783   2.113   1.080   0.364 -1.1008 -0.6442 -0.0508
14098TIP3   OH263784   3.841   2.988  12.503 -0.3528  0.0418  0.1158
14098TIP3    H163785   3.860   2.896  12.485  1.4228  0.4298 -0.1111
14098TIP3    H263786   3.789   3.017  12.428  1.6717  0.0014 -1.3638
14099TIP3   OH263787   5.751   6.638   3.608 -0.0637 -0.7768  0.6465
14099TIP3    H163788   5.749   6.675   3.519  0.9699 -0.6752  0.6508
14099TIP3    H263789   5.813   6.565   3.602  0.5194 -0.3615  1.4201
14100TIP3   OH263790   4.624   2.542  15.264  0.7058  0.0319 -0.2372
14100TIP3    H163791   4.597   2.450  15.271  1.3595 -0.0958  0.6410
14100TIP3    H263792   4.571   2.576  15.191 -0.8800 -0.5577  0.5775
14101TIP3   OH263793   0.782   3.345   3.821  0.1551 -0.0403 -0.3196
14101TIP3    H163794   0.730   3.290   3.879  0.1854 -1.3950 -1.5153
14101TIP3    H263795   0.722   3.416   3.796 -1.2183 -1.6263 -1.7494
14102TIP3   OH263796   6.413   5.137   3.586 -0.4654  0.1082  0.0954
14102TIP3    H163797   6.495   5.137   3.635 -0.1794  0.1909 -0.3811
14102TIP3    H263798   6.352   5.088   3.642  0.4038 -1.6212 -0.3746
14103TIP3   OH263799   4.425   5.803  12.539  0.0851 -0.2003 -0.3341
14103TIP3    H163800   4.441   5.791  12.445  1.6789  0.1905 -0.1541
14103TIP3    H263801   4.469   5.729  12.580  0.3377  0.2156  0.1533
14104TIP3   OH263802   2.072   2.994  15.644 -0.5222 -0.2097  0.0704
14104TIP3    H163803   2.104   2.904  15.646 -2.0169 -0.7719  1.1753
14104TIP3    H263804   2.020   3.002  15.724 -1.2256  1.3255 -0.5000
14105TIP3   OH263805   1.928   0.327   3.994 -0.1691  0.3597  0.1555
14105TIP3    H163806   1.854   0.284   3.951  0.4079 -1.2827  0.7098
14105TIP3    H263807   1.893   0.357   4.078  0.1581 -2.1464  1.2895
14106TIP3   OH263808   2.677   0.302   5.494 -0.8564  0.4045  0.1450
14106TIP3    H163809   2.599   0.246   5.499 -0.4453 -0.1395  0.5032
14106TIP3    H263810   2.731   0.275   5.567 -0.2700  0.7058 -0.1718
14107TIP3   OH263811   2.820   3.608   4.089 -0.4427 -0.4382 -0.3189
14107TIP3    H163812   2.799   3.518   4.067 -0.0922 -0.0534 -2.5597
14107TIP3    H263813   2.784   3.622   4.177  0.1330 -2.9358  0.3729
14108TIP3   OH263814   0.993   3.610   5.207 -0.5682  0.3408 -0.4974
14108TIP3    H163815   0.950   3.591   5.123  0.1973 -0.1883 -0.7832
14108TIP3    H263816   1.072   3.557   5.205 -1.0555 -0.4938  1.0179
14109TIP3   OH263817   3.465   1.420  15.989  0.2048 -0.3169 -0.0864
14109TIP3    H163818   3.423   1.438  15.904  0.4054  0.4057 -0.0319
14109TIP3    H263819   3.557   1.440  15.975  0.4461 -1.3106 -0.0210
14110TIP3   OH263820   4.854   5.335  16.696 -0.1886  0.1430  0.0793
14110TIP3    H163821   4.788   5.320  16.629  1.5388  0.3125 -1.7566
14110TIP3    H263822   4.938   5.326  16.650  1.0951 -0.1831  2.3200
14111TIP3   OH263823   3.528   2.326   0.844  0.0297  0.4838 -0.2297
14111TIP3    H163824   3.557   2.235   0.835  0.3484  0.5313  0.2971
14111TIP3    H263825   3.447   2.320   0.894  0.3224  0.5278  0.2538
14112TIP3   OH263826   2.365   0.691   3.582  0.4534 -0.0346  0.1842
14112TIP3    H163827   2.307   0.711   3.509 -1.0710 -0.8889  1.1080
14112TIP3    H263828   2.426   0.626   3.547  0.0636 -0.0686 -0.4504
14113TIP3   OH263829   2.641   2.384  10.640 -0.4226  0.4288  0.2756
14113TIP3    H163830   2.571   2.418  10.695 -1.0433 -0.5207  0.0867
14113TIP3    H263831   2.650   2.448  10.569 -1.8926 -0.0142 -0.3343
14114TIP3   OH263832   2.626   0.628  13.380  0.0196  0.3932  0.1976
14114TIP3    H163833   2.678   0.642  13.459 -0.6390  0.9218  0.5486
14114TIP3    H263834   2.620   0.714  13.339  0.2531  0.1434 -0.3649
14115TIP3   OH263835   4.078   6.216   2.910  0.1487  0.1579 -0.5739
14115TIP3    H163836   4.047   6.126   2.904 -0.1594  0.2072  0.1627
14115TIP3    H263837   4.172   6.210   2.893  0.4247 -0.5303  0.9898
14116TIP3   OH263838   2.982   4.219   5.654 -0.7180  0.4574 -0.2253
14116TIP3    H163839   3.041   4.166   5.708 -3.4215 -1.5882  0.9902
14116TIP3    H263840   3.002   4.194   5.564 -0.5569 -1.1508  0.2262
14117TIP3   OH263841   4.848   2.909  11.364  0.1578 -0.4010  0.1110
14117TIP3    H163842   4.915   2.970  11.335 -0.8940  0.3661 -0.7769
14117TIP3    H263843   4.855   2.835  11.303  1.5909 -1.3441  1.3323
14118TIP3   OH263844   3.945   5.152   4.151  0.0165 -0.1097  0.5491
14118TIP3    H163845   4.019   5.213   4.151 -1.0248  1.2117  2.4162
14118TIP3    H263846   3.964   5.092   4.223 -0.8239  0.3668  1.1738
14119TIP3   OH263847   2.657   3.129   6.356 -0.5481  0.5182  0.2265
14119TIP3    H163848   2.686   3.063   6.293 -0.7505  1.4035 -0.8430
14119TIP3    H263849   2.722   3.126   6.426 -0.1570 -0.3070 -0.1618
14120TIP3   OH263850   4.622   0.854   3.891 -0.6367  0.2028  0.1075
14120TIP3    H163851   4.653   0.876   3.979 -1.0441  1.3000 -0.0159
14120TIP3    H263852   4.568   0.776   3.904 -0.3633  0.1100  0.7652
14121TIP3   OH263853   2.423   2.977   2.137 -0.3003  0.6648  0.0891
14121TIP3    H163854   2.447   3.010   2.224  2.4332  0.1931 -0.4005
14121TIP3    H263855   2.451   3.047   2.077  0.2231 -0.0799 -0.5555
14122TIP3   OH263856   4.620   0.991   3.666  0.0618 -0.8719 -0.9152
14122TIP3    H163857   4.641   0.925   3.600  0.6920 -0.3956 -1.2002
14122TIP3    H263858   4.598   0.940   3.744  0.1925 -1.4254 -1.2321
14123TIP3   OH263859   2.960   4.553  14.526 -0.0525  0.1423  0.0491
14123TIP3    H163860   2.986   4.636  14.485 -1.2320  0.9380  0.8378
14123TIP3    H263861   2.936   4.497  14.453  0.3750  0.6225 -0.4754
14124TIP3   OH263862   6.447   3.850   1.685 -0.0171 -0.1899 -0.5585
14124TIP3    H163863   6.468   3.758   1.699  0.5201 -0.2178 -1.5127
14124TIP3    H263864   6.518   3.898   1.728 -0.3522 -0.2095  0.0297
14125TIP3   OH263865   5.122   2.296   4.028  1.1006  0.7358 -0.0474
14125TIP3    H163866   5.117   2.201   4.032  2.4447  0.6682  0.8487
14125TIP3    H263867   5.047   2.327   4.079 -0.1127  0.2099 -1.4410
14126TIP3   OH263868   4.205   5.039  12.688 -0.2483  0.7349 -0.3012
14126TIP3    H163869   4.146   5.021  12.615 -0.1614  1.8347 -0.6693
14126TIP3    H263870   4.155   5.016  12.766 -1.2172  1.7328 -0.6001
14127TIP3   OH263871   0.332   4.438   0.927  0.1033  0.8302  0.3521
14127TIP3    H163872   0.361   4.380   0.857 -1.2822 -0.4920  0.8059
14127TIP3    H263873   0.267   4.495   0.886  0.1783  0.8802  0.3018
14128TIP3   OH263874   5.587   5.361  15.070 -0.1692 -0.0905 -0.7614
14128TIP3    H163875   5.649   5.323  15.007  1.0918  0.4346  0.1105
14128TIP3    H263876   5.508   5.377  15.020  0.8240  0.3739 -2.2444
14129TIP3   OH263877   4.255   4.046  15.750 -0.1341  0.5605  0.3852
14129TIP3    H163878   4.325   4.022  15.690 -2.2829 -0.4768 -1.8738
14129TIP3    H263879   4.286   4.127  15.791  3.3938 -1.0852  1.4097
14130TIP3   OH263880   3.368   2.165   4.681 -0.6899  0.3117 -0.0510
14130TIP3    H163881   3.404   2.079   4.659 -0.9641 -0.0297  0.7908
14130TIP3    H263882   3.423   2.228   4.634  1.4891 -0.1322  1.7749
14131TIP3   OH263883   4.781   1.695  10.934  0.0439 -0.4378  0.3028
14131TIP3    H163884   4.793   1.688  11.029  1.3665 -0.3701  0.1604
14131TIP3    H263885   4.854   1.749  10.904 -1.4024  1.1814 -0.5338
14132TIP3   OH263886   3.406   0.628  13.658  0.0550 -0.0699 -0.3248
14132TIP3    H163887   3.475   0.581  13.704  0.0893  0.3773  0.0937
14132TIP3    H263888   3.354   0.668  13.728  0.3097  0.8987 -0.6752
14133TIP3   OH263889   5.956   0.958  13.885 -0.2604 -0.1763  0.2161
14133TIP3    H163890   6.035   0.936  13.934  1.7336 -0.5737 -2.8577
14133TIP3    H263891   5.982   1.030  13.827 -2.4226  0.2591 -0.3426
14134TIP3   OH263892   2.667   0.234   2.822  0.4418 -0.3323 -0.6211
14134TIP3    H163893   2.667   0.182   2.742  0.1212 -1.0290 -0.1755
14134TIP3    H263894   2.759   0.237   2.849  0.5471 -0.1135 -0.9936
14135TIP3   OH263895   5.058   4.704   1.252 -0.2357  0.5389 -0.3597
14135TIP3    H163896   5.026   4.667   1.170  0.3170  2.8578 -1.6996
14135TIP3    H263897   5.022   4.792   1.254  0.0533  0.6505  1.7540
14136TIP3   OH263898   3.465   2.382  13.684  0.5030  0.1097 -0.4677
14136TIP3    H163899   3.423   2.297  13.673  2.2947 -0.5313 -3.2619
14136TIP3    H263900   3.551   2.372  13.644  2.4049  2.1204  2.6886
14137TIP3   OH263901   3.538   1.273  12.961  0.2946 -0.3416  0.3262
14137TIP3    H163902   3.612   1.313  12.915  0.9291 -2.8121 -0.9976
14137TIP3    H263903   3.579   1.214  13.024 -0.5612 -0.9000  0.3706
14138TIP3   OH263904   5.648   2.839  16.061  0.0017  0.1893  0.6621
14138TIP3    H163905   5.699   2.772  16.014  0.3132 -0.1476  1.4626
14138TIP3    H263906   5.597   2.790  16.125  1.2418  0.8109  2.1775
14139TIP3   OH263907   5.802   6.516  11.667 -0.5130  0.1782  0.4038
14139TIP3    H163908   5.812   6.607  11.642 -1.8555 -0.1313 -1.5265
14139TIP3    H263909   5.723   6.515  11.722  0.2118  0.3317  1.4617
14140TIP3   OH263910   3.859   4.063   1.084 -0.2856  0.3089  0.1024
14140TIP3    H163911   3.874   4.044   0.992  0.7872 -1.4621  0.5918
14140TIP3    H263912   3.912   4.141   1.102  1.2165 -0.5775 -0.3210
14141TIP3   OH263913   6.640   1.171   0.924 -0.1496 -0.2153 -0.1722
14141TIP3    H163914   6.728   1.208   0.925 -0.6416  1.0227 -0.4461
14141TIP3    H263915   6.594   1.217   0.995 -0.2574 -1.7314  0.7948
14142TIP3   OH263916   1.600   5.795   4.004 -0.0665 -0.1773  0.2161
14142TIP3    H163917   1.644   5.728   3.952 -1.5894  0.6748 -2.3351
14142TIP3    H263918   1.663   5.867   4.008 -0.9250  0.9310 -3.1818
14143TIP3   OH263919   5.544   6.694   1.952 -0.4932 -0.4759  0.7659
14143TIP3    H163920   5.478   6.702   1.883  0.1924 -2.2462 -0.1443
14143TIP3    H263921   5.594   6.775   1.947 -1.4090  0.0723  0.2112
14144TIP3   OH263922   1.692   2.794  14.401 -0.0146  0.2922  0.3858
14144TIP3    H163923   1.719   2.726  14.463 -1.0465 -1.0445 -0.5785
14144TIP3    H263924   1.598   2.804  14.415 -0.6088 -1.2099 -2.0118
14145TIP3   OH263925   2.806   4.455   5.546  0.2226 -0.1467 -0.1206
14145TIP3    H163926   2.721   4.421   5.516  0.2406 -0.4770  0.1902
14145TIP3    H263927   2.835   4.391   5.612 -0.0648  0.8079  0.9736
14146TIP3   OH263928   2.686   1.527   4.058 -0.2089 -0.5837 -0.1659
14146TIP3    H163929   2.599   1.559   4.084  0.4609  1.0723  0.2049
14146TIP3    H263930   2.723   1.492   4.139  0.6932  1.7533  0.5133
14147TIP3   OH263931   6.066   4.374   1.816 -0.6277 -0.0006  0.0603
14147TIP3    H163932   6.122   4.297   1.806 -0.5065 -0.1320  1.5507
14147TIP3    H263933   6.098   4.417   1.895 -1.0217  1.3195 -0.4776
14148TIP3   OH263934   6.449   6.315  14.479 -0.6520  0.2432 -0.1408
14148TIP3    H163935   6.417   6.367  14.406  0.4409  2.9918  1.2282
14148TIP3    H263936   6.457   6.376  14.551  2.8698 -1.2976  0.9952
14149TIP3   OH263937   6.277   0.501  14.389  0.1651  0.1786  0.4315
14149TIP3    H163938   6.211   0.569  14.374  1.1494  1.4047  1.3968
14149TIP3    H263939   6.338   0.510  14.316 -0.2423 -0.3703  0.0128
14150TIP3   OH263940   1.057   0.287   5.010 -0.7689 -0.0649 -0.6917
14150TIP3    H163941   0.979   0.233   4.994  0.0037 -1.7425  0.8734
14150TIP3    H263942   1.030   0.348   5.078 -0.3745 -1.6582  0.9877
14151TIP3   OH263943   2.816   0.175  13.858 -0.4806 -0.4525 -0.3228
14151TIP3    H163944   2.761   0.139  13.927 -0.9279 -0.5906 -0.7504
14151TIP3    H263945   2.890   0.113  13.852 -0.8087 -0.8353 -0.4615
14152TIP3   OH263946   0.969   0.481  10.828  0.0919  0.0816 -0.3501
14152TIP3    H163947   1.011   0.511  10.748  2.6375  0.2217  0.9464
14152TIP3    H263948   0.924   0.400  10.803  1.9998 -0.6384 -1.6258
14153TIP3   OH263949   3.767   2.097   1.132  0.0937 -0.6915 -0.2298
14153TIP3    H163950   3.792   2.065   1.219  1.9489 -0.9302 -0.8071
14153TIP3    H263951   3.803   2.185   1.127  1.1121 -1.1472 -1.2072
14154TIP3   OH263952   0.857   5.620  12.859 -0.1883 -0.1441  0.0105
14154TIP3    H163953   0.770   5.594  12.890  0.8650 -1.3698  2.2091
14154TIP3    H263954   0.848   5.627  12.764 -2.3263 -1.7222  0.0265
14155TIP3   OH263955   1.041   5.978  14.288  0.0167 -0.3850 -0.2190
14155TIP3    H163956   1.109   5.910  14.282 -0.8811 -1.2654 -0.9155
14155TIP3    H263957   1.043   6.021  14.203  0.9666  0.8777  0.4164
14156TIP3   OH263958   1.972   1.988   0.170  0.2507  0.0124 -1.1702
14156TIP3    H163959   2.033   1.919   0.197  1.8410  1.1069 -1.8453
14156TIP3    H263960   1.948   1.964   0.080 -0.1337 -0.2918 -0.9878
14157TIP3   OH263961   1.080   2.673  11.372  0.1853  0.0212  0.1750
14157TIP3    H163962   1.117   2.616  11.304  1.7528  0.1412  0.8808
14157TIP3    H263963   1.061   2.615  11.445 -0.2623  0.0911  0.1162
14158TIP3   OH263964   5.467   4.642   2.952 -0.0439 -0.1599  0.1816
14158TIP3    H163965   5.425   4.581   2.891 -0.6056  0.2281  0.1750
14158TIP3    H263966   5.483   4.720   2.900  2.2772 -0.8645 -0.3046
14159TIP3   OH263967   6.318   5.814  12.762 -0.5145  0.5703 -0.1313
14159TIP3    H163968   6.410   5.833  12.781 -0.3482  0.1257 -0.4795
14159TIP3    H263969   6.270   5.854  12.835  0.1945 -2.3623  2.1207
14160TIP3   OH263970   0.710   2.917   4.039  0.1151  0.4068 -0.1511
14160TIP3    H163971   0.635   2.974   4.021  0.2047  0.1038 -1.5803
14160TIP3    H263972   0.678   2.857   4.107 -0.7536  0.6251 -0.3541
14161TIP3   OH263973   5.708   4.971  16.569  0.5418  0.1276 -0.6483
14161TIP3    H163974   5.644   4.989  16.500 -0.9870 -2.4672 -0.0230
14161TIP3    H263975   5.673   5.015  16.646 -1.4491 -2.5017  0.0760
14162TIP3   OH263976   0.761   4.536   3.130 -0.2892 -0.2728 -0.1178
14162TIP3    H163977   0.721   4.476   3.193 -2.4616  1.0528 -0.1406
14162TIP3    H263978   0.746   4.494   3.045 -0.3524 -0.4621 -0.0148
14163TIP3   OH263979   5.906   4.214  14.405 -0.3347  0.3479 -0.6360
14163TIP3    H163980   5.986   4.162  14.407 -0.3348  0.3190 -1.2893
14163TIP3    H263981   5.860   4.191  14.486 -0.5146 -0.9429 -1.0806
14164TIP3   OH263982   2.573   3.569   1.943  0.5891  0.0256  0.2991
14164TIP3    H163983   2.526   3.488   1.964 -0.2794  0.8299  1.6656
14164TIP3    H263984   2.562   3.623   2.021 -0.0680  2.0104 -1.0854
14165TIP3   OH263985   6.733   3.251   4.755  0.0190  0.4440 -0.3495
14165TIP3    H163986   6.777   3.166   4.763 -0.3228  0.1158 -1.7131
14165TIP3    H263987   6.779   3.308   4.816  1.1161 -0.3844 -0.3743
14166TIP3   OH263988   3.101   2.433   6.397  0.6255 -0.6199  0.0342
14166TIP3    H163989   3.022   2.378   6.404 -0.7791  1.1496 -1.0506
14166TIP3    H263990   3.067   2.521   6.383  2.8286  0.2069 -0.4260
14167TIP3   OH263991   1.099   3.699   0.688  0.2307  0.1221 -0.0839
14167TIP3    H163992   1.054   3.749   0.755  2.0020 -0.4428  1.6382
14167TIP3    H263993   1.145   3.765   0.636 -0.6061  0.5240 -0.3204
14168TIP3   OH263994   0.949   2.294  16.664  0.5607 -0.4650  0.0611
14168TIP3    H163995   0.895   2.296  16.586  0.5885  1.5908  0.0395
14168TIP3    H263996   0.890   2.320  16.735  1.4175  1.9112  0.0215
14169TIP3   OH263997   2.747   6.022   2.657 -1.1677 -0.1299 -0.2605
14169TIP3    H163998   2.836   5.988   2.666 -2.0700 -2.0457  2.6978
14169TIP3    H263999   2.744   6.096   2.717 -1.1372  1.0766 -1.6872
14170TIP3   OH264000   5.954   1.904   5.803 -0.1092 -0.5498  0.5821
14170TIP3    H164001   6.032   1.866   5.762 -0.9587 -1.4454 -0.2412
14170TIP3    H264002   5.887   1.836   5.795 -1.5974  0.9884 -0.6765
14171TIP3   OH264003   2.462   5.833   1.451 -0.1304  0.2710 -0.6482
14171TIP3    H164004   2.437   5.871   1.535  0.4523 -0.9160  0.0897
14171TIP3    H264005   2.474   5.909   1.393 -0.5775  1.1052  0.3170
14172TIP3   OH264006   0.215   0.969  11.458 -0.1637 -0.1398  0.1255
14172TIP3    H164007   0.247   0.951  11.370 -0.4109 -0.9343  0.1849
14172TIP3    H264008   0.140   0.910  11.468 -0.6730  0.5655  0.5513
14173TIP3   OH264009   0.539   1.132  11.352 -0.0511  0.1303 -0.2638
14173TIP3    H164010   0.460   1.179  11.378 -0.0048  0.0695 -0.0075
14173TIP3    H264011   0.591   1.126  11.432 -0.0158 -0.2790 -0.3175
14174TIP3   OH264012   3.857   3.110  12.728 -0.3905 -0.0524 -0.3062
14174TIP3    H164013   3.840   3.070  12.642  1.3507 -3.1151  0.5971
14174TIP3    H264014   3.817   3.050  12.791  0.5136  0.7704  1.1169
14175TIP3   OH264015   1.847   0.929   0.416  0.1843  0.3564  0.7341
14175TIP3    H164016   1.784   0.902   0.483  1.0115  0.8104  1.7289
14175TIP3    H264017   1.793   0.961   0.344 -0.7293  0.4067  1.4192
14176TIP3   OH264018   1.778   1.564   1.418  0.3138 -0.0197  0.2501
14176TIP3    H164019   1.771   1.469   1.409  1.1316  0.0665 -1.8167
14176TIP3    H264020   1.844   1.589   1.353 -3.1911  2.4059 -2.8041
14177TIP3   OH264021   4.792   6.519  11.510 -0.2264  0.5687 -0.2246
14177TIP3    H164022   4.820   6.450  11.450 -0.5668  0.3785 -0.1675
14177TIP3    H264023   4.779   6.475  11.594 -0.0847  0.7715 -0.0939
14178TIP3   OH264024   0.229   1.785  11.576 -0.6029  0.2762  0.3550
14178TIP3    H164025   0.154   1.734  11.606 -0.5625  1.5007  2.7401
14178TIP3    H264026   0.303   1.724  11.581 -1.2398 -0.7224 -1.3225
14179TIP3   OH264027   5.788   6.604  13.034  0.0883 -0.1141 -0.2562
14179TIP3    H164028   5.818   6.636  12.949  1.2526 -0.0119  0.1750
14179TIP3    H264029   5.693   6.614  13.031  0.1081 -0.1591 -1.5600
14180TIP3   OH264030   3.249   1.220   1.952 -0.3985 -0.2734  0.5696
14180TIP3    H164031   3.283   1.133   1.932 -0.0214 -0.3001  1.3119
14180TIP3    H264032   3.202   1.210   2.035  2.8032  0.9200  2.7223
14181TIP3   OH264033   2.356   4.970  14.946 -0.3437  0.2837  0.4825
14181TIP3    H164034   2.420   5.036  14.974  1.2723 -1.9777  2.5604
14181TIP3    H264035   2.286   5.020  14.904  2.0879  3.0225 -0.5841
14182TIP3   OH264036   3.696   3.972   0.720  0.4773 -0.0866  0.6270
14182TIP3    H164037   3.790   3.985   0.702  0.6659  0.8849  2.1440
14182TIP3    H264038   3.665   4.059   0.745 -0.0873 -0.9748  3.3052
14183TIP3   OH264039   3.863   4.376   2.646 -0.1761  0.0536 -0.0301
14183TIP3    H164040   3.905   4.385   2.732  0.8090  1.2792 -0.5933
14183TIP3    H264041   3.778   4.418   2.656 -0.3952 -0.5180  0.5502
14184TIP3   OH264042   6.575   1.976   3.481 -0.4707 -0.2832 -0.5483
14184TIP3    H164043   6.581   1.884   3.509 -0.2435  0.1941  1.1061
14184TIP3    H264044   6.489   2.005   3.512  0.7094  0.9113  1.9122
14185TIP3   OH264045   3.721   2.957  11.444  0.4341 -0.1189  0.6998
14185TIP3    H164046   3.711   2.861  11.448 -0.4301 -0.0865 -0.3996
14185TIP3    H264047   3.650   2.990  11.499  0.3019 -0.0846  0.5055
14186TIP3   OH264048   5.119   5.053   4.113  0.0853 -0.0094 -0.7839
14186TIP3    H164049   5.149   5.116   4.047 -0.4114 -0.1433 -1.1348
14186TIP3    H264050   5.046   5.007   4.072 -1.3856  1.0958  0.4431
14187TIP3   OH264051   3.918   3.410   2.142  0.0238 -0.0520  0.5992
14187TIP3    H164052   3.989   3.433   2.202 -0.1078  1.6987  0.1437
14187TIP3    H264053   3.936   3.461   2.063 -1.7156  0.4444  0.4728
14188TIP3   OH264054   2.999   2.803  13.688  0.5744 -0.2469 -0.4316
14188TIP3    H164055   3.093   2.789  13.695  1.0669  2.0425 -1.6333
14188TIP3    H264056   2.982   2.883  13.737 -0.6333 -0.2701 -0.7738
14189TIP3   OH264057   1.982   1.345   6.687  0.2376  1.1312  0.3337
14189TIP3    H164058   2.036   1.324   6.611  0.2476 -1.8192  1.0145
14189TIP3    H264059   2.041   1.391   6.747  1.3175  0.1441  0.0625
14190TIP3   OH264060   0.896   3.662  13.591 -0.2154  0.6113 -0.4301
14190TIP3    H164061   0.899   3.756  13.608 -0.7530  0.3402  1.3112
14190TIP3    H264062   0.855   3.655  13.504  0.0417  1.9700 -0.6872
14191TIP3   OH264063   3.878   1.247  14.191 -0.4305  0.2047 -0.3091
14191TIP3    H164064   3.953   1.295  14.224  0.3046 -0.3506 -1.1024
14191TIP3    H264065   3.915   1.166  14.155 -1.3956 -0.0426 -0.7978
14192TIP3   OH264066   3.767   3.931  12.464 -0.8906  0.0553  0.5774
14192TIP3    H164067   3.742   4.018  12.496 -1.4421  0.3556 -0.6306
14192TIP3    H264068   3.684   3.886  12.450 -0.7169  0.1989 -1.1140
14193TIP3   OH264069   1.131   4.134  12.969  0.3257  0.1441  0.1743
14193TIP3    H164070   1.210   4.177  13.001  0.4728 -0.1416  0.1906
14193TIP3    H264071   1.162   4.067  12.908  0.1367 -0.4543  0.7314
14194TIP3   OH264072   1.513   2.824  11.745 -0.5153  0.0583 -0.1196
14194TIP3    H164073   1.555   2.804  11.828  1.2506 -0.1208 -1.0155
14194TIP3    H264074   1.547   2.758  11.684  0.6768  2.0481 -1.7140
14195TIP3   OH264075   3.238   6.164   0.905 -0.1015 -0.0680 -0.1453
14195TIP3    H164076   3.260   6.099   0.971  0.6588 -1.0068 -1.2811
14195TIP3    H264077   3.255   6.248   0.947  1.2152 -0.6618  0.5744
14196TIP3   OH264078   0.082   5.932  12.507  0.0821  0.1816  0.4010
14196TIP3    H164079   0.054   5.889  12.427 -0.1098  1.2751 -0.1350
14196TIP3    H264080   0.091   6.024  12.483 -0.9191  0.6955  1.8682
14197TIP3   OH264081   5.387   2.977   2.398 -0.8158 -1.1506  0.8980
14197TIP3    H164082   5.369   2.915   2.469 -0.6270 -2.0417  0.1836
14197TIP3    H264083   5.447   2.930   2.340 -0.9854 -0.4424  0.1309
14198TIP3   OH264084   4.935   0.964   3.524 -0.2286 -0.1273  0.2892
14198TIP3    H164085   4.912   1.007   3.606  1.5199 -1.0592  1.3229
14198TIP3    H264086   4.946   0.872   3.547 -1.5399 -0.7594 -1.3879
14199TIP3   OH264087   6.638   2.076  10.300 -0.0451  0.2508 -0.2732
14199TIP3    H164088   6.645   2.045  10.210 -2.1221 -0.1225 -0.3521
14199TIP3    H264089   6.642   1.997  10.353 -3.4493 -0.1535 -0.3736
14200TIP3   OH264090   1.375   4.060   6.400 -0.3103  0.5058  0.4087
14200TIP3    H164091   1.381   3.971   6.365 -0.2082  0.5497  0.3150
14200TIP3    H264092   1.335   4.049   6.487 -0.4659  0.3869  0.3222
14201TIP3   OH264093   5.909   3.252  13.680  0.1300  0.9576 -0.2223
14201TIP3    H164094   5.826   3.295  13.697  0.4245  0.8329  1.7631
14201TIP3    H264095   5.886   3.160  13.666  0.0347  0.5190  2.3592
14202TIP3   OH264096   3.398   6.539  10.475  0.2391 -0.2350  0.3206
14202TIP3    H164097   3.472   6.597  10.492  1.3530 -1.8060  0.9926
14202TIP3    H264098   3.324   6.583  10.518  0.7880  1.2627 -0.2135
14203TIP3   OH264099   4.465   6.022  16.476 -0.2289  0.3970 -0.7790
14203TIP3    H164100   4.473   5.970  16.396 -0.4309  0.6783 -0.9885
14203TIP3    H264101   4.384   6.072  16.463 -1.5835 -1.3213  0.6308
14204TIP3   OH264102   2.310   6.162   5.910  0.1979 -0.4175 -0.2066
14204TIP3    H164103   2.370   6.113   5.966  1.0773  1.6336  0.7338
14204TIP3    H264104   2.226   6.157   5.955 -0.0422 -1.9940 -0.7419
14205TIP3   OH264105   5.501   3.286  16.675  0.5343  0.4413 -0.1597
14205TIP3    H164106   5.491   3.295  16.770 -0.3886  1.0910 -0.2958
14205TIP3    H264107   5.411   3.279  16.643  0.5913  3.1824 -1.2191
14206TIP3   OH264108   4.336   0.842  15.139 -0.1556  0.6746  1.0524
14206TIP3    H164109   4.354   0.926  15.098  1.0315 -0.6988 -1.4660
14206TIP3    H264110   4.395   0.781  15.095 -1.0937 -1.5143  2.6720
14207TIP3   OH264111   4.750   6.649  16.263  0.0422 -0.5593 -0.6133
14207TIP3    H164112   4.771   6.589  16.335 -0.8977  0.1392  0.2795
14207TIP3    H264113   4.670   6.693  16.292 -0.5545 -0.5071 -2.2540
14208TIP3   OH264114   3.556   0.817   4.880  0.1494 -0.0471 -0.3416
14208TIP3    H164115   3.648   0.842   4.872  0.1712  0.0883  0.2745
14208TIP3    H264116   3.509   0.901   4.884 -0.2105 -0.0846 -2.6932
14209TIP3   OH264117   5.850   4.583   2.048 -0.0694  0.4082  0.2723
14209TIP3    H164118   5.780   4.539   1.998 -0.3489  0.5833  0.5113
14209TIP3    H264119   5.885   4.514   2.105  0.0225  0.2946  0.0806
14210TIP3   OH264120   4.455   6.222  11.667 -0.4064  0.4537  0.0471
14210TIP3    H164121   4.527   6.169  11.700  0.2370  1.0048 -0.4420
14210TIP3    H264122   4.377   6.181  11.702  0.1608 -0.0117  0.7871
14211TIP3   OH264123   1.037   5.590  11.760  0.1773 -0.2287 -0.2413
14211TIP3    H164124   1.057   5.644  11.837 -0.4217  1.5764 -1.2903
14211TIP3    H264125   1.011   5.653  11.693 -0.9078 -1.8796 -1.4385
14212TIP3   OH264126   3.702   0.875  14.830 -0.1902  0.1955 -0.0906
14212TIP3    H164127   3.659   0.841  14.908 -1.3498 -0.4303 -0.9655
14212TIP3    H264128   3.774   0.814  14.813 -1.8331 -1.5808 -1.2525
14213TIP3   OH264129   1.522   2.001   5.204  0.2601  0.6347 -0.1628
14213TIP3    H164130   1.579   2.073   5.230 -1.3957  2.1648 -0.5502
14213TIP3    H264131   1.435   2.027   5.233 -0.9096  0.2800 -3.0035
14214TIP3   OH264132   2.650   2.875  16.297 -0.1915 -0.2036 -0.1738
14214TIP3    H164133   2.728   2.901  16.346 -1.9750  1.4010  2.0776
14214TIP3    H264134   2.600   2.822  16.359 -2.6403  2.0611 -0.0194
14215TIP3   OH264135   5.813   6.474  15.875 -0.3197 -0.2496  0.0318
14215TIP3    H164136   5.761   6.419  15.933  0.3111 -1.5437 -0.5985
14215TIP3    H264137   5.843   6.546  15.931 -1.9245 -0.0143  0.6390
14216TIP3   OH264138   1.223   0.560   0.765 -0.3461  1.1923 -0.5325
14216TIP3    H164139   1.259   0.647   0.782  0.2248  0.5769  1.7353
14216TIP3    H264140   1.300   0.502   0.767 -1.0782  0.2068  1.6466
14217TIP3   OH264141   5.707   0.633   6.007  0.1992  0.0775 -0.3268
14217TIP3    H164142   5.686   0.699   6.073 -0.4562 -0.2470 -0.2071
14217TIP3    H264143   5.655   0.557   6.031  0.2676 -0.1812 -0.9832
14218TIP3   OH264144   2.583   0.433  11.846  0.2026 -0.0568 -0.2702
14218TIP3    H164145   2.496   0.424  11.883  1.0891 -1.5353  1.6286
14218TIP3    H264146   2.610   0.523  11.866 -0.0403 -0.2816  1.1554
14219TIP3   OH264147   0.955   4.689  15.094  0.1362  0.6223  0.4524
14219TIP3    H164148   0.901   4.610  15.102  0.0938  0.4687 -1.1237
14219TIP3    H264149   0.896   4.756  15.061  1.0062  0.2661 -1.9900
14220TIP3   OH264150   6.550   3.020   0.339 -0.8883 -0.5525 -0.7415
14220TIP3    H164151   6.634   2.975   0.350  1.3938  3.4560  0.1775
14220TIP3    H264152   6.496   2.957   0.291  2.1533 -3.8377 -0.3290
14221TIP3   OH264153   1.658   6.709  15.264  0.5638  0.2279 -0.8129
14221TIP3    H164154   1.745   6.690  15.228  1.0207  0.3465  0.1626
14221TIP3    H264155   1.597   6.669  15.203  1.3843 -3.9084  0.6858
14222TIP3   OH264156   0.163   4.632  14.929 -0.3961  0.4568 -0.1499
14222TIP3    H164157   0.242   4.592  14.893 -0.9209  0.0739 -0.8888
14222TIP3    H264158   0.182   4.726  14.929  0.3278  0.3166  0.3407
14223TIP3   OH264159   2.703   2.126   0.960  0.4609 -0.1699  0.1729
14223TIP3    H164160   2.624   2.073   0.959  0.7893 -0.7369  1.6891
14223TIP3    H264161   2.702   2.169   1.046  0.5751  1.7346 -0.7186
14224TIP3   OH264162   2.727   3.804  13.455 -0.0403 -0.0072  0.3389
14224TIP3    H164163   2.803   3.855  13.427  0.5895 -0.6705  0.7809
14224TIP3    H264164   2.709   3.746  13.382 -0.3472  0.3981  0.0929
14225TIP3   OH264165   6.781   5.840  13.214  0.0182  0.6075 -0.2580
14225TIP3    H164166   6.752   5.841  13.305  1.0467  1.9621  0.0871
14225TIP3    H264167   6.862   5.790  13.215  0.2295  0.9429 -0.3530
14226TIP3   OH264168   0.444   6.227  13.394  0.1898 -0.1180 -0.0477
14226TIP3    H164169   0.511   6.161  13.410  0.8676  1.2221  3.4673
14226TIP3    H264170   0.489   6.294  13.343  1.8169  0.9533  2.5966
14227TIP3   OH264171   5.941   2.469   4.912 -0.3610 -0.4041 -0.5164
14227TIP3    H164172   6.016   2.440   4.861 -0.6827 -0.4735 -0.9599
14227TIP3    H264173   5.875   2.493   4.846 -0.9682 -0.9920 -0.1382
14228TIP3   OH264174   6.521   6.255  11.073  0.1718 -0.3591  0.4588
14228TIP3    H164175   6.489   6.251  10.983 -0.5183 -3.5760  0.7145
14228TIP3    H264176   6.616   6.261  11.064  0.0744  0.0578 -0.4635
14229TIP3   OH264177   6.252   4.091   2.951  0.2386 -0.2419  0.2119
14229TIP3    H164178   6.319   4.145   2.993 -0.4245  0.5331  0.2925
14229TIP3    H264179   6.263   4.005   2.992  0.5478  0.1274  0.9336
14230TIP3   OH264180   5.870   5.694   4.192  0.2127  0.1672  0.3203
14230TIP3    H164181   5.934   5.627   4.215  0.2034  0.2177  0.5002
14230TIP3    H264182   5.921   5.774   4.184  0.2908  0.0508 -0.3474
14231TIP3   OH264183   1.713   4.428  11.984  0.4672  0.4818  0.2128
14231TIP3    H164184   1.665   4.456  11.906 -0.8194  0.8484  1.0824
14231TIP3    H264185   1.722   4.333  11.975 -1.3140  0.2463  0.4370
14232TIP3   OH264186   4.578   4.962   2.190 -0.1305 -0.1198  0.1467
14232TIP3    H164187   4.609   5.047   2.162  0.7839 -0.0893  1.1837
14232TIP3    H264188   4.520   4.981   2.264  0.5174 -0.4166  0.7419
14233TIP3   OH264189   1.190   6.661  14.146  0.5140 -0.5510 -0.0285
14233TIP3    H164190   1.180   6.739  14.201 -2.6506  0.1467 -1.3462
14233TIP3    H264191   1.284   6.655  14.130  0.9814  2.4840  0.8501
14234TIP3   OH264192   5.176   5.888  13.478 -0.1190  0.0080  0.1965
14234TIP3    H164193   5.148   5.849  13.395  0.4695  0.3827 -0.1826
14234TIP3    H264194   5.125   5.841  13.545  0.4931 -1.3532 -0.2579
14235TIP3   OH264195   0.373   1.626  13.711  0.0784 -0.3564  0.0070
14235TIP3    H164196   0.315   1.662  13.778  0.2198 -0.8658  0.4170
14235TIP3    H264197   0.323   1.629  13.630 -1.1485 -2.2612  0.6306
14236TIP3   OH264198   1.956   5.701  14.410 -0.4220  0.6460 -0.5029
14236TIP3    H164199   1.929   5.620  14.367 -0.1695  1.3298 -2.0134
14236TIP3    H264200   2.048   5.687  14.433 -0.1951  0.7298 -1.3425
14237TIP3   OH264201   1.193   4.054   4.611  0.9203  0.6694 -0.0800
14237TIP3    H164202   1.116   4.104   4.640 -1.9457 -2.0011 -2.3790
14237TIP3    H264203   1.214   4.092   4.526  0.9489  0.2320 -0.2699
14238TIP3   OH264204   1.150   0.252  16.502  0.4287 -0.8458 -0.0651
14238TIP3    H164205   1.187   0.334  16.468 -0.9318 -0.0927  0.2158
14238TIP3    H264206   1.190   0.243  16.588 -0.5967  0.3827  0.5738
14239TIP3   OH264207   1.620   4.956  15.251  0.5854 -0.0591 -0.1013
14239TIP3    H164208   1.669   4.949  15.168 -1.0589 -0.9110 -1.0489
14239TIP3    H264209   1.557   5.026  15.235  2.2650  1.9939  1.5927
14240TIP3   OH264210   6.137   1.406   4.817  0.0613  0.4572 -0.2312
14240TIP3    H164211   6.189   1.329   4.791 -1.9992 -0.6816 -1.2053
14240TIP3    H264212   6.161   1.473   4.754 -1.9791 -1.0799 -2.8371
14241TIP3   OH264213   1.710   3.186  12.911  0.4539  0.6278 -0.2504
14241TIP3    H164214   1.690   3.109  12.964  1.4805 -0.5628 -1.5138
14241TIP3    H264215   1.662   3.258  12.954  1.0702 -0.2852  2.1314
14242TIP3   OH264216   3.690   3.751  12.168 -0.1586 -0.1848  0.0474
14242TIP3    H164217   3.635   3.702  12.107  1.4905 -0.7068 -1.1098
14242TIP3    H264218   3.680   3.705  12.252 -1.1226 -0.5157 -0.2313
14243TIP3   OH264219   6.523   1.293   1.704  0.5138  0.2475  0.0113
14243TIP3    H164220   6.608   1.336   1.697  2.5795 -3.5895 -1.1701
14243TIP3    H264221   6.527   1.221   1.640 -3.3486 -0.5864  0.4552
14244TIP3   OH264222   3.291   0.045  14.073  0.0885 -0.5615  0.0127
14244TIP3    H164223   3.231   0.058  14.146  0.6639  0.5537  0.3097
14244TIP3    H264224   3.376   0.030  14.115  0.5725  0.8595 -0.4115
14245TIP3   OH264225   0.639   4.469  13.985  0.1366  0.3250 -0.0305
14245TIP3    H164226   0.646   4.522  13.906 -0.6332  1.8713  0.8921
14245TIP3    H264227   0.720   4.485  14.033  0.2222  0.0779 -0.0904
14246TIP3   OH264228   2.970   5.556   0.454 -0.0046  0.3261 -0.1720
14246TIP3    H164229   2.957   5.530   0.545 -1.0387  0.1332 -0.3629
14246TIP3    H264230   2.988   5.650   0.458 -0.4750  0.4022  0.1998
14247TIP3   OH264231   2.048   3.356   1.919 -0.2132  0.5942 -0.3496
14247TIP3    H164232   2.074   3.279   1.969 -0.5275  0.3613 -0.5397
14247TIP3    H264233   2.073   3.430   1.975 -0.2713  0.3460  0.0126
14248TIP3   OH264234   6.549   2.777  14.438  0.0151  0.0679  0.0876
14248TIP3    H164235   6.458   2.796  14.417 -0.0878  1.2083  1.4278
14248TIP3    H264236   6.569   2.698  14.388 -1.8099 -0.4088  0.0366
14249TIP3   OH264237   2.406   5.825   3.219  0.0639  0.2129  0.1830
14249TIP3    H164238   2.400   5.745   3.166 -1.0342  1.2912 -1.4221
14249TIP3    H264239   2.474   5.806   3.284  1.7564 -1.0981 -1.8105
14250TIP3   OH264240   2.186   3.562  12.080  0.6188  0.4754  0.1349
14250TIP3    H164241   2.193   3.594  12.170 -1.9422  0.3976  0.4380
14250TIP3    H264242   2.169   3.640  12.027  0.3402  0.3353  0.0091
14251TIP3   OH264243   5.077   3.239  16.313  0.1869  0.3068 -0.5977
14251TIP3    H164244   5.018   3.195  16.374  0.3488  1.0664  0.1364
14251TIP3    H264245   5.128   3.169  16.273 -0.1192 -0.2302 -0.0595
14252TIP3   OH264246   2.171   2.628  11.444 -0.2090 -0.5226  0.4000
14252TIP3    H164247   2.210   2.589  11.522 -1.1621  1.2160  1.8326
14252TIP3    H264248   2.204   2.576  11.372  0.4696 -2.4134  1.9829
14253TIP3   OH264249   5.267   2.985  16.786  0.3537 -0.6768 -0.0592
14253TIP3    H164250   5.196   3.043  16.761  0.7756  0.2078  0.7297
14253TIP3    H264251   5.226   2.899  16.796 -0.4875 -0.2946 -0.1725
14254TIP3   OH264252   4.655   0.050  10.799 -0.0604 -0.0840  0.4608
14254TIP3    H164253   4.659   0.140  10.767  0.4363  0.7550  2.7474
14254TIP3    H264254   4.587   0.009  10.745  0.1602  1.4456 -1.0729
14255TIP3   OH264255   5.351   1.994  13.931 -0.4578  0.6614 -0.0815
14255TIP3    H164256   5.376   1.970  13.842  0.8607  2.5377 -0.2827
14255TIP3    H264257   5.434   1.991  13.980 -1.0652  0.2449  0.9454
14256TIP3   OH264258   0.892   5.318  10.444  0.5609 -0.1049 -0.0112
14256TIP3    H164259   0.883   5.294  10.536  0.0265  1.3697  0.3562
14256TIP3    H264260   0.812   5.368  10.425  0.9124  0.0610 -1.1198
14257TIP3   OH264261   5.463   4.633  17.055  0.2969 -0.2586  0.1698
14257TIP3    H164262   5.425   4.551  17.085 -3.1736  0.9300 -0.5597
14257TIP3    H264263   5.463   4.627  16.960 -0.4706  0.7469  0.0915
14258TIP3   OH264264   5.565   0.811   2.977  0.2329 -0.1783  0.4774
14258TIP3    H164265   5.587   0.809   2.884  0.6429 -0.9100  0.5752
14258TIP3    H264266   5.637   0.763   3.019  0.0016  0.0624  1.1584
14259TIP3   OH264267   4.117   2.028  16.392 -0.4982 -0.2199 -0.3317
14259TIP3    H164268   4.156   2.114  16.382 -1.8034  0.4895  0.3628
14259TIP3    H264269   4.152   1.995  16.475 -1.1658  0.3214  0.1811
14260TIP3   OH264270   2.600   1.578  15.459  0.0600 -0.0515  0.4077
14260TIP3    H164271   2.688   1.546  15.476 -0.8022 -2.2109  1.1986
14260TIP3    H264272   2.581   1.549  15.369 -0.0790 -0.2200  0.4894
14261TIP3   OH264273   3.991   6.200   4.207  0.5577  0.0254 -0.2452
14261TIP3    H164274   4.045   6.247   4.270 -0.4144 -0.3366  0.8994
14261TIP3    H264275   3.987   6.111   4.240  0.8924 -0.4401 -1.4117
14262TIP3   OH264276   3.991   3.414   2.768 -0.2966 -0.1246 -0.0655
14262TIP3    H164277   3.943   3.404   2.851  1.5292  2.4990  1.4241
14262TIP3    H264278   3.926   3.450   2.708 -1.4053 -1.1933  0.4229
14263TIP3   OH264279   6.637   3.521  16.332  0.4992 -0.2291 -0.1372
14263TIP3    H164280   6.671   3.570  16.258  2.0965 -0.8320  0.1631
14263TIP3    H264281   6.559   3.569  16.359  0.5414  0.6390 -1.4730
14264TIP3   OH264282   0.629   4.549  16.501 -0.2638 -0.0245  0.0300
14264TIP3    H164283   0.689   4.563  16.428  0.2846  0.5663  0.5778
14264TIP3    H264284   0.674   4.586  16.577 -1.1202  0.0026  0.5444
14265TIP3   OH264285   0.623   0.766  12.475 -0.7448  0.0039 -0.5597
14265TIP3    H164286   0.545   0.724  12.439 -0.4386 -0.5988 -0.5399
14265TIP3    H264287   0.683   0.773  12.401 -0.8795  0.6305 -0.6152
14266TIP3   OH264288   6.393   5.378   2.113 -0.5057 -0.7787  0.3935
14266TIP3    H164289   6.300   5.360   2.122 -0.8826  0.6225 -0.3820
14266TIP3    H264290   6.415   5.349   2.024 -0.5933  0.3172 -0.0071
14267TIP3   OH264291   1.820   3.767  14.406 -0.1851 -0.2395 -0.1471
14267TIP3    H164292   1.742   3.718  14.431  0.5511 -0.8410  1.1009
14267TIP3    H264293   1.842   3.735  14.318  0.4495 -2.4433  0.7405
14268TIP3   OH264294   5.042   4.754   4.397  0.3750 -0.1638 -0.0289
14268TIP3    H164295   4.971   4.720   4.452  0.4407  0.5091  0.4823
14268TIP3    H264296   5.121   4.717   4.434  0.4610  0.6612  0.6264
14269TIP3   OH264297   2.417   2.340   5.110  0.1036 -0.1274 -0.4715
14269TIP3    H164298   2.472   2.417   5.118 -0.8662  0.4674  0.7908
14269TIP3    H264299   2.434   2.290   5.190 -2.2701  0.8328  0.7081
14270TIP3   OH264300   1.484   6.623  12.166  0.1548 -0.1323  0.2391
14270TIP3    H164301   1.519   6.534  12.176  0.6174 -0.1590 -1.4423
14270TIP3    H264302   1.391   6.615  12.189  0.4805 -0.7454  1.4425
14271TIP3   OH264303   6.744   6.388  14.735  0.0994  0.1927 -0.2091
14271TIP3    H164304   6.737   6.294  14.717 -0.0856  0.4197 -1.4021
14271TIP3    H264305   6.658   6.423  14.712  0.3133  0.7235 -0.2110
14272TIP3   OH264306   2.050   5.177  12.481  0.5532 -0.1983 -0.8997
14272TIP3    H164307   1.961   5.210  12.469  0.1333 -1.3856 -1.1523
14272TIP3    H264308   2.098   5.208  12.404  0.2650  0.1354 -0.9453
14273TIP3   OH264309   2.760   1.309   2.588 -0.4018  0.1119  0.1402
14273TIP3    H164310   2.725   1.338   2.672  0.4053 -1.6045  1.1159
14273TIP3    H264311   2.735   1.217   2.582  2.7448 -0.8662  0.2799
14274TIP3   OH264312   6.271   5.209   0.829  0.2323 -0.5787  0.0336
14274TIP3    H164313   6.282   5.292   0.876  0.4921 -0.8019  0.3702
14274TIP3    H264314   6.332   5.149   0.872  0.3671 -0.8258 -0.4991
14275TIP3   OH264315   6.708   0.424  16.448  0.1990 -0.7864 -0.0017
14275TIP3    H164316   6.694   0.432  16.353  3.3768 -0.4620 -0.5675
14275TIP3    H264317   6.771   0.352  16.456  1.6758  0.6280  1.6362
14276TIP3   OH264318   1.560   2.537  16.140 -0.5446 -0.1579  0.0657
14276TIP3    H164319   1.614   2.615  16.150 -0.9328  0.4010 -1.7643
14276TIP3    H264320   1.497   2.541  16.212  0.4279  0.3642  0.9060
14277TIP3   OH264321   2.522   4.862  12.153 -0.0046 -0.8308  0.4240
14277TIP3    H164322   2.505   4.819  12.070 -1.0274  0.1737  0.0786
14277TIP3    H264323   2.529   4.955  12.131 -0.8583 -0.4799  1.5013
14278TIP3   OH264324   1.600   1.206   1.097 -0.2957  0.0475 -0.5248
14278TIP3    H164325   1.554   1.205   1.181  1.1979 -0.4943  0.3351
14278TIP3    H264326   1.690   1.231   1.120 -0.0672  0.7411 -2.0845
14279TIP3   OH264327   0.756   0.325   4.967 -0.2717  0.0434 -0.1277
14279TIP3    H164328   0.757   0.300   5.059 -0.6643 -0.3684 -0.2288
14279TIP3    H264329   0.690   0.394   4.962  1.4054  1.7499  0.2983
14280TIP3   OH264330   1.535   4.026   0.983  0.1316  0.0923  0.3260
14280TIP3    H164331   1.577   3.960   1.038 -0.7580  0.2581  1.2473
14280TIP3    H264332   1.559   4.002   0.894  0.8314 -0.7490  0.7275
14281TIP3   OH264333   3.197   0.991   5.643  0.4033  0.3651 -0.2117
14281TIP3    H164334   3.143   1.031   5.711  0.7335 -0.9990  0.9143
14281TIP3    H264335   3.168   0.900   5.640 -0.3935  0.6318 -2.7477
14282TIP3   OH264336   2.106   1.914   3.737  0.3283  0.7485 -0.0730
14282TIP3    H164337   2.073   1.827   3.712 -0.1593  0.5068  1.3372
14282TIP3    H264338   2.170   1.935   3.669  1.5501 -1.3622  0.3217
14283TIP3   OH264339   6.790   4.493   2.171 -0.2846 -0.1398  0.3371
14283TIP3    H164340   6.809   4.437   2.095 -2.2645 -0.4491  0.0062
14283TIP3    H264341   6.758   4.432   2.238 -2.0466  0.4978  0.1233
14284TIP3   OH264342   5.997   3.738  17.114 -0.0323  0.3434  0.2946
14284TIP3    H164343   5.991   3.754  17.020  2.2135 -2.1394 -0.3782
14284TIP3    H264344   6.073   3.788  17.142 -0.1584  0.3495  0.6276
14285TIP3   OH264345   0.272   1.953  12.527  0.1845  0.5212  0.2705
14285TIP3    H164346   0.218   1.951  12.448 -0.5161  0.0837  0.7491
14285TIP3    H264347   0.331   1.878  12.518 -0.7575 -0.2928  0.7462
14286TIP3   OH264348   2.091   1.290   2.683 -0.1165  0.0081 -0.1864
14286TIP3    H164349   2.178   1.261   2.658  0.1063 -0.7839  1.4135
14286TIP3    H264350   2.090   1.287   2.778 -2.5375 -1.9722 -0.1678
14287TIP3   OH264351   2.517   6.402  17.195 -0.3183  0.1957  0.4834
14287TIP3    H164352   2.480   6.473  17.248  0.0150  0.2289  0.6791
14287TIP3    H264353   2.566   6.447  17.126  1.6881  0.2259  1.8277
14288TIP3   OH264354   6.050   2.526   3.735  0.1280 -0.2304 -0.3138
14288TIP3    H164355   5.983   2.592   3.719 -0.0300 -0.0635  0.9408
14288TIP3    H264356   6.036   2.461   3.666  0.1155  0.8961 -1.4082
14289TIP3   OH264357   5.539   0.471   5.089  0.3830 -0.6225  0.5606
14289TIP3    H164358   5.474   0.451   5.156  0.0117 -2.4566 -0.2906
14289TIP3    H264359   5.623   0.453   5.131  0.1937 -0.9595  0.8046
14290TIP3   OH264360   2.673   5.924   0.372  0.2795  0.4888 -0.4139
14290TIP3    H164361   2.616   5.998   0.391  0.1471  0.4786 -0.7697
14290TIP3    H264362   2.762   5.959   0.381  0.2288  0.3721  0.6606
14291TIP3   OH264363   1.280   4.744  14.995 -0.0639 -0.2556 -0.3641
14291TIP3    H164364   1.317   4.799  15.064 -0.9517 -0.7560  0.5385
14291TIP3    H264365   1.312   4.782  14.913 -0.6048  1.5709  0.2296
14292TIP3   OH264366   0.527   0.787   1.265 -0.4471 -0.8300  0.1156
14292TIP3    H164367   0.543   0.844   1.190  2.5543  0.8202  1.8236
14292TIP3    H264368   0.439   0.752   1.250 -1.0225  1.4655 -2.7872
14293TIP3   OH264369   2.834   4.158  12.555  0.4470 -0.4590  0.1953
14293TIP3    H164370   2.856   4.101  12.628 -1.4849 -0.5870  0.7185
14293TIP3    H264371   2.738   4.158  12.552  0.4636 -0.0039 -1.9714
14294TIP3   OH264372   5.729   1.902  15.667  0.0106  0.4366  0.4921
14294TIP3    H164373   5.771   1.818  15.647 -0.2141  0.6483 -0.9795
14294TIP3    H264374   5.773   1.932  15.747  1.8087  0.0750 -0.3028
14295TIP3   OH264375   1.822   5.987  13.648  0.3857 -0.4189 -0.4600
14295TIP3    H164376   1.812   5.911  13.590  1.6187 -0.1888 -1.0076
14295TIP3    H264377   1.879   6.047  13.599 -1.5055  1.4169 -0.5656
14296TIP3   OH264378   4.830   1.155  15.693 -0.3292 -0.0606  0.2365
14296TIP3    H164379   4.825   1.205  15.612 -3.1671 -0.6497 -0.0646
14296TIP3    H264380   4.901   1.092  15.678  0.1700  0.8016 -1.1963
14297TIP3   OH264381   1.808   6.027  16.090 -0.5001  0.2904  0.4410
14297TIP3    H164382   1.818   5.932  16.080 -0.4293  0.4816 -1.9580
14297TIP3    H264383   1.737   6.050  16.029  1.5650  2.1230 -1.4834
14298TIP3   OH264384   0.066   3.290  16.803 -0.1643  0.2341  0.5813
14298TIP3    H164385   0.030   3.377  16.821 -1.8063  0.1938 -2.0468
14298TIP3    H264386  -0.009   3.231  16.809 -0.1143 -0.2581 -2.3234
14299TIP3   OH264387   0.632   2.561  13.098 -0.6252  0.4910  0.4708
14299TIP3    H164388   0.569   2.602  13.158 -2.3397  0.8956 -1.4925
14299TIP3    H264389   0.600   2.472  13.087 -0.2640  0.3877  0.2452
14300TIP3   OH264390   0.155   2.765   0.147  0.1781 -0.0540 -0.4423
14300TIP3    H164391   0.210   2.726   0.214  0.2713 -2.4582 -1.8146
14300TIP3    H264392   0.208   2.762   0.067 -0.5495  1.1798 -1.0118
14301TIP3   OH264393   1.076   6.624  15.585 -0.3179 -0.1608  0.3471
14301TIP3    H164394   1.017   6.613  15.659  1.0867 -2.0316  1.2641
14301TIP3    H264395   1.022   6.600  15.509 -1.1072 -0.6022  1.0151
14302TIP3   OH264396   0.187   2.454  13.183 -0.0856 -0.1970  0.3229
14302TIP3    H164397   0.104   2.425  13.147 -1.0312 -0.6173  2.6922
14302TIP3    H264398   0.165   2.488  13.270  2.1767 -0.0889  0.9110
14303TIP3   OH264399   1.616   0.513   1.251  0.0064 -0.3936  0.8429
14303TIP3    H164400   1.583   0.582   1.307 -1.1962  0.6565 -1.0528
14303TIP3    H264401   1.553   0.442   1.260 -0.9496  0.2988 -0.1677
14304TIP3   OH264402   3.207   4.035  15.416 -0.5287 -0.1118 -0.4702
14304TIP3    H164403   3.115   4.060  15.415 -0.4696  0.1091 -1.0542
14304TIP3    H264404   3.226   4.010  15.325  0.0838  0.2303 -0.4459
14305TIP3   OH264405   4.088   2.173  17.090 -0.1711  1.0040  0.3378
14305TIP3    H164406   4.135   2.133  17.163 -0.6096  3.7840  2.2612
14305TIP3    H264407   4.034   2.241  17.129 -0.0663  2.9774 -2.5902
14306TIP3   OH264408   6.669   4.776   4.935 -0.2559 -0.1180 -0.0853
14306TIP3    H164409   6.590   4.756   4.985 -1.6395  2.1759 -1.1718
14306TIP3    H264410   6.710   4.691   4.919 -3.9553 -1.8108 -1.7994
14307TIP3   OH264411   1.943   6.538   2.589  0.2620  0.2632  0.1200
14307TIP3    H164412   1.950   6.629   2.561  1.4121 -0.1515 -1.0883
14307TIP3    H264413   1.949   6.541   2.684  1.0070  1.4038  0.0565
14308TIP3   OH264414   2.484   2.577  14.282 -0.1050 -0.5962  0.5050
14308TIP3    H164415   2.453   2.494  14.246 -0.9322 -0.1228  0.0979
14308TIP3    H264416   2.407   2.616  14.323 -0.6212  1.4493 -2.1084
14309TIP3   OH264417   6.540   5.715   0.118 -0.2253 -0.5315  0.1120
14309TIP3    H164418   6.453   5.718   0.078 -0.4415 -2.3061  0.3541
14309TIP3    H264419   6.533   5.648   0.186  0.9322  0.3729  1.1730
14310TIP3   OH264420   1.037   5.061  10.780  0.0979  0.0831 -0.3088
14310TIP3    H164421   0.977   5.093  10.712  0.7476  1.3236 -0.3271
14310TIP3    H264422   1.106   5.015  10.732  0.0214  0.0727 -0.4085
14311TIP3   OH264423   4.548   5.684   0.025  0.2871  0.4494  0.5391
14311TIP3    H164424   4.517   5.596   0.006 -0.3334  1.1046 -1.8402
14311TIP3    H264425   4.496   5.712   0.100 -1.1335 -0.4039 -0.0850
14312TIP3   OH264426   3.728   0.583   2.538 -0.1717  0.0716 -0.3692
14312TIP3    H164427   3.698   0.621   2.455  0.5434 -1.5637 -1.4273
14312TIP3    H264428   3.675   0.504   2.548 -0.6810  0.5782  1.0741
14313TIP3   OH264429   4.948   1.358   1.038 -0.0397  0.0310 -0.7098
14313TIP3    H164430   4.996   1.354   1.121 -1.8051 -0.1709  0.3475
14313TIP3    H264431   5.006   1.406   0.979  0.9290  0.8811  0.8676
14314TIP3   OH264432   5.625   3.660  17.034  0.5827 -0.0889  0.7869
14314TIP3    H164433   5.641   3.749  17.002  2.0431 -1.1241 -1.6426
14314TIP3    H264434   5.712   3.620  17.041 -0.1200 -1.8811 -0.0164
14315TIP3   OH264435   5.452   0.053  14.716  0.0864 -0.2364 -0.1284
14315TIP3    H164436   5.509  -0.005  14.766 -0.5199 -0.2972  0.4954
14315TIP3    H264437   5.367   0.010  14.717 -0.6811  1.2148  1.3757
14316TIP3   OH264438   0.444   3.181  15.188 -0.1509 -0.2524  0.2789
14316TIP3    H164439   0.352   3.159  15.176 -0.6201  1.5005  0.3720
14316TIP3    H264440   0.465   3.239  15.114  0.8328 -0.5054  0.3435
14317TIP3   OH264441   1.733   1.725  13.885 -0.6719  0.3432 -0.7389
14317TIP3    H164442   1.770   1.699  13.801  1.3087 -0.3473  0.2940
14317TIP3    H264443   1.809   1.738  13.942 -1.9736  0.3564  1.0700
14318TIP3   OH264444   3.184   6.403   2.518  0.2587 -0.6782 -0.2189
14318TIP3    H164445   3.135   6.484   2.504  1.3392 -0.1379 -1.1141
14318TIP3    H264446   3.235   6.419   2.597 -0.6904 -1.0891  0.4864
14319TIP3   OH264447   5.578   2.645   1.766 -0.5319  0.2571 -0.1886
14319TIP3    H164448   5.512   2.579   1.788  0.9102 -0.7824  1.2759
14319TIP3    H264449   5.604   2.623   1.676  0.0003 -1.2666  0.3125
14320TIP3   OH264450   6.511   5.788  15.750 -0.2914  0.4079  0.4456
14320TIP3    H164451   6.458   5.738  15.811  0.0252  2.1621  2.2576
14320TIP3    H264452   6.601   5.777  15.781 -0.1317  1.3844  0.3732
14321TIP3   OH264453   1.034   2.580   0.189  0.2631 -0.0729  0.0733
14321TIP3    H164454   1.068   2.513   0.248  0.2470  1.4444  1.9047
14321TIP3    H264455   0.939   2.577   0.200  0.1656 -0.5251 -0.7655
14322TIP3   OH264456   4.586   2.379   5.122 -0.3976 -0.0158  0.4231
14322TIP3    H164457   4.647   2.349   5.189 -1.5977 -1.4395  0.9303
14322TIP3    H264458   4.585   2.474   5.130  3.9929  0.4490 -1.5859
14323TIP3   OH264459   0.883   5.018  12.210 -0.0559 -0.1936  0.0274
14323TIP3    H164460   0.826   4.959  12.260  0.6191  0.6832  1.9193
14323TIP3    H264461   0.971   4.982  12.220 -0.0348 -0.7745 -1.7583
14324TIP3   OH264462   5.818   6.213  10.895 -0.0817 -0.1281 -0.1689
14324TIP3    H164463   5.856   6.280  10.838 -0.2876 -1.3116 -1.7993
14324TIP3    H264464   5.725   6.215  10.876 -0.1978 -0.3514  0.3601
14325TIP3   OH264465   4.896   1.264   4.698  0.0880  0.2251  0.1874
14325TIP3    H164466   4.942   1.254   4.615  0.8147  1.4455  0.4248
14325TIP3    H264467   4.938   1.339   4.740 -2.2769  1.5500  0.3191
14326TIP3   OH264468   6.380   5.300   5.876 -0.4069  0.0376 -0.0326
14326TIP3    H164469   6.383   5.227   5.938  1.8348 -0.6388 -0.8668
14326TIP3    H264470   6.317   5.361   5.915 -0.8628 -1.4310  1.6707
14327TIP3   OH264471   0.952   2.573   5.609  0.5324 -0.0953  0.2975
14327TIP3    H164472   0.988   2.572   5.698 -0.1164 -0.9809  0.5579
14327TIP3    H264473   1.017   2.526   5.556 -1.6496 -4.9586  1.3839
14328TIP3   OH264474   5.660   6.541   3.847 -0.0336 -0.1911  0.3914
14328TIP3    H164475   5.695   6.597   3.778 -0.1743 -0.3235  0.2117
14328TIP3    H264476   5.607   6.476   3.801 -1.1401  0.4491  0.7079
14329TIP3   OH264477   3.585   5.745  15.697 -0.7630 -0.1774  0.1195
14329TIP3    H164478   3.559   5.815  15.757  0.9725  0.1775  0.5184
14329TIP3    H264479   3.653   5.698  15.744 -1.0281 -1.3755 -0.6561
14330TIP3   OH264480   0.544   0.599  13.941  0.1274  0.6424 -0.1203
14330TIP3    H164481   0.530   0.659  14.014  1.0358  2.2083 -1.1625
14330TIP3    H264482   0.458   0.593  13.898 -1.0980 -2.3039  2.4088
14331TIP3   OH264483   0.841   1.585   5.480 -0.1964  0.4036 -0.0037
14331TIP3    H164484   0.933   1.593   5.454  0.6150  0.8766  2.7262
14331TIP3    H264485   0.834   1.496   5.514 -0.5346  0.6174  0.4894
14332TIP3   OH264486   2.475   0.038  12.530  0.1331  0.5972  0.5412
14332TIP3    H164487   2.457   0.059  12.622  2.8539  0.8181  1.1097
14332TIP3    H264488   2.536  -0.035  12.533  0.2022  0.5464 -1.0999
14333TIP3   OH264489   2.431   4.886   5.013  0.6886 -0.8407 -0.0075
14333TIP3    H164490   2.395   4.812   5.062  1.0238 -0.3728  0.9827
14333TIP3    H264491   2.453   4.950   5.080  2.2372 -0.6250 -0.6734
14334TIP3   OH264492   6.405   4.289   6.409 -0.5277  0.0033  0.0614
14334TIP3    H164493   6.366   4.209   6.444 -2.1025 -0.2914 -2.1137
14334TIP3    H264494   6.498   4.280   6.425 -0.7307 -2.0739  0.2988
14335TIP3   OH264495   6.475   6.662   4.372 -0.5555 -0.0303 -0.2237
14335TIP3    H164496   6.474   6.693   4.463 -0.6985 -0.5384 -0.0474
14335TIP3    H264497   6.479   6.566   4.379 -1.9528 -0.1604 -0.7217
14336TIP3   OH264498   2.407   1.258   1.326 -0.8669  0.0875 -0.6267
14336TIP3    H164499   2.370   1.346   1.327  0.7093  0.8020  0.5707
14336TIP3    H264500   2.348   1.207   1.382 -1.1757  0.6682 -0.4109
14337TIP3   OH264501   0.552   5.994   2.452 -0.1256  0.0855 -0.3517
14337TIP3    H164502   0.564   5.909   2.493  1.4813  0.9771  1.1231
14337TIP3    H264503   0.583   6.057   2.517 -2.1213  1.8931 -1.0271
14338TIP3   OH264504   3.195   4.731  12.890 -1.0305 -0.1036  0.4959
14338TIP3    H164505   3.236   4.669  12.830  0.7444 -0.3966  1.9462
14338TIP3    H264506   3.229   4.816  12.865 -1.1719 -0.0790  0.3837
14339TIP3   OH264507   2.492   2.000   3.294  0.1621  0.6502  0.0464
14339TIP3    H164508   2.472   2.083   3.251 -1.6857  0.0278 -0.3579
14339TIP3    H264509   2.440   2.001   3.374  1.6266  0.6963  1.0261
14340TIP3   OH264510   2.355   3.560  15.056  0.3369  0.2222 -0.1251
14340TIP3    H164511   2.317   3.472  15.060 -0.3839  0.4627 -1.2712
14340TIP3    H264512   2.396   3.564  14.969 -0.4956  1.3391 -0.4898
14341TIP3   OH264513   1.700   5.006  11.345 -0.4201  0.3181 -0.0733
14341TIP3    H164514   1.783   5.033  11.385  0.8574 -1.6264 -1.2472
14341TIP3    H264515   1.675   4.928  11.394  0.6105 -1.4656 -2.1919
14342TIP3   OH264516   5.935   3.007  10.992 -0.2194  0.0612  0.1559
14342TIP3    H164517   5.916   3.087  11.040  0.4264 -0.5030  1.3982
14342TIP3    H264518   6.029   3.011  10.974 -0.6320  0.8575 -2.2465
14343TIP3   OH264519   1.943   4.005   5.170  0.1203  0.2815 -0.0602
14343TIP3    H164520   1.974   4.082   5.123  1.5898  0.3262  0.9242
14343TIP3    H264521   1.878   4.039   5.231 -0.8014  0.4101 -1.0777
14344TIP3   OH264522   5.288   1.018  14.553  0.1075  0.7349  0.0406
14344TIP3    H164523   5.204   1.052  14.582  0.0281  0.3828  0.2324
14344TIP3    H264524   5.351   1.054  14.616  0.0454  0.6760  0.1376
14345TIP3   OH264525   5.478   5.515  11.378  0.3902 -0.0874  0.6768
14345TIP3    H164526   5.545   5.561  11.327  0.2437 -0.1419  0.4362
14345TIP3    H264527   5.523   5.438  11.412 -0.0138 -1.0896 -0.9726
14346TIP3   OH264528   0.265   1.630  15.774 -0.5588 -0.1194 -0.4792
14346TIP3    H164529   0.357   1.608  15.786 -0.1599  1.4023 -0.4923
14346TIP3    H264530   0.222   1.598  15.853  0.0133 -0.6882 -0.3944
14347TIP3   OH264531   5.974   0.438   4.572 -0.2978  0.8979  0.2424
14347TIP3    H164532   5.986   0.343   4.574  0.8986  1.0454  0.8286
14347TIP3    H264533   5.884   0.451   4.604 -1.1576 -0.1099 -1.6388
14348TIP3   OH264534   2.082   4.677  11.086  0.6715  0.1141  0.5250
14348TIP3    H164535   2.139   4.702  11.159  2.0603 -1.5550  0.0755
14348TIP3    H264536   2.124   4.716  11.009 -0.2671  1.0633  0.4628
14349TIP3   OH264537   3.349   6.357  15.922 -0.4715  0.0548 -0.5263
14349TIP3    H164538   3.281   6.379  15.986 -0.6273 -0.8717 -0.3521
14349TIP3    H264539   3.431   6.385  15.963 -0.6675  0.3899 -0.3623
14350TIP3   OH264540   2.360   0.261  11.644  0.4805 -0.0567 -1.0581
14350TIP3    H164541   2.282   0.242  11.696  0.4910 -1.6556 -1.5697
14350TIP3    H264542   2.354   0.202  11.569  2.8427 -1.2014 -0.4511
14351TIP3   OH264543   3.920   6.831  16.558 -0.7117  0.4129 -0.4691
14351TIP3    H164544   3.979   6.763  16.591 -0.7150 -0.7825 -2.7348
14351TIP3    H264545   3.973   6.878  16.493 -0.9701  2.0998  0.4901
14352TIP3   OH264546   1.927   2.744  15.403  0.4849  0.5047  0.0574
14352TIP3    H164547   1.902   2.652  15.416  0.4284  0.6235  0.8439
14352TIP3    H264548   1.890   2.767  15.318 -0.3763  0.0957  0.3090
14353TIP3   OH264549   6.729   1.756  12.424  0.3723 -0.1393  0.0922
14353TIP3    H164550   6.751   1.714  12.507 -1.9112  0.1624  0.9224
14353TIP3    H264551   6.808   1.747  12.371  1.9740 -0.1555  2.3485
14354TIP3   OH264552   4.861   3.643  12.762  0.3005  0.5597 -0.7782
14354TIP3    H164553   4.846   3.724  12.810 -0.8143  0.7463 -1.4118
14354TIP3    H264554   4.899   3.583  12.826  0.3857  1.3290 -0.1019
14355TIP3   OH264555   4.313   2.997  16.913  0.0438 -0.1287 -0.5649
14355TIP3    H164556   4.270   3.082  16.924  0.4329 -0.0238  0.2773
14355TIP3    H264557   4.248   2.942  16.870 -0.8839  0.0816  0.5222
14356TIP3   OH264558   6.163   3.756  11.946  0.3202 -0.6066  0.1277
14356TIP3    H164559   6.096   3.820  11.924  0.5326 -0.6331 -0.6130
14356TIP3    H264560   6.203   3.733  11.862  0.7224 -1.1779  0.4695
14357TIP3   OH264561   4.642   1.712  12.534 -0.1019  0.1389  0.3607
14357TIP3    H164562   4.547   1.721  12.546 -0.2517 -0.1886 -0.4737
14357TIP3    H264563   4.662   1.770  12.460 -0.2110 -2.1483 -1.5929
14358TIP3   OH264564   5.763   1.818   1.059 -0.7370  0.1203 -0.6162
14358TIP3    H164565   5.841   1.762   1.066  0.6472  2.0737  0.8923
14358TIP3    H264566   5.733   1.829   1.149 -1.5672  0.9871 -0.9799
14359TIP3   OH264567   6.497   0.045  11.365  0.3771 -0.4177 -0.1392
14359TIP3    H164568   6.506   0.122  11.310 -0.3073 -0.5418 -0.4425
14359TIP3    H264569   6.524  -0.028  11.310  1.2180 -0.3773  0.2122
14360TIP3   OH264570   1.570   3.145  13.854  0.3458  0.3115 -0.0183
14360TIP3    H164571   1.518   3.208  13.902 -0.1364  0.6141 -0.9053
14360TIP3    H264572   1.660   3.177  13.861  0.0019  1.6562 -1.2497
14361TIP3   OH264573   2.789   3.752   0.891  0.3184 -0.1688  0.0479
14361TIP3    H164574   2.821   3.751   0.801  0.6370 -0.4580  0.1643
14361TIP3    H264575   2.865   3.778   0.943  0.2786 -0.5311  0.2892
14362TIP3   OH264576   0.119   3.511   4.306  0.1284  0.5977  0.2483
14362TIP3    H164577   0.141   3.602   4.326  0.4196  0.9652 -1.5561
14362TIP3    H264578   0.050   3.488   4.369 -0.1127  2.1405  0.5757
14363TIP3   OH264579   1.795   0.562   5.785  0.2175 -0.5563  1.0975
14363TIP3    H164580   1.832   0.589   5.869  1.7846 -0.0873  0.2868
14363TIP3    H264581   1.868   0.520   5.738 -0.4812 -0.3437 -0.2331
14364TIP3   OH264582   4.586   5.635   1.607 -0.1984 -0.0621  0.1994
14364TIP3    H164583   4.626   5.716   1.637 -1.3906  1.1762 -1.3118
14364TIP3    H264584   4.519   5.615   1.672  1.2992 -0.8915  1.5366
14365TIP3   OH264585   0.803   6.209  14.978 -0.0882 -0.4829  0.1519
14365TIP3    H164586   0.801   6.274  14.908  0.0623 -2.3641 -1.7096
14365TIP3    H264587   0.733   6.235  15.038  1.7320  2.9159  1.0281
14366TIP3   OH264588   2.833   4.951  12.467  0.1686  0.1915  0.1717
14366TIP3    H164589   2.916   4.940  12.514  0.5494 -1.2171 -0.7769
14366TIP3    H264590   2.833   4.881  12.402 -0.4050  2.0008 -1.8637
14367TIP3   OH264591   2.015   2.953   4.934  0.5014 -0.0157  0.1610
14367TIP3    H164592   2.078   2.999   4.990  0.5657 -2.0053  1.8400
14367TIP3    H264593   2.004   2.867   4.976 -1.7711 -0.4857 -1.2357
14368TIP3   OH264594   6.547   0.942  16.765  0.0375  0.8299  0.3338
14368TIP3    H164595   6.514   0.945  16.855 -0.3160 -2.0025  0.3997
14368TIP3    H264596   6.485   0.886  16.718  2.1913 -0.8666 -0.6840
14369TIP3   OH264597   1.237   0.476   2.265 -0.3555  0.6724  0.6424
14369TIP3    H164598   1.249   0.568   2.287  1.6862  0.2220  1.6758
14369TIP3    H264599   1.321   0.435   2.285 -0.6332 -1.1355 -1.4238
14370TIP3   OH264600   4.885   1.309   4.372  0.4272 -0.3061  0.1268
14370TIP3    H164601   4.904   1.394   4.411  1.0037 -1.5835  2.8883
14370TIP3    H264602   4.958   1.291   4.314  0.0301  1.2746 -0.9026
14371TIP3   OH264603   3.511   4.919   3.651  0.3687  0.4027 -0.1121
14371TIP3    H164604   3.543   4.904   3.740  1.7589  0.1219 -0.6382
14371TIP3    H264605   3.436   4.860   3.643 -0.3415  1.0785  1.1579
14372TIP3   OH264606   1.608   6.666   4.369 -0.1795  0.0397 -0.4592
14372TIP3    H164607   1.676   6.732   4.377  0.9331 -0.9724 -1.2145
14372TIP3    H264608   1.647   6.586   4.404 -2.3124  0.2177  2.7225
14373TIP3   OH264609   6.659   4.565   3.262 -0.4781  0.0575  0.1418
14373TIP3    H164610   6.614   4.611   3.190 -1.1519 -0.4921  0.2040
14373TIP3    H264611   6.748   4.551   3.229 -0.3166  1.1938  0.0315
14374TIP3   OH264612   1.099   4.827   3.756 -0.8018  0.2703 -0.1473
14374TIP3    H164613   1.012   4.858   3.728 -0.2142  1.3856 -0.8477
14374TIP3    H264614   1.160   4.887   3.712  0.2456  2.3430  3.6736
14375TIP3   OH264615   3.421   4.225   4.296 -0.0574  0.3127  0.2062
14375TIP3    H164616   3.482   4.197   4.227  1.4923  0.5151  1.4304
14375TIP3    H264617   3.377   4.302   4.259 -0.3778 -0.4679 -1.1070
14376TIP3   OH264618   4.617   1.186  16.271 -0.2985  0.2518 -0.3041
14376TIP3    H164619   4.571   1.263  16.305 -1.3800  0.1755 -1.5264
14376TIP3    H264620   4.555   1.146  16.210  0.5343 -1.1714 -0.2549
14377TIP3   OH264621   3.911   1.586   3.132  0.2026 -0.5398  0.2815
14377TIP3    H164622   3.924   1.594   3.227  1.6773  0.5770  0.0178
14377TIP3    H264623   3.955   1.505   3.109 -1.1983 -1.4497  0.7018
14378TIP3   OH264624   3.228   3.398  12.556 -0.6867 -0.4174 -0.1937
14378TIP3    H164625   3.146   3.413  12.604 -1.2883  0.6315 -1.5121
14378TIP3    H264626   3.200   3.363  12.472  0.2944 -0.9950 -0.2933
14379TIP3   OH264627   6.497   4.748  11.952  0.4016  0.2925 -0.6265
14379TIP3    H164628   6.590   4.747  11.929  0.6006  1.7803 -0.0379
14379TIP3    H264629   6.497   4.746  12.048 -0.0612  2.0840 -0.5454
14380TIP3   OH264630   0.910   1.287  15.269 -0.2862 -0.1557  0.5595
14380TIP3    H164631   0.900   1.214  15.330  1.9269  0.2798  1.5681
14380TIP3    H264632   0.942   1.246  15.188 -1.3668 -0.5342  0.3153
14381TIP3   OH264633   4.442   0.089   4.236 -0.3612 -0.2768 -0.4294
14381TIP3    H164634   4.426   0.177   4.201 -2.5864  0.0620  1.2246
14381TIP3    H264635   4.415   0.030   4.165 -0.0229  0.3443 -1.0939
14382TIP3   OH264636   6.639   1.233  11.717 -0.3713 -0.3447 -0.4479
14382TIP3    H164637   6.693   1.161  11.750 -1.4372 -0.7074  0.6086
14382TIP3    H264638   6.656   1.235  11.623 -1.1012 -2.7106 -0.7035
14383TIP3   OH264639   3.495   2.715  14.265  0.4168  0.6291  0.2337
14383TIP3    H164640   3.530   2.635  14.304 -0.1991 -1.0745 -2.4027
14383TIP3    H264641   3.404   2.718  14.293  0.9243  1.5513  1.9169
14384TIP3   OH264642   1.369   6.303  14.240 -0.9042  0.4348  0.2258
14384TIP3    H164643   1.371   6.212  14.210 -1.0040  0.7192 -0.6639
14384TIP3    H264644   1.326   6.299  14.325  0.1589 -0.5023  0.7471
14385TIP3   OH264645   4.286   4.801  16.934 -0.2639 -0.0888 -0.4518
14385TIP3    H164646   4.323   4.718  16.906 -0.0665  0.1158 -0.8123
14385TIP3    H264647   4.192   4.792  16.918 -0.0904  0.2492 -1.8213
14386TIP3   OH264648   2.689   4.844   0.370  0.2088  0.8038  0.6058
14386TIP3    H164649   2.729   4.867   0.287 -0.7343  0.5986  0.0800
14386TIP3    H264650   2.756   4.863   0.435  1.2983  0.0727 -0.2687
14387TIP3   OH264651   0.676   4.825  15.804 -0.2195  0.1584  0.1868
14387TIP3    H164652   0.689   4.745  15.855 -1.2947 -0.2293 -0.1102
14387TIP3    H264653   0.733   4.890  15.846 -1.4400  0.0086  2.2293
14388TIP3   OH264654   1.517   3.643   1.563  0.5411 -0.3620  0.0086
14388TIP3    H164655   1.598   3.592   1.552  0.0893 -1.0648 -0.1266
14388TIP3    H264656   1.524   3.714   1.499  1.7109  0.4638  0.9911
14389TIP3   OH264657   2.985   3.234  13.309  0.4969 -0.2818  0.3809
14389TIP3    H164658   2.991   3.244  13.214  1.9085 -0.0456  0.4741
14389TIP3    H264659   2.997   3.141  13.325  1.7646 -0.1240  0.4101
14390TIP3   OH264660   5.935   3.398  15.809 -0.1889  0.2461  0.1423
14390TIP3    H164661   6.009   3.439  15.765  0.1718 -0.7679 -0.2206
14390TIP3    H264662   5.932   3.439  15.896  0.4481  0.6779 -0.0334
14391TIP3   OH264663   0.227   1.805  12.035 -0.1383 -0.1042 -0.5582
14391TIP3    H164664   0.312   1.767  12.057  0.0651  0.6148 -0.0598
14391TIP3    H264665   0.245   1.864  11.962 -0.0421  0.6509  0.0512
14392TIP3   OH264666   4.486   2.271   0.841 -0.6032 -0.0557  0.1302
14392TIP3    H164667   4.462   2.350   0.891  0.2411  0.6482 -0.5364
14392TIP3    H264668   4.581   2.279   0.830 -0.8685  0.3304 -2.4111
14393TIP3   OH264669   3.711   2.685  11.463 -0.4517  0.6709  1.0044
14393TIP3    H164670   3.735   2.687  11.555  2.4160  0.7733  0.3422
14393TIP3    H264671   3.670   2.599  11.451 -0.4333  0.4689  2.2495
14394TIP3   OH264672   1.728   2.371   2.933  0.0220  0.1359 -0.4181
14394TIP3    H164673   1.694   2.461   2.940  0.4023  0.2436  0.1704
14394TIP3    H264674   1.804   2.379   2.876  0.0284  0.1833 -0.4033
14395TIP3   OH264675   0.526   6.271   1.015 -0.4127 -0.0277  0.3035
14395TIP3    H164676   0.501   6.316   0.934 -0.0217  0.1502  0.2780
14395TIP3    H264677   0.494   6.181   1.003 -1.4842  0.3117  0.4959
14396TIP3   OH264678   0.758   5.265  13.089 -0.6164 -0.1840 -0.6086
14396TIP3    H164679   0.675   5.267  13.040 -0.7972  1.6978 -0.3046
14396TIP3    H264680   0.803   5.187  13.057 -1.8472 -0.4040 -1.9074
14397TIP3   OH264681   3.439   3.738   3.677  0.0787 -0.0954 -0.0067
14397TIP3    H164682   3.367   3.696   3.629 -0.9322 -0.1312  1.4779
14397TIP3    H264683   3.395   3.805   3.731  1.0997 -0.4098  1.2538
14398TIP3   OH264684   4.948   0.158   5.598  0.6738 -0.2969 -0.0472
14398TIP3    H164685   5.032   0.116   5.576  2.2505  1.5292  2.0227
14398TIP3    H264686   4.942   0.150   5.693  0.0067  2.2214  0.1826
14399TIP3   OH264687   5.733   3.508   0.972  0.1128  0.0394  0.0570
14399TIP3    H164688   5.815   3.498   0.923  0.8976  0.2739  1.2762
14399TIP3    H264689   5.724   3.602   0.985  0.0929 -0.0420  0.6444
14400TIP3   OH264690   3.258   3.946   5.322  0.4361 -0.2600 -0.4870
14400TIP3    H164691   3.242   3.864   5.275  1.7203 -0.7732 -0.0813
14400TIP3    H264692   3.177   3.963   5.369  0.4063 -1.7459  0.0570
14401TIP3   OH264693   6.548   0.745  12.173  0.1643  0.8024 -0.0321
14401TIP3    H164694   6.513   0.758  12.261 -0.1723  1.7389 -0.2938
14401TIP3    H264695   6.480   0.778  12.115 -0.5843 -1.8346 -0.7708
14402TIP3   OH264696   1.033   5.583   3.719 -0.1892 -0.4509 -0.6515
14402TIP3    H164697   1.061   5.548   3.803 -1.1421 -0.8502 -0.4803
14402TIP3    H264698   0.938   5.590   3.727 -0.5952 -2.6516 -2.4434
14403TIP3   OH264699   2.192   5.979  13.948  0.1547  0.0776  0.1000
14403TIP3    H164700   2.225   6.028  14.024  2.2606 -0.4751 -0.3996
14403TIP3    H264701   2.164   5.895  13.984 -0.1298  0.3086  0.4352
14404TIP3   OH264702   6.227   0.543   5.611 -0.5800  0.1164 -0.1608
14404TIP3    H164703   6.318   0.554   5.585 -0.5211  0.3326  0.1442
14404TIP3    H264704   6.220   0.450   5.635 -0.3522  0.1823  0.1645
14405TIP3   OH264705   1.883   0.200   4.550  0.2049 -0.4586 -0.2598
14405TIP3    H164706   1.799   0.246   4.552  0.6454  0.4578 -1.2930
14405TIP3    H264707   1.889   0.156   4.634 -1.0142  0.0130  0.0907
14406TIP3   OH264708   6.268   4.766   5.589 -0.3767 -0.4932 -0.1127
14406TIP3    H164709   6.185   4.749   5.544  0.6109 -3.6521 -0.9734
14406TIP3    H264710   6.304   4.842   5.544 -1.9154 -0.2301 -1.0009
14407TIP3   OH264711   6.571   0.289  13.230 -0.1403 -0.5812 -0.1870
14407TIP3    H164712   6.581   0.362  13.291  0.0251 -0.7998  0.0487
14407TIP3    H264713   6.659   0.276  13.194  0.1333 -1.5416  0.7814
14408TIP3   OH264714   2.930   0.440  16.756 -0.3802 -0.0961 -0.2739
14408TIP3    H164715   2.875   0.371  16.793  1.6534 -0.3617  2.6277
14408TIP3    H264716   3.020   0.409  16.770  0.6102  0.9894 -3.4132
14409TIP3   OH264717   0.231   0.097   5.185 -1.3097 -0.4140 -0.0216
14409TIP3    H164718   0.161   0.138   5.236 -1.6261 -0.5317 -0.3575
14409TIP3    H264719   0.191   0.020   5.146 -0.4856 -1.5782  1.3287
14410TIP3   OH264720   0.764   0.420   2.940  0.4585 -0.1624  0.0561
14410TIP3    H164721   0.771   0.324   2.943 -2.0463 -0.3990  1.5182
14410TIP3    H264722   0.814   0.449   3.017 -0.1200 -0.4466  0.5505
14411TIP3   OH264723   5.602   5.902   2.784  0.2607  0.8049  0.4562
14411TIP3    H164724   5.662   5.831   2.806 -1.0068 -0.1432  0.9641
14411TIP3    H264725   5.623   5.971   2.847  1.0218  0.6206  0.4153
14412TIP3   OH264726   5.900   5.073   2.713  0.4443 -0.5771 -0.2280
14412TIP3    H164727   5.823   5.115   2.674 -0.0268 -0.6548  0.6001
14412TIP3    H264728   5.974   5.112   2.666  0.0854  1.9578  1.1441
14413TIP3   OH264729   6.352   1.217   0.564  0.2696  0.3441  0.2103
14413TIP3    H164730   6.448   1.217   0.560  0.2347 -0.4285 -0.8450
14413TIP3    H264731   6.324   1.250   0.479 -0.4025 -1.8924 -0.4857
14414TIP3   OH264732   5.804   2.737  14.802 -0.1815  0.1263 -0.0317
14414TIP3    H164733   5.852   2.819  14.816  0.2105 -0.1462  0.2497
14414TIP3    H264734   5.782   2.738  14.710  1.8217 -0.5084 -0.5806
14415TIP3   OH264735   6.809   5.070  13.395 -0.1269 -0.4490 -0.5633
14415TIP3    H164736   6.716   5.060  13.374  0.1389  1.0127 -2.7586
14415TIP3    H264737   6.841   4.980  13.403 -1.4340 -0.9985 -1.1283
14416TIP3   OH264738   2.072   3.999   3.612 -0.0865 -0.0129  0.0564
14416TIP3    H164739   2.102   4.077   3.659 -0.3959  1.0286 -1.4017
14416TIP3    H264740   2.141   3.935   3.627  1.5235  1.4011 -0.8673
14417TIP3   OH264741   5.027   5.269  10.834 -0.3853  0.5373  0.3656
14417TIP3    H164742   4.983   5.297  10.914 -1.7958  1.0679 -0.5548
14417TIP3    H264743   4.958   5.268  10.768  0.2650 -1.9860 -0.3904
14418TIP3   OH264744   6.481   3.846  14.265  0.4248  0.4341  0.0950
14418TIP3    H164745   6.547   3.782  14.239  0.5594  1.1011 -1.3019
14418TIP3    H264746   6.531   3.924  14.288  0.3297 -0.1764  2.7262
14419TIP3   OH264747   4.009   1.378   2.996 -0.7144  0.5385  0.2107
14419TIP3    H164748   3.997   1.284   2.980  1.0782  0.6591 -2.5106
14419TIP3    H264749   4.101   1.386   3.020 -0.6011  1.6947 -0.5588
14420TIP3   OH264750   5.797   1.276   6.116  0.2310 -0.7280  0.0688
14420TIP3    H164751   5.789   1.325   6.197  2.2411  0.6609 -0.5006
14420TIP3    H264752   5.839   1.194   6.142  0.6087 -0.4070  0.4917
14421TIP3   OH264753   0.241   4.969   4.789 -0.6096  0.0314  0.3656
14421TIP3    H164754   0.206   4.940   4.705 -0.6104  2.6335 -0.6435
14421TIP3    H264755   0.336   4.968   4.776 -0.5619 -0.7345  0.7707
14422TIP3   OH264756   1.060   2.419   3.977 -0.8322 -0.1011  0.4397
14422TIP3    H164757   0.982   2.473   3.966 -0.9523 -0.4584 -0.5625
14422TIP3    H264758   1.132   2.481   3.977 -0.8940  0.0210 -1.6756
14423TIP3   OH264759   0.627   6.429  15.318  0.4076  0.6249  0.1432
14423TIP3    H164760   0.550   6.486  15.317 -0.6736 -0.7088 -1.9640
14423TIP3    H264761   0.591   6.340  15.308  2.2037  0.0026 -1.3907
14424TIP3   OH264762   3.092   5.271  12.392  0.0340  0.0962 -0.1217
14424TIP3    H164763   3.069   5.296  12.481  0.5688 -0.1493  0.0890
14424TIP3    H264764   3.050   5.337  12.337  0.9525  1.1224  0.3932
14425TIP3   OH264765   1.602   5.882   2.049  0.8146  0.2639 -0.1909
14425TIP3    H164766   1.678   5.928   2.014  0.4697 -0.4497 -2.0139
14425TIP3    H264767   1.639   5.809   2.100  1.3665  0.1311 -0.7711
14426TIP3   OH264768   4.921   2.447   3.750  0.9230 -0.4525 -0.2123
14426TIP3    H164769   4.958   2.535   3.744  1.2949 -0.5284  0.7393
14426TIP3    H264770   4.905   2.435   3.844  0.9007 -1.4042 -0.3323
14427TIP3   OH264771   5.237   5.744   5.655  0.1308  0.4703  0.0548
14427TIP3    H164772   5.273   5.709   5.736  1.7165  1.3145 -0.2333
14427TIP3    H264773   5.225   5.668   5.598  1.7629  0.1576  0.0832
14428TIP3   OH264774   3.098   1.953   1.187  0.3012 -0.7153  0.0962
14428TIP3    H164775   3.180   1.992   1.216 -0.9097  0.9512  1.4984
14428TIP3    H264776   3.111   1.859   1.194  1.5703 -0.4506  1.8559
14429TIP3   OH264777   0.711   6.620  11.976 -0.8471  0.0731  0.0224
14429TIP3    H164778   0.784   6.663  12.020 -1.1714 -0.4398  1.1041
14429TIP3    H264779   0.746   6.536  11.948 -0.5848  0.4790 -0.9121
14430TIP3   OH264780   1.752   4.373  12.658  0.3130  0.0208 -0.5026
14430TIP3    H164781   1.771   4.467  12.649  3.2688 -0.4004  0.2912
14430TIP3    H264782   1.687   4.355  12.590  0.5185  2.4061 -1.4234
14431TIP3   OH264783   2.485   0.526  14.234 -0.0432 -0.1195 -0.7745
14431TIP3    H164784   2.508   0.503  14.324  0.0295 -0.5634 -0.9069
14431TIP3    H264785   2.400   0.569  14.241 -0.1074 -0.2891 -0.5101
14432TIP3   OH264786   5.450   6.584  14.800 -0.0766 -0.9247 -0.1705
14432TIP3    H164787   5.417   6.601  14.888 -1.1673  0.2371 -0.7803
14432TIP3    H264788   5.443   6.489  14.790  0.4045 -1.1149  1.1119
14433TIP3   OH264789   3.935   2.671   5.973 -0.8536 -0.5500  0.0902
14433TIP3    H164790   3.853   2.641   6.011 -0.5684 -0.3120  0.9224
14433TIP3    H264791   4.003   2.637   6.032 -0.3712 -0.6080 -0.4949
14434TIP3   OH264792   2.323   4.200   0.587  0.6140 -0.0259 -0.4575
14434TIP3    H164793   2.411   4.227   0.613  0.4674  1.7561 -1.6470
14434TIP3    H264794   2.336   4.120   0.535  1.2803 -1.0781  1.2726
14435TIP3   OH264795   2.996   5.405  16.674 -0.1726  0.0823  0.1040
14435TIP3    H164796   3.030   5.485  16.635  0.4674  0.3183  1.1007
14435TIP3    H264797   2.903   5.422  16.686 -0.4175 -0.0540 -1.4093
14436TIP3   OH264798   4.008   4.628   4.298  0.2748 -0.2538 -0.1210
14436TIP3    H164799   4.033   4.635   4.390 -1.3925  1.3061  0.2701
14436TIP3    H264800   4.023   4.715   4.262 -2.3163  0.1371 -0.4058
14437TIP3   OH264801   2.198   1.479  12.784 -0.0701 -0.1016 -0.1302
14437TIP3    H164802   2.287   1.513  12.782 -0.3935  0.8638  0.8908
14437TIP3    H264803   2.209   1.385  12.796  0.8573  0.3134  3.3204
14438TIP3   OH264804   1.744   4.546  16.379  0.3818 -0.1379  0.9288
14438TIP3    H164805   1.791   4.464  16.392  0.3915 -0.4033 -0.6378
14438TIP3    H264806   1.813   4.613  16.378  1.0962 -0.6887 -3.0999
14439TIP3   OH264807   1.945   1.757  13.234 -0.1123  0.0635  0.1184
14439TIP3    H164808   1.891   1.834  13.253  0.1191  0.6124 -1.3685
14439TIP3    H264809   1.893   1.705  13.173  1.3711  1.1262 -2.2148
14440TIP3   OH264810   2.700   0.977  15.705 -0.2838 -0.2153  0.4502
14440TIP3    H164811   2.612   0.971  15.669 -0.1318 -0.6749  0.1452
14440TIP3    H264812   2.736   0.889  15.695  0.6386  0.2530 -0.5382
14441TIP3   OH264813   2.842   2.424  11.084 -0.4796 -0.3638  0.3546
14441TIP3    H164814   2.925   2.425  11.132 -0.4270 -1.0020  0.2871
14441TIP3    H264815   2.810   2.334  11.093 -0.7956 -0.3185 -0.2524
14442TIP3   OH264816   5.369   5.727  10.535  0.0330  0.6974 -0.0995
14442TIP3    H164817   5.412   5.649  10.571 -0.6870  0.6833  0.7437
14442TIP3    H264818   5.276   5.713  10.552 -0.2636  1.0077 -1.3672
14443TIP3   OH264819   6.343   1.174  15.200  0.1376  0.5069  0.6747
14443TIP3    H164820   6.267   1.177  15.142  1.4553  0.4240 -1.1434
14443TIP3    H264821   6.359   1.080  15.214 -1.7471  0.4592  3.4877
14444TIP3   OH264822   5.592   2.036   3.059 -0.6303 -0.0749 -0.4053
14444TIP3    H164823   5.678   2.055   3.096 -1.2019 -0.3279  1.1353
14444TIP3    H264824   5.539   2.113   3.082 -1.9652 -1.7102  2.6239
14445TIP3   OH264825   1.537   5.837  13.990 -0.3373 -0.1389 -0.0031
14445TIP3    H164826   1.566   5.929  13.993 -0.0820 -0.1189 -1.7037
14445TIP3    H264827   1.617   5.788  13.974 -0.8264 -0.3081 -2.3637
14446TIP3   OH264828   3.807   0.856   3.963  0.3902  0.3483  0.1172
14446TIP3    H164829   3.842   0.776   3.925  2.0684  0.8912  0.3901
14446TIP3    H264830   3.791   0.834   4.055 -0.2136  0.0295 -0.0614
14447TIP3   OH264831   1.696   3.314   1.027 -0.2074 -0.4846 -0.0329
14447TIP3    H164832   1.631   3.311   0.958 -0.8829  1.5963  0.4573
14447TIP3    H264833   1.780   3.313   0.981 -0.6177  2.7516 -1.1212
14448TIP3   OH264834   6.060   6.223  15.132  0.2261 -0.1941  0.4107
14448TIP3    H164835   6.113   6.191  15.059 -0.8897 -0.6203 -0.2323
14448TIP3    H264836   5.995   6.155  15.146  0.6239 -0.2738  2.0488
14449TIP3   OH264837   5.143   4.503   0.092  0.2544 -0.3394 -0.1644
14449TIP3    H164838   5.184   4.588   0.074  0.8490 -0.4250  0.6708
14449TIP3    H264839   5.125   4.466   0.006 -1.1326  1.1411 -0.5540
14450TIP3   OH264840   5.809   2.447  14.434  0.0626  0.1099  0.3590
14450TIP3    H164841   5.879   2.432  14.497  0.5126  1.5677  0.2500
14450TIP3    H264842   5.729   2.423  14.480  0.4498  0.4900  1.2463
14451TIP3   OH264843   2.888   3.940  16.597  0.3518 -0.1908 -0.2806
14451TIP3    H164844   2.838   3.861  16.574 -0.2858  0.0616  0.1859
14451TIP3    H264845   2.852   3.966  16.682 -0.2018  1.2126 -0.9089
14452TIP3   OH264846   0.662   2.042   1.392 -0.0968  1.1744 -0.2181
14452TIP3    H164847   0.639   2.046   1.299 -0.8355 -0.2377 -0.1268
14452TIP3    H264848   0.628   2.124   1.428 -1.0934  1.0977 -0.9314
14453TIP3   OH264849   1.863   1.330  11.311  0.1749 -0.0590  0.5947
14453TIP3    H164850   1.791   1.309  11.251  1.0898 -1.4833 -0.0619
14453TIP3    H264851   1.920   1.387  11.260  0.4651 -0.4861  0.4358
14454TIP3   OH264852   2.482   2.396  16.369  0.2671  0.3968  0.3299
14454TIP3    H164853   2.534   2.324  16.333 -0.7624 -0.4184  0.3981
14454TIP3    H264854   2.488   2.384  16.463 -0.1053  0.2371  0.3365
14455TIP3   OH264855   4.067   0.257   1.494  0.4411  0.3753  0.0883
14455TIP3    H164856   4.122   0.255   1.572  0.3091 -1.7438  0.1969
14455TIP3    H264857   3.986   0.300   1.523  0.8112  0.6008  0.8134
14456TIP3   OH264858   1.928   0.565  14.386  0.6236 -0.7348 -0.6509
14456TIP3    H164859   2.000   0.527  14.335  1.9868  1.1082 -0.2011
14456TIP3    H264860   1.895   0.637  14.333  0.9955  0.1896  0.3255
14457TIP3   OH264861   6.613   3.497   0.440  0.0638  0.0081  0.1028
14457TIP3    H164862   6.694   3.472   0.483  0.4616  0.8145 -0.1392
14457TIP3    H264863   6.642   3.549   0.364 -0.6664  0.1668 -0.0732
14458TIP3   OH264864   5.972   2.292   1.387  0.2923 -0.2180  0.2835
14458TIP3    H164865   5.894   2.269   1.439  0.1891  0.7470  0.5612
14458TIP3    H264866   5.937   2.341   1.312  0.5654 -0.4886 -0.0256
14459TIP3   OH264867   2.955   4.009   6.611  0.0753  0.5087  0.7971
14459TIP3    H164868   3.028   4.059   6.649 -1.0157  1.9225  1.1469
14459TIP3    H264869   2.927   4.061   6.535  1.2483 -1.5053 -1.1234
14460TIP3   OH264870   4.910   0.243  13.274  0.4098  0.3964 -0.1371
14460TIP3    H164871   4.917   0.318  13.333  0.3592  0.0025  0.3808
14460TIP3    H264872   4.817   0.223  13.271  0.4406  0.2411 -0.1176
14461TIP3   OH264873   1.080   5.485   6.022  0.5622  0.1140 -0.3287
14461TIP3    H164874   1.015   5.515   6.086  1.1378 -1.3890  1.0341
14461TIP3    H264875   1.149   5.446   6.075  1.9214  0.4040 -1.8228
14462TIP3   OH264876   4.494   2.616   1.447  0.1312  0.1552 -0.2422
14462TIP3    H164877   4.535   2.597   1.532 -0.9729 -0.8937  0.0795
14462TIP3    H264878   4.452   2.701   1.459 -0.6752 -0.3322  0.5368
14463TIP3   OH264879   5.939   6.391  13.139 -0.5466 -0.2986 -0.1263
14463TIP3    H164880   6.003   6.455  13.166 -0.9601  0.3421 -0.6390
14463TIP3    H264881   5.876   6.440  13.086 -2.4679 -0.5006  1.7961
14464TIP3   OH264882   6.541   4.903  13.737  0.4291  0.3887  0.3218
14464TIP3    H164883   6.481   4.914  13.663 -0.5006  0.3668  1.0635
14464TIP3    H264884   6.486   4.869  13.808  1.5561 -0.8304  0.6532
14465TIP3   OH264885   4.554   0.584   3.968  0.1747  0.0428 -0.1390
14465TIP3    H164886   4.616   0.562   4.037  0.1447  0.6608  0.0913
14465TIP3    H264887   4.478   0.619   4.014  0.7171  1.8279 -0.5156
14466TIP3   OH264888   3.085   4.448  17.189  0.4100 -0.5331  0.3881
14466TIP3    H164889   3.034   4.528  17.204 -0.2702 -0.7253 -0.7456
14466TIP3    H264890   3.174   4.479  17.174  0.1689  0.0201  0.0320
14467TIP3   OH264891   6.566   0.216  11.006 -0.1941 -0.4942  0.1479
14467TIP3    H164892   6.609   0.290  10.962 -1.2019  0.4520  0.7111
14467TIP3    H264893   6.491   0.196  10.951 -0.6714 -0.2269  0.7003
14468TIP3   OH264894   6.615   4.426  16.226 -0.0987 -0.2787 -0.1317
14468TIP3    H164895   6.689   4.484  16.245 -1.8540  2.4857 -1.0669
14468TIP3    H264896   6.556   4.438  16.300 -0.5045 -0.8963 -0.3518
14469TIP3   OH264897   2.728   3.489   3.509  0.7862 -0.4618  0.8647
14469TIP3    H164898   2.746   3.519   3.599  0.0382 -1.3397  1.3218
14469TIP3    H264899   2.709   3.396   3.519 -1.8486 -0.0531  0.1471
14470TIP3   OH264900   6.625   1.011   5.448  0.3893  0.2082  0.2883
14470TIP3    H164901   6.555   0.959   5.488  0.9267 -0.3000  0.5760
14470TIP3    H264902   6.582   1.057   5.376 -0.1938 -0.2723  0.3212
14471TIP3   OH264903   1.901   2.655  12.815  0.5161 -0.2796 -0.0671
14471TIP3    H164904   1.873   2.660  12.906 -1.4533  0.6808 -0.6469
14471TIP3    H264905   1.879   2.741  12.779  1.6852 -0.4838 -1.3443
14472TIP3   OH264906   0.415   2.898   3.873 -0.1178  0.0208  0.1960
14472TIP3    H164907   0.408   2.835   3.944 -1.4466 -0.4130 -0.2968
14472TIP3    H264908   0.486   2.865   3.818  0.1613 -0.2494  0.7134
14473TIP3   OH264909   5.867   1.322   4.851 -0.4368 -0.1134  0.3818
14473TIP3    H164910   5.947   1.373   4.834 -0.4894  0.4409  1.6890
14473TIP3    H264911   5.807   1.384   4.892 -1.2239 -0.7498  0.2080
14474TIP3   OH264912   2.698   6.011   4.568 -0.3919 -0.1066  0.6231
14474TIP3    H164913   2.723   5.924   4.537 -0.7269 -0.1991  0.6059
14474TIP3    H264914   2.719   6.069   4.495  1.1341  0.0306  1.1514
14475TIP3   OH264915   1.088   3.054  16.240 -0.1678  0.0995 -0.2454
14475TIP3    H164916   1.016   2.998  16.272  0.0981  0.9518  2.0687
14475TIP3    H264917   1.045   3.134  16.212 -0.2226  0.2560  0.2696
14476TIP3   OH264918   2.835   0.352  12.898  0.3231 -0.0791 -0.4512
14476TIP3    H164919   2.886   0.277  12.926 -3.3036 -3.0240 -0.9608
14476TIP3    H264920   2.779   0.373  12.973 -0.6349  0.2444 -1.2199
14477TIP3   OH264921   5.879   4.826   2.227  0.0203 -0.0427  0.3810
14477TIP3    H164922   5.937   4.750   2.228 -0.7242 -0.7283 -1.9088
14477TIP3    H264923   5.834   4.821   2.143 -2.1158  1.4102  1.3417
14478TIP3   OH264924   1.426   1.973   2.081 -0.0260 -0.6036 -0.2117
14478TIP3    H164925   1.510   1.984   2.125 -0.4742  2.4719  0.0632
14478TIP3    H264926   1.448   1.967   1.988  0.4733  1.5403 -0.2692
14479TIP3   OH264927   1.990   6.648  13.205  0.0845 -0.0404  0.1144
14479TIP3    H164928   1.912   6.592  13.217  0.2423 -0.0916  1.0106
14479TIP3    H264929   1.977   6.690  13.120 -1.1096  0.2355  0.4120
14480TIP3   OH264930   5.267   6.710  16.273  0.0461 -0.2604  0.3199
14480TIP3    H164931   5.225   6.788  16.310 -3.5261 -2.0618  0.4907
14480TIP3    H264932   5.235   6.637  16.326  2.4754 -2.0178 -0.4401
14481TIP3   OH264933   4.257   3.403  16.271  0.0245  0.6255 -0.0690
14481TIP3    H164934   4.277   3.496  16.278 -0.5896  0.8059 -0.6579
14481TIP3    H264935   4.163   3.397  16.289 -0.0208  0.1733 -0.4306
14482TIP3   OH264936   4.394   4.501   0.560 -0.2442 -0.3311 -0.0090
14482TIP3    H164937   4.336   4.471   0.630  0.0584 -1.8349 -0.3832
14482TIP3    H264938   4.445   4.424   0.536  0.2255  0.3718 -1.3450
14483TIP3   OH264939   0.879   1.705  14.072  0.5661  0.1500 -0.3351
14483TIP3    H164940   0.953   1.647  14.055  1.4491  1.2985 -0.5508
14483TIP3    H264941   0.902   1.751  14.153  1.3372  2.3739 -1.7247
14484TIP3   OH264942   3.624   1.591  13.849 -0.1492 -0.2272  0.3759
14484TIP3    H164943   3.647   1.542  13.929  0.4649 -0.1146  0.2785
14484TIP3    H264944   3.651   1.533  13.778 -0.5388 -0.2544  0.2500
14485TIP3   OH264945   2.976   1.317   3.514  0.1475 -0.5618  0.0688
14485TIP3    H164946   2.925   1.273   3.445  0.2280 -0.4080 -0.0880
14485TIP3    H264947   3.019   1.390   3.470 -2.0946  1.3384  0.8430
14486TIP3   OH264948   5.429   0.454   5.360  0.2353 -0.1898  0.2653
14486TIP3    H164949   5.336   0.453   5.338  0.1283  0.8546  0.6467
14486TIP3    H264950   5.433   0.414   5.447  0.0355  0.6071  0.6419
14487TIP3   OH264951   5.653   6.417   0.266 -0.3895  0.0818 -0.1271
14487TIP3    H164952   5.644   6.435   0.360  1.3446  0.7408 -0.0574
14487TIP3    H264953   5.565   6.390   0.238 -1.4267  1.8749  1.2537
14488TIP3   OH264954   3.015   3.243   0.583  0.4277  0.7966  0.2046
14488TIP3    H164955   3.021   3.306   0.654  2.8248  0.7348  0.1539
14488TIP3    H264956   3.092   3.186   0.595 -1.2259 -1.6828 -0.1676
14489TIP3   OH264957   5.679   2.751   5.091 -0.2168  0.7230 -0.1407
14489TIP3    H164958   5.723   2.835   5.080  0.5223  0.4566  0.6107
14489TIP3    H264959   5.586   2.770   5.080  0.0125  1.4735 -0.8231
14490TIP3   OH264960   2.835   6.151  12.600  0.3040 -0.1322  0.3209
14490TIP3    H164961   2.857   6.238  12.567 -0.6215  0.0924  0.2783
14490TIP3    H264962   2.917   6.102  12.594  1.1293  1.0521  1.4009
14491TIP3   OH264963   5.161   0.524   5.063  0.3397 -0.4939  0.4042
14491TIP3    H164964   5.113   0.521   4.980 -0.3541 -2.9368  0.8240
14491TIP3    H264965   5.238   0.578   5.044 -0.3418 -0.1185 -1.5249
14492TIP3   OH264966   0.484   5.784   5.909  0.2241 -0.0923  0.1090
14492TIP3    H164967   0.474   5.878   5.923  2.7416  0.5783 -1.8127
14492TIP3    H264968   0.451   5.744   5.989 -2.0279  2.3083  0.5151
14493TIP3   OH264969   3.742   1.789   5.106  0.4477 -0.3795 -0.3258
14493TIP3    H164970   3.681   1.852   5.068  2.0144  2.0225  0.8750
14493TIP3    H264971   3.780   1.743   5.031 -1.8197 -1.0605 -1.1479
14494TIP3   OH264972   5.951   4.588  11.158  0.4114 -0.0866  0.2919
14494TIP3    H164973   5.999   4.566  11.079 -0.9955 -0.7867 -0.4150
14494TIP3    H264974   5.867   4.622  11.126 -0.3716 -0.8476  1.4644
14495TIP3   OH264975   4.536   6.657  12.523  0.2105  0.3227 -0.3689
14495TIP3    H164976   4.596   6.628  12.455 -0.2940 -0.2698 -0.5759
14495TIP3    H264977   4.459   6.688  12.475  0.3026  0.9823 -0.1047
14496TIP3   OH264978   3.331   4.210   0.094  0.1573 -0.1035 -0.4051
14496TIP3    H164979   3.405   4.192   0.151  0.3543  0.1280 -0.5869
14496TIP3    H264980   3.367   4.264   0.023 -0.7644  2.8455  1.1837
14497TIP3   OH264981   1.486   5.722   4.270  0.0365 -0.5327 -0.2616
14497TIP3    H164982   1.518   5.753   4.185  0.1179  2.3730  0.7358
14497TIP3    H264983   1.563   5.686   4.313  0.0310 -1.8731 -1.2967
14498TIP3   OH264984   1.789   4.449   2.938  0.6448 -0.5830  0.1016
14498TIP3    H164985   1.786   4.451   3.034 -1.0607  0.7697  0.0960
14498TIP3    H264986   1.745   4.368   2.914 -0.0380 -0.3446  0.4954
14499TIP3   OH264987   2.471   6.122   0.120 -0.0425 -0.5934  0.1479
14499TIP3    H164988   2.466   6.215   0.096  0.5103 -0.1818  1.5076
14499TIP3    H264989   2.564   6.105   0.133 -0.2044 -1.1068  0.7083
14500TIP3   OH264990   2.546   0.827   6.488 -0.1889  0.1735  0.3263
14500TIP3    H164991   2.512   0.906   6.530 -1.1007 -0.6052  1.1189
14500TIP3    H264992   2.622   0.856   6.440 -1.6818  1.9274 -1.1145
14501TIP3   OH264993   3.171   1.868  12.008  0.5230  0.2895 -0.0797
14501TIP3    H164994   3.185   1.936  12.073 -2.3300  1.2613 -0.3462
14501TIP3    H264995   3.090   1.893  11.963  0.7124 -1.9765 -1.9028
14502TIP3   OH264996   5.770   1.074  11.151  0.2969  0.0378 -0.0017
14502TIP3    H164997   5.742   1.165  11.137 -2.2824 -0.8735 -1.3964
14502TIP3    H264998   5.746   1.029  11.070  1.2850 -1.9627  0.7567
14503TIP3   OH264999   4.723   5.976  14.210  0.7998 -0.2218  0.0336
14503TIP3    H165000   4.682   5.890  14.220  0.3075  0.1778  1.6054
14503TIP3    H265001   4.815   5.961  14.230  0.3818 -0.0509  2.3525
14504TIP3   OH265002   2.579   3.317  12.924 -0.3611 -0.2951 -0.2315
14504TIP3    H165003   2.551   3.283  12.839  0.9180  2.5453 -1.9675
14504TIP3    H265004   2.665   3.355  12.907 -0.1047  0.4529  2.3334
14505TIP3   OH265005   5.848   2.630   3.941  0.2410  0.5639 -0.5295
14505TIP3    H165006   5.831   2.547   3.897  1.6977  0.4205 -0.8690
14505TIP3    H265007   5.898   2.681   3.877  1.1251  0.9047  0.3965
14506TIP3   OH265008   3.008   1.335  16.227 -0.1963  0.0631  0.3014
14506TIP3    H165009   2.916   1.319  16.206 -0.0071  0.0921 -0.6229
14506TIP3    H265010   3.045   1.248  16.242 -0.7985  0.1500  2.7357
14507TIP3   OH265011   5.238   5.254   2.913 -0.0674 -0.2625 -0.1701
14507TIP3    H165012   5.188   5.182   2.875  0.4600 -1.0039  0.5156
14507TIP3    H265013   5.275   5.218   2.993 -0.6044  1.0604  0.7133
14508TIP3   OH265014   5.830   0.332  12.404  0.6570  0.3027 -0.3027
14508TIP3    H165015   5.792   0.407  12.358  0.3394 -0.8235 -1.9627
14508TIP3    H265016   5.907   0.367  12.448  1.2549  1.3607 -2.1143
14509TIP3   OH265017   0.903   1.236   3.176  0.4564  0.9932  0.3778
14509TIP3    H165018   0.955   1.163   3.211  2.9516  1.4772 -1.9376
14509TIP3    H265019   0.821   1.195   3.147  0.9492 -0.5101  0.9840
14510TIP3   OH265020   1.168   2.649  14.652  0.1657  0.6014 -0.1386
14510TIP3    H165021   1.222   2.697  14.715 -1.0316  3.6791 -1.2721
14510TIP3    H265022   1.082   2.643  14.694 -0.4476  2.0462 -1.1178
14511TIP3   OH265023   0.981   2.457   1.131 -0.2884 -0.0511 -0.2507
14511TIP3    H165024   0.905   2.504   1.166 -1.2731 -0.9106 -1.1657
14511TIP3    H265025   1.001   2.392   1.199 -0.0290  0.5217  0.2300
14512TIP3   OH265026   1.618   0.137   2.762  0.4806 -0.3985 -0.0913
14512TIP3    H165027   1.582   0.184   2.687 -0.3865 -1.8293 -0.6161
14512TIP3    H265028   1.710   0.164   2.766  0.2924  0.4426 -1.0511
14513TIP3   OH265029   0.614   3.134   4.758 -0.1041 -0.1065 -0.1056
14513TIP3    H165030   0.594   3.137   4.664 -0.1935  0.0617 -0.0820
14513TIP3    H265031   0.528   3.137   4.800 -0.1280 -1.2696 -0.0356
14514TIP3   OH265032   4.209   4.541  15.651  0.0427 -0.0152 -0.0141
14514TIP3    H165033   4.201   4.575  15.740  0.3124 -0.3086  0.1239
14514TIP3    H265034   4.152   4.464  15.649  0.5417 -0.3968  0.1066
14515TIP3   OH265035   0.890   1.237   5.355  0.3224  0.2581  0.5444
14515TIP3    H165036   0.807   1.239   5.403  0.2409 -2.1459  0.6308
14515TIP3    H265037   0.865   1.215   5.265  0.7810  1.0905  0.1936
14516TIP3   OH265038   4.744   1.870  11.246 -0.0667  0.2527 -0.2545
14516TIP3    H165039   4.728   1.940  11.310 -0.3022 -0.8051  0.8744
14516TIP3    H265040   4.838   1.856  11.250  0.0181  0.6689 -0.6750
14517TIP3   OH265041   3.668   5.135  14.235 -0.2326 -0.2180  0.5820
14517TIP3    H165042   3.680   5.042  14.252  0.2313  0.0338  1.7215
14517TIP3    H265043   3.574   5.150  14.247 -0.3502 -0.5734  0.1505
14518TIP3   OH265044   1.745   4.852  12.819 -0.0263  0.4342 -0.2888
14518TIP3    H165045   1.750   4.774  12.873 -0.8982 -0.8992 -2.0567
14518TIP3    H265046   1.836   4.870  12.794  0.2394  0.3474  0.5778
14519TIP3   OH265047   2.359   1.134   1.092  0.0754 -0.6925 -0.2461
14519TIP3    H165048   2.360   1.060   1.153 -2.0583 -0.2960  0.3439
14519TIP3    H265049   2.363   1.211   1.148 -0.4547 -0.3290 -0.7001
14520TIP3   OH265050   0.539   1.630  16.112 -0.0369 -0.0217 -0.3322
14520TIP3    H165051   0.458   1.636  16.061 -0.8123  0.8913  0.9601
14520TIP3    H265052   0.510   1.609  16.201  1.2728 -1.3910 -0.1863
14521TIP3   OH265053   4.077   2.705   2.821 -0.4939  0.3872 -0.0573
14521TIP3    H165054   4.043   2.631   2.871  0.9341 -0.4628 -0.3097
14521TIP3    H265055   4.025   2.780   2.852 -0.0319 -0.1858  2.3286
14522TIP3   OH265056   3.323   1.650  16.958  0.0871  0.3368  0.1594
14522TIP3    H165057   3.361   1.702  16.888  0.1548 -0.4366 -0.3870
14522TIP3    H265058   3.396   1.636  17.019  0.7151 -1.0630 -0.8395
14523TIP3   OH265059   3.317   0.373  12.729 -0.7946  0.2226 -0.5683
14523TIP3    H165060   3.257   0.299  12.743 -0.9529  0.4449 -0.0253
14523TIP3    H265061   3.264   0.450  12.751 -0.6061  0.4903 -1.0586
14524TIP3   OH265062   0.233   0.542  10.906 -0.5766  0.1559  0.3957
14524TIP3    H165063   0.179   0.466  10.926 -2.1784  0.8044 -1.2130
14524TIP3    H265064   0.305   0.507  10.853 -1.1303 -0.2841 -0.0726
14525TIP3   OH265065   1.312   1.863   6.736  0.2268 -0.4901 -0.0026
14525TIP3    H165066   1.402   1.884   6.763 -0.2994  0.6492  0.9583
14525TIP3    H265067   1.308   1.887   6.644  1.4712 -2.5049 -0.6664
14526TIP3   OH265068   2.749   1.288   0.622 -0.3307  0.0407 -0.8435
14526TIP3    H165069   2.821   1.226   0.624 -1.8867 -1.8456 -0.5267
14526TIP3    H265070   2.755   1.328   0.535  2.2224  1.4386 -0.1292
14527TIP3   OH265071   4.880   5.632  14.239 -0.0084 -0.3456 -0.5311
14527TIP3    H165072   4.937   5.690  14.289 -0.2105 -1.1234  0.6395
14527TIP3    H265073   4.881   5.668  14.150  1.5054  0.2378 -0.3072
14528TIP3   OH265074   0.900   6.489  15.093  0.0631 -0.3014  0.1168
14528TIP3    H165075   0.925   6.413  15.145 -1.5516  0.1188  1.6145
14528TIP3    H265076   0.850   6.453  15.020  0.8501 -0.7816 -0.1956
14529TIP3   OH265077   3.027   2.090   5.115 -0.0464 -0.2245 -0.4666
14529TIP3    H165078   3.066   2.112   5.030 -0.9842  0.4428 -0.7419
14529TIP3    H265079   3.085   2.024   5.151  1.1851  0.5340 -0.9815
14530TIP3   OH265080   2.324   6.678  15.944  0.4683  0.3815  0.3836
14530TIP3    H165081   2.254   6.724  15.991 -1.7867 -2.9868  0.7318
14530TIP3    H265082   2.310   6.701  15.852 -0.3665  0.6706  0.5697
14531TIP3   OH265083   1.338   3.462   4.312  0.3126 -0.0115 -0.3875
14531TIP3    H165084   1.334   3.377   4.357 -1.8450  0.3284  0.1697
14531TIP3    H265085   1.297   3.446   4.227  0.5723  0.3211 -0.5783
14532TIP3   OH265086   6.039   2.184  12.909  0.6056  0.5621 -0.6302
14532TIP3    H165087   6.031   2.263  12.857  0.9262 -0.3286 -2.0850
14532TIP3    H265088   6.022   2.113  12.848  0.1664 -0.5032  0.6761
14533TIP3   OH265089   3.132   1.587  13.695 -0.3881 -0.0519  0.3237
14533TIP3    H165090   3.212   1.587  13.642  0.3453 -2.0965  1.3096
14533TIP3    H265091   3.078   1.657  13.658  1.2971  0.5056 -1.2144
14534TIP3   OH265092   3.980   6.143   0.629  0.1908  0.3358 -0.2497
14534TIP3    H165093   4.071   6.168   0.643  0.0821 -0.3723  2.1674
14534TIP3    H265094   3.962   6.078   0.697 -2.2446  0.7852 -0.3708
14535TIP3   OH265095   1.462   1.184   2.502  0.7554  0.0215 -0.1437
14535TIP3    H165096   1.412   1.242   2.558 -0.2918 -0.2998 -0.7080
14535TIP3    H265097   1.396   1.139   2.449  1.6003 -0.9166 -0.4427
14536TIP3   OH265098   3.538   5.141   1.941  0.7001 -0.2751  0.1410
14536TIP3    H165099   3.623   5.108   1.912  0.0362 -0.0170 -2.3138
14536TIP3    H265100   3.507   5.194   1.868 -1.3131  0.1331  1.2266
14537TIP3   OH265101   1.240   3.951   5.077  0.2711  0.0768 -0.3921
14537TIP3    H165102   1.213   4.043   5.082  1.1514  0.4051 -1.2408
14537TIP3    H265103   1.311   3.951   5.013 -2.9279 -1.8879 -4.4189
14538TIP3   OH265104   1.041   0.036  15.221  0.3752  0.2159  0.1612
14538TIP3    H165105   1.104   0.025  15.292 -0.3563 -0.6186  0.6921
14538TIP3    H265106   0.958   0.053  15.264  0.0479  0.3836 -0.5172
14539TIP3   OH265107   1.548   2.996  10.763  0.1857 -0.0828 -0.2664
14539TIP3    H165108   1.636   3.029  10.748  0.1678 -0.6324 -1.8042
14539TIP3    H265109   1.506   3.000  10.677 -1.2818  0.1222  0.4194
14540TIP3   OH265110   4.427   5.472  12.006 -0.7369  0.6626  0.2713
14540TIP3    H165111   4.400   5.439  12.092  1.2635 -0.5663  0.4925
14540TIP3    H265112   4.377   5.553  11.995 -1.4731  0.5571  2.3229
14541TIP3   OH265113   5.352   6.396   2.033  0.1480 -0.2255 -0.1327
14541TIP3    H165114   5.426   6.381   1.974 -0.5428 -2.0997 -0.5934
14541TIP3    H265115   5.278   6.415   1.975 -0.4112 -1.5291  0.1038
14542TIP3   OH265116   2.505   6.399   5.450 -0.1009  0.1882  0.1697
14542TIP3    H165117   2.522   6.391   5.544 -0.7893  1.2489  0.4003
14542TIP3    H265118   2.457   6.320   5.428  0.5969 -0.3644  0.5735
14543TIP3   OH265119   1.572   0.243   5.269  0.0627  0.5206  0.0080
14543TIP3    H165120   1.557   0.258   5.363 -2.8413 -0.0839 -0.2549
14543TIP3    H265121   1.593   0.149   5.264  0.3537  0.5825  0.0644
14544TIP3   OH265122   6.744   1.379  16.635  0.1932  0.1516  0.9055
14544TIP3    H165123   6.751   1.322  16.559 -0.2390  0.3110  0.7365
14544TIP3    H265124   6.834   1.396  16.662  0.3275 -1.7034  1.7936
14545TIP3   OH265125   2.833   3.080   5.697  0.6222  0.6597  0.0630
14545TIP3    H165126   2.929   3.080   5.693  0.6697 -0.1422  0.7524
14545TIP3    H265127   2.811   3.157   5.748  0.9681  0.2850  0.7998
14546TIP3   OH265128   2.486   6.533   0.744  0.7930  0.0829  0.1105
14546TIP3    H165129   2.482   6.603   0.809  3.5157  0.6767 -0.2388
14546TIP3    H265130   2.547   6.469   0.781  0.6503 -0.6566 -0.8789
14547TIP3   OH265131   2.379   4.017   3.237  0.7959 -0.2436 -1.1551
14547TIP3    H165132   2.365   4.091   3.296 -0.5353  0.2613 -2.0489
14547TIP3    H265133   2.473   4.003   3.237  0.9126  0.4146  0.2627
14548TIP3   OH265134   6.167   0.017  15.954 -0.0499  0.2245 -0.0511
14548TIP3    H165135   6.118   0.005  15.873  1.4649 -0.8743 -0.8653
14548TIP3    H265136   6.127  -0.045  16.015  1.9109 -2.7225 -1.5164
14549TIP3   OH265137   6.719   6.433  11.748  0.3805 -0.1155  0.2953
14549TIP3    H165138   6.702   6.495  11.820  0.6257  1.8780 -1.2722
14549TIP3    H265139   6.645   6.444  11.689  0.7494 -0.8971 -0.3260
14550TIP3   OH265140   2.617   1.672   3.454  0.3826  0.1864 -0.2666
14550TIP3    H165141   2.580   1.610   3.518  1.0603  0.4812  0.4315
14550TIP3    H265142   2.683   1.621   3.407 -0.0378  0.0010 -0.6696
14551TIP3   OH265143   0.852   3.365   1.687  0.1513  0.5129 -0.0884
14551TIP3    H165144   0.771   3.397   1.727 -0.8817 -0.7125 -1.0826
14551TIP3    H265145   0.822   3.322   1.606  1.8508  0.4224 -0.6960
14552TIP3   OH265146   6.819   6.381   0.127 -0.1281 -0.1098 -0.0975
14552TIP3    H165147   6.734   6.342   0.112 -0.0320  0.0356 -1.1002
14552TIP3    H265148   6.800   6.470   0.157 -0.3398  0.0742 -0.7561
14553TIP3   OH265149   2.360   5.236   2.588  0.3045 -0.1398  0.1021
14553TIP3    H165150   2.444   5.195   2.609  1.3619  2.2992  1.0057
14553TIP3    H265151   2.328   5.270   2.671 -0.4703  0.9057 -0.5929
14554TIP3   OH265152   1.724   4.923   0.161 -0.6484  0.1924  0.0895
14554TIP3    H165153   1.697   4.834   0.138  1.9888 -1.7361  3.5732
14554TIP3    H265154   1.661   4.951   0.227 -0.6623  0.4128 -0.0124
14555TIP3   OH265155   2.632   1.266  14.996  0.0078 -0.1623 -0.2315
14555TIP3    H165156   2.548   1.308  15.017 -0.0954 -0.0808 -0.7777
14555TIP3    H265157   2.622   1.176  15.027 -1.0614 -0.7450 -2.0819
14556TIP3   OH265158   2.070   1.334  17.083 -0.3092 -0.0859  0.3172
14556TIP3    H165159   2.092   1.408  17.139 -0.9883  0.4878 -0.1569
14556TIP3    H265160   2.059   1.372  16.996 -0.4274 -0.7828  0.0180
14557TIP3   OH265161   3.349   1.333  12.745 -0.4200  0.0960 -0.3870
14557TIP3    H165162   3.398   1.294  12.673  0.5782  1.4659 -0.5048
14557TIP3    H265163   3.392   1.298  12.824  0.8814  1.3723 -0.4902
14558TIP3   OH265164   1.146   4.571   0.957  0.3112 -0.0767 -0.4767
14558TIP3    H165165   1.172   4.497   0.902 -0.2997 -0.6531 -0.0026
14558TIP3    H265166   1.084   4.620   0.903  0.9887  0.3128 -0.9311
14559TIP3   OH265167   1.308   1.474   6.156  0.7355  0.5906 -0.1474
14559TIP3    H165168   1.227   1.436   6.122  0.6835 -0.2997  0.9048
14559TIP3    H265169   1.360   1.493   6.078 -0.3163  0.8153 -0.8202
14560TIP3   OH265170   0.454   5.714  12.406 -0.1071  0.4868 -0.1599
14560TIP3    H165171   0.411   5.779  12.351  0.1962  0.6766 -0.1747
14560TIP3    H265172   0.541   5.750  12.422  0.6244 -0.6073 -1.4698
14561TIP3   OH265173   5.003   4.587   0.986 -0.0824  0.2556 -0.4116
14561TIP3    H165174   4.946   4.628   0.921 -2.3466 -0.8176  0.7565
14561TIP3    H265175   5.085   4.636   0.982 -1.4142  2.5253 -1.5073
14562TIP3   OH265176   6.145   3.068  11.619 -0.7320 -0.2078  0.1601
14562TIP3    H165177   6.194   3.122  11.557 -0.5952 -0.4567  0.0482
14562TIP3    H265178   6.193   2.985  11.620  1.1550  0.7674  2.9290
14563TIP3   OH265179   0.303   3.529  12.148 -0.6935 -0.2802 -0.0515
14563TIP3    H165180   0.268   3.481  12.074  0.0346 -0.1384 -0.4994
14563TIP3    H265181   0.250   3.501  12.223 -1.4324 -0.4191 -0.6252
14564TIP3   OH265182   5.422   4.487   2.531 -0.1987 -0.7301  0.2879
14564TIP3    H165183   5.418   4.435   2.450  1.5372  1.7735 -1.5784
14564TIP3    H265184   5.354   4.553   2.521  1.0835  0.6157  0.0038
14565TIP3   OH265185   1.194   3.057   4.787 -0.2045  0.3869  0.0958
14565TIP3    H165186   1.270   3.101   4.826  1.3084 -1.4848 -0.6020
14565TIP3    H265187   1.180   2.980   4.842 -0.3838 -0.2973 -0.8922
14566TIP3   OH265188   5.244   2.603  13.699  0.2163  0.0554 -0.4801
14566TIP3    H165189   5.339   2.603  13.706  0.2603 -1.6140 -0.6155
14566TIP3    H265190   5.225   2.534  13.635 -1.1195 -0.3982  0.3611
14567TIP3   OH265191   6.260   1.596   4.642 -0.2860 -0.0135 -0.6335
14567TIP3    H165192   6.327   1.661   4.664 -1.0093  0.3203  0.6689
14567TIP3    H265193   6.306   1.532   4.588  1.2011 -0.0121  0.5779
14568TIP3   OH265194   1.315   0.554   3.946 -0.2308  0.3759  0.2508
14568TIP3    H165195   1.290   0.639   3.910  0.4278  0.4689 -0.0049
14568TIP3    H265196   1.235   0.519   3.985 -0.8582  0.4591 -0.9342
14569TIP3   OH265197   6.165   0.351   2.041 -0.1934  0.4518 -0.3169
14569TIP3    H165198   6.168   0.283   1.974 -1.0587 -0.2384  0.3258
14569TIP3    H265199   6.248   0.342   2.088 -1.0245 -1.4043  0.9204
14570TIP3   OH265200   2.999   4.038  14.718  0.0473  0.1029  0.1184
14570TIP3    H165201   3.020   4.072  14.631  0.0816  0.4599  0.2624
14570TIP3    H265202   2.996   3.943  14.707 -0.0745  0.1531 -0.2993
14571TIP3   OH265203   0.767   4.240  14.363  0.2261  0.0826 -0.3234
14571TIP3    H165204   0.746   4.206  14.276  0.7505 -0.3925 -0.2673
14571TIP3    H265205   0.794   4.164  14.413 -1.5613  0.1048  0.7415
14572TIP3   OH265206   5.808   6.087  11.829 -0.4791 -0.4699  0.1909
14572TIP3    H165207   5.722   6.111  11.863  0.2457  2.3868  0.2424
14572TIP3    H265208   5.794   6.078  11.734 -0.9091 -0.4553  0.2509
14573TIP3   OH265209   2.451   0.237   5.878 -0.2213  0.2996  0.4219
14573TIP3    H165210   2.393   0.241   5.802  0.1643 -2.2204 -0.1212
14573TIP3    H265211   2.421   0.159   5.926  4.2191 -2.9637 -1.3883
14574TIP3   OH265212   0.261   6.248  14.948  0.4134  0.4481  0.3556
14574TIP3    H165213   0.247   6.317  15.012 -1.6084 -0.0779  0.5356
14574TIP3    H265214   0.200   6.179  14.974 -3.2377  1.5469 -4.0537
14575TIP3   OH265215   6.779   4.176  13.044  0.0658 -0.5382 -0.2347
14575TIP3    H165216   6.795   4.089  13.009 -1.0364 -1.3027  1.0580
14575TIP3    H265217   6.710   4.164  13.110 -0.6293  1.4186 -0.5148
14576TIP3   OH265218   1.824   5.639   4.574  0.3646  0.0702 -0.4552
14576TIP3    H165219   1.880   5.709   4.607  0.7288 -0.1460 -0.6165
14576TIP3    H265220   1.788   5.598   4.653 -0.4084  0.8789 -0.3616
14577TIP3   OH265221   6.577   3.312   1.882  0.3359  0.3204 -0.0292
14577TIP3    H165222   6.521   3.278   1.812 -0.0512 -0.8303  0.8171
14577TIP3    H265223   6.654   3.346   1.836 -0.8325  1.5483 -1.1800
14578TIP3   OH265224   5.267   0.281   3.724 -0.1843 -0.4735 -0.0674
14578TIP3    H165225   5.293   0.326   3.643 -0.6393 -1.3560 -0.7207
14578TIP3    H265226   5.344   0.230   3.749 -0.3378 -0.8828 -0.4304
14579TIP3   OH265227   2.529   2.070  13.366 -0.3609 -0.2984  0.4320
14579TIP3    H165228   2.541   2.015  13.443  0.8814  1.4990  1.6160
14579TIP3    H265229   2.434   2.075  13.354 -0.5802 -0.5085  1.9392
14580TIP3   OH265230   4.081   2.676   3.960 -0.5081  0.4270  0.6074
14580TIP3    H165231   4.056   2.659   4.050 -0.9668  2.3190  0.8891
14580TIP3    H265232   4.100   2.770   3.958  0.6371  0.2095 -1.0010
14581TIP3   OH265233   0.440   5.753   1.533 -0.1404  0.1467 -0.5256
14581TIP3    H165234   0.404   5.737   1.621 -0.9917 -0.7914 -1.0290
14581TIP3    H265235   0.423   5.846   1.517 -1.4502 -0.0330 -0.3291
14582TIP3   OH265236   3.806   4.149  16.939 -0.3578 -0.1407  0.1680
14582TIP3    H165237   3.846   4.235  16.949  0.9194 -0.5188 -1.3466
14582TIP3    H265238   3.879   4.090  16.926 -1.3244 -1.0472 -1.4945
14583TIP3   OH265239   2.711   0.901   1.285  0.0045 -0.8100  0.0865
14583TIP3    H165240   2.765   0.824   1.266  0.1087 -0.2429 -2.1378
14583TIP3    H265241   2.671   0.882   1.370  1.4414 -2.5101  0.4241
14584TIP3   OH265242   3.491   4.466   1.686 -0.0233 -0.4041 -0.5393
14584TIP3    H165243   3.487   4.490   1.778 -1.9932 -0.4642 -0.5655
14584TIP3    H265244   3.502   4.549   1.639 -1.3348 -0.0800 -0.3318
14585TIP3   OH265245   2.306   3.996   5.061 -0.1493  0.3182 -0.0569
14585TIP3    H165246   2.324   3.914   5.108 -3.3746 -0.2573  0.3749
14585TIP3    H265247   2.313   4.064   5.129  2.1855  0.4327 -0.3423
14586TIP3   OH265248   4.406   3.493  14.857  0.2448 -0.8374 -0.3119
14586TIP3    H165249   4.438   3.406  14.836 -2.5457 -2.0414  0.0970
14586TIP3    H265250   4.472   3.552  14.819  0.5971 -3.0114 -3.4713
14587TIP3   OH265251   2.646   5.165  13.760  0.1862  0.8694 -0.4226
14587TIP3    H165252   2.555   5.192  13.768 -0.5883 -1.1105 -1.6727
14587TIP3    H265253   2.650   5.120  13.675  1.8246 -0.9047  0.5164
14588TIP3   OH265254   3.932   2.755  12.363  0.0894  0.3261 -0.2112
14588TIP3    H165255   4.023   2.777  12.384  0.3820  0.0639 -1.1396
14588TIP3    H265256   3.939   2.689  12.294 -0.7751  1.9873 -2.0069
14589TIP3   OH265257   6.370   0.561  12.701  0.2625 -0.8462 -0.2906
14589TIP3    H165258   6.438   0.573  12.767 -0.4297  0.6528  0.2061
14589TIP3    H265259   6.403   0.605  12.623  0.2502 -0.9106 -0.3329
14590TIP3   OH265260   4.682   4.226   3.444 -0.2610 -0.1004  0.2802
14590TIP3    H165261   4.617   4.282   3.401 -0.4834 -0.4316  0.1760
14590TIP3    H265262   4.733   4.189   3.372 -1.2932 -1.4593  0.2122
14591TIP3   OH265263   3.625   5.548   1.029 -0.2735 -0.1855 -0.3128
14591TIP3    H165264   3.703   5.597   1.003 -1.5097  1.9090 -0.2826
14591TIP3    H265265   3.602   5.496   0.952  0.8427 -0.4587 -0.4786
14592TIP3   OH265266   3.774   2.209  14.908  0.0616  0.1341  0.9699
14592TIP3    H165267   3.862   2.238  14.933  0.6825 -0.4755 -0.3954
14592TIP3    H265268   3.715   2.268  14.955  1.2147  1.3773  0.9273
14593TIP3   OH265269   2.875   1.372  11.207 -0.3849  0.1604  0.4465
14593TIP3    H165270   2.929   1.425  11.148 -0.0954  0.3762  0.9069
14593TIP3    H265271   2.785   1.393  11.182 -0.2852  1.2659  0.9800
14594TIP3   OH265272   1.877   0.537  16.455  0.3979  0.2623  0.0046
14594TIP3    H165273   1.886   0.506  16.545  1.1286 -0.6906 -0.3925
14594TIP3    H265274   1.911   0.466  16.401 -0.6676  0.5383 -1.0708
14595TIP3   OH265275   1.752   6.495  16.902 -0.4868 -0.1340  0.5162
14595TIP3    H165276   1.706   6.465  16.824  1.4970  1.5151 -1.4076
14595TIP3    H265277   1.722   6.585  16.915  0.8265  0.3509  0.3047
14596TIP3   OH265278   5.675   6.714   1.555  0.2577  0.2730  0.0533
14596TIP3    H165279   5.618   6.638   1.553 -0.9873  1.1553  0.8694
14596TIP3    H265280   5.740   6.697   1.486 -0.6267 -1.0128 -0.4989
14597TIP3   OH265281   4.827   0.171   0.146  0.0323 -0.1218 -0.5471
14597TIP3    H165282   4.880   0.093   0.161 -0.5940 -0.3724  0.4288
14597TIP3    H265283   4.777   0.151   0.067 -0.4332 -0.8883 -0.0703
14598TIP3   OH265284   3.040   6.410  12.712 -0.4139  0.2942  0.0038
14598TIP3    H165285   3.091   6.379  12.787 -1.7131 -1.1594  0.3360
14598TIP3    H265286   3.078   6.365  12.637 -1.4157 -1.1322  0.3075
14599TIP3   OH265287   6.396   5.507  16.606  0.1125 -0.1753 -0.8044
14599TIP3    H165288   6.373   5.416  16.626  1.6411 -0.5219 -0.4841
14599TIP3    H265289   6.479   5.500  16.559 -0.9427  0.9278 -2.9439
14600TIP3   OH265290   3.829   1.955   2.752 -0.3964  0.0183 -0.0983
14600TIP3    H165291   3.847   1.867   2.721 -1.2532 -0.2018  0.0236
14600TIP3    H265292   3.866   2.013   2.685  0.4812 -0.4172 -0.0044
14601TIP3   OH265293   4.462   6.228  16.874 -0.2934 -0.1831  0.3646
14601TIP3    H165294   4.522   6.297  16.843  1.7335 -1.6136  0.9147
14601TIP3    H265295   4.495   6.148  16.835 -0.8717 -1.2657  1.9951
14602TIP3   OH265296   1.239   5.555   1.700  0.5371  0.2204  0.0683
14602TIP3    H165297   1.278   5.554   1.787  1.2915 -0.5889 -0.2660
14602TIP3    H265298   1.294   5.615   1.649  1.1124 -0.5951 -0.2890
14603TIP3   OH265299   3.854   0.214  15.215 -0.1740 -0.5750 -0.4114
14603TIP3    H165300   3.791   0.209  15.287 -0.0745  1.8227 -0.0601
14603TIP3    H265301   3.893   0.127  15.211  0.1338 -0.7090  2.7783
14604TIP3   OH265302   6.702   5.168   2.618 -0.2364  0.3373  0.5729
14604TIP3    H165303   6.711   5.106   2.545 -0.7036 -1.0997  1.6832
14604TIP3    H265304   6.672   5.114   2.691 -0.1628  1.8126  1.7320
14605TIP3   OH265305   5.888   4.361   3.158 -0.4841  0.4413 -0.2277
14605TIP3    H165306   5.871   4.288   3.098 -0.1832  0.6150 -0.5275
14605TIP3    H265307   5.928   4.428   3.103 -0.4688  0.7115  0.1121
14606TIP3   OH265308   4.001   5.576   0.690  0.2237  0.6184  0.6231
14606TIP3    H165309   4.030   5.641   0.626 -1.1728  0.3398 -0.3333
14606TIP3    H265310   3.910   5.558   0.666 -0.0552 -0.1408  2.1682
14607TIP3   OH265311   2.727   4.354  17.123  0.2660  0.5352 -0.7967
14607TIP3    H165312   2.709   4.367  17.216 -2.2808 -1.2648 -0.9107
14607TIP3    H265313   2.806   4.300  17.120  0.7195  1.1214  0.2747
14608TIP3   OH265314   0.143   5.988  16.432  0.2092 -0.5335  0.1419
14608TIP3    H165315   0.136   5.900  16.394 -0.2660 -0.3769 -0.1418
14608TIP3    H265316   0.164   6.044  16.357 -1.6214 -0.0816 -0.0940
14609TIP3   OH265317   6.174   4.170   6.228 -0.3329 -0.4599  0.1364
14609TIP3    H165318   6.112   4.238   6.254  2.0767  1.4261  1.4676
14609TIP3    H265319   6.149   4.148   6.138  0.1464  4.0698 -1.3790
14610TIP3   OH265320   2.601   5.662  12.238  0.1453  0.3467  0.0215
14610TIP3    H165321   2.627   5.658  12.330 -0.8500  1.7506  0.4012
14610TIP3    H265322   2.517   5.615  12.234  1.0971 -1.4110 -0.5875
14611TIP3   OH265323   1.996   6.712  16.723 -0.3576 -0.5571  0.5199
14611TIP3    H165324   2.061   6.669  16.779  0.5597 -0.0128 -0.1024
14611TIP3    H265325   2.028   6.698  16.634  0.4012  2.0380  0.3072
14612TIP3   OH265326   0.969   1.193  12.942  0.3680 -0.3920 -0.3601
14612TIP3    H165327   0.955   1.109  12.986 -0.0519 -0.1888 -0.0911
14612TIP3    H265328   0.939   1.178  12.852 -1.6216  0.0055  0.1804
14613TIP3   OH265329   0.578   3.588   5.105 -0.4342  0.4575 -0.5113
14613TIP3    H165330   0.645   3.529   5.139 -0.2562  2.1127  2.3795
14613TIP3    H265331   0.502   3.533   5.091  0.3783 -0.8133 -0.0870
14614TIP3   OH265332   3.048   5.300   1.507  0.2773  0.6516  0.0693
14614TIP3    H165333   3.089   5.382   1.479  0.2947  0.4534 -0.5074
14614TIP3    H265334   3.039   5.308   1.601  2.2306  0.4457  0.3109
14615TIP3   OH265335   1.562   0.424   4.425 -0.1787  0.0349 -0.5523
14615TIP3    H165336   1.611   0.407   4.506 -1.3742 -0.2842  0.1327
14615TIP3    H265337   1.618   0.485   4.376  1.0176 -0.5227  0.0619
14616TIP3   OH265338   5.624   2.633   1.184 -0.3772 -0.7873  0.7342
14616TIP3    H165339   5.552   2.596   1.133 -1.0152  0.0122  1.0288
14616TIP3    H265340   5.581   2.680   1.256  0.5043 -2.5750  2.5449
14617TIP3   OH265341   5.865   0.813  13.338  0.5361  0.1881 -0.2803
14617TIP3    H165342   5.874   0.813  13.242  0.4469  2.0879 -0.3386
14617TIP3    H265343   5.844   0.904  13.359 -0.3212 -0.3801  1.4842
14618TIP3   OH265344   1.131   3.114  12.362  0.2594 -0.2664 -0.0762
14618TIP3    H165345   1.148   3.116  12.268  1.3284  0.6361  0.1262
14618TIP3    H265346   1.214   3.136  12.403 -0.8914  2.4884  1.0030
14619TIP3   OH265347   4.873   4.587   1.825  0.4344  0.0067 -0.9935
14619TIP3    H165348   4.944   4.542   1.778  2.1037  1.4392  0.0491
14619TIP3    H265349   4.875   4.676   1.791  1.2187  0.8875  1.2026
14620TIP3   OH265350   4.985   5.226  12.985  0.0227 -0.2291  0.4237
14620TIP3    H165351   5.048   5.261  12.922 -1.5405 -1.8904 -2.3158
14620TIP3    H265352   4.958   5.301  13.038  3.6741  0.6622  1.2687
14621TIP3   OH265353   6.682   0.201  14.781  0.5058  0.5993 -0.1457
14621TIP3    H165354   6.640   0.286  14.775 -0.5177  0.1463  0.3314
14621TIP3    H265355   6.769   0.219  14.816  0.8575  1.5858 -1.4544
14622TIP3   OH265356   0.456   6.202   3.272  0.4140  0.4965 -0.5877
14622TIP3    H165357   0.390   6.135   3.252  0.3690  0.7286 -1.2333
14622TIP3    H265358   0.529   6.183   3.213  0.4234  0.9830 -0.7390
14623TIP3   OH265359   5.085   4.006   2.704  0.0486 -0.0323 -0.4716
14623TIP3    H165360   5.103   3.973   2.792  0.0960 -0.3471 -0.5970
14623TIP3    H265361   5.049   4.093   2.718 -1.8707 -0.8499 -0.0291
14624TIP3   OH265362   0.839   1.118  12.368  0.0953 -0.6167 -0.3758
14624TIP3    H165363   0.820   1.169  12.447 -0.3441 -0.1345 -0.7849
14624TIP3    H265364   0.756   1.114  12.321  0.6168  0.1409 -1.4045
14625TIP3   OH265365   0.683   2.903  15.904 -0.0354 -0.3204  0.0904
14625TIP3    H165366   0.649   2.814  15.903  0.2205 -0.4423  0.9094
14625TIP3    H265367   0.607   2.958  15.923  0.1771 -0.6000  2.0095
14626TIP3   OH265368   1.736   5.647  14.881  0.2761 -0.6634 -0.7335
14626TIP3    H165369   1.732   5.727  14.829 -0.0996  0.0953  0.4214
14626TIP3    H265370   1.821   5.609  14.859  0.0298 -0.5037 -2.0703
14627TIP3   OH265371   3.775   0.913   3.634  0.0229  0.1816 -0.5838
14627TIP3    H165372   3.856   0.892   3.679  0.9863  0.5460 -2.0629
14627TIP3    H265373   3.732   0.829   3.621  0.5520 -0.1066 -0.4914
14628TIP3   OH265374   0.220   4.630  10.618  0.0014  0.2033  0.5075
14628TIP3    H165375   0.261   4.563  10.673  2.1922  0.5225 -0.6504
14628TIP3    H265376   0.257   4.616  10.531 -0.4265  2.1557 -0.0393
14629TIP3   OH265377   4.483   5.875  15.525  0.1918 -0.2290 -0.2769
14629TIP3    H165378   4.523   5.874  15.612  0.0293  1.6851 -0.1449
14629TIP3    H265379   4.496   5.786  15.492  0.1864 -1.0339  1.7298
14630TIP3   OH265380   4.158   1.490  16.264  0.6275 -0.1141  0.0522
14630TIP3    H165381   4.172   1.402  16.297 -1.8591 -0.3855  0.5772
14630TIP3    H265382   4.147   1.479  16.169 -0.0329 -0.4616  0.1581
14631TIP3   OH265383   6.261   5.797  11.238 -0.4075  0.3741  0.1730
14631TIP3    H165384   6.285   5.889  11.245  1.6951 -0.0326 -0.9601
14631TIP3    H265385   6.262   5.779  11.144  0.5555 -1.1095  0.4280
14632TIP3   OH265386   2.238   4.886  15.565 -0.3095 -0.3713  0.7245
14632TIP3    H165387   2.255   4.804  15.519  0.2713 -0.2526  0.7146
14632TIP3    H265388   2.192   4.860  15.645  0.8733 -0.8386  1.2789
14633TIP3   OH265389   0.911   4.925  11.459 -0.2117  0.3881 -0.1643
14633TIP3    H165390   0.965   4.987  11.509  0.4932 -0.4763  0.1668
14633TIP3    H265391   0.863   4.877  11.526 -1.0319  0.8162 -0.4385
14634TIP3   OH265392   3.733   0.318   0.542  0.6628  0.3571 -0.1776
14634TIP3    H165393   3.770   0.373   0.611 -0.9134  0.0468  0.9645
14634TIP3    H265394   3.727   0.230   0.580  3.7970 -0.8987 -2.2039
14635TIP3   OH265395   1.382   2.490  15.185  0.9142 -0.3724 -0.4682
14635TIP3    H165396   1.454   2.522  15.239  1.0573  0.6542 -1.2378
14635TIP3    H265397   1.337   2.570  15.156 -1.3678 -0.9936  1.0600
14636TIP3   OH265398   2.254   1.992  13.378 -0.4778 -0.4700 -0.1834
14636TIP3    H165399   2.281   1.912  13.334 -0.0166 -0.3312 -0.1602
14636TIP3    H265400   2.212   1.962  13.458 -0.2734 -0.6919 -0.1572
14637TIP3   OH265401   1.517   2.313   0.644  0.2556 -0.0022  0.1303
14637TIP3    H165402   1.541   2.402   0.670 -0.4155  0.3615 -0.4755
14637TIP3    H265403   1.435   2.295   0.689 -0.9596  0.6629 -1.7096
14638TIP3   OH265404   3.994   4.213  15.291 -0.1846  0.2866  0.4260
14638TIP3    H165405   3.996   4.175  15.379  0.4815  0.7793  0.6365
14638TIP3    H265406   3.901   4.217  15.268 -0.2948 -3.3928 -0.4777
14639TIP3   OH265407   6.518   5.588  14.503  0.1358  0.2813 -0.3932
14639TIP3    H165408   6.492   5.674  14.472 -0.1026 -0.1782 -1.5017
14639TIP3    H265409   6.570   5.606  14.582  0.3801  1.4482 -0.7964
14640TIP3   OH265410   5.773   3.484  10.481 -0.2418 -0.5784 -0.0943
14640TIP3    H165411   5.720   3.499  10.403 -0.2254  0.6128  0.1108
14640TIP3    H265412   5.777   3.388  10.489  0.0762 -0.7323 -1.7554
14641TIP3   OH265413   0.817   0.511  15.799  0.3866 -0.0694  0.6546
14641TIP3    H165414   0.815   0.458  15.879  2.3987  0.8557  1.3903
14641TIP3    H265415   0.890   0.475  15.749  2.6051  2.5814  1.7040
14642TIP3   OH265416   6.446   2.978  16.049 -0.5498 -0.5465  0.3317
14642TIP3    H165417   6.368   2.969  15.995 -2.1555  1.2015  2.2282
14642TIP3    H265418   6.413   2.984  16.138  1.7575  0.1992  1.2049
14643TIP3   OH265419   5.203   3.922  14.534  0.1458  0.0587  0.6015
14643TIP3    H165420   5.277   3.978  14.511 -1.2307  1.9826  0.5782
14643TIP3    H265421   5.238   3.833  14.533  2.0010  0.7439 -1.1735
14644TIP3   OH265422   1.457   2.587   2.074 -0.1381  0.2057 -0.1336
14644TIP3    H165423   1.405   2.507   2.084  1.4049 -0.7004  1.1767
14644TIP3    H265424   1.457   2.626   2.161  0.7445  0.5882 -0.2963
14645TIP3   OH265425   5.898   1.104  15.760  0.0645 -0.1648  0.2910
14645TIP3    H165426   5.872   1.057  15.681 -1.2565  0.6651  0.2142
14645TIP3    H265427   5.875   1.195  15.742  0.9508  0.2350  1.1347
14646TIP3   OH265428   3.484   3.497  13.659 -0.4719 -0.2609  0.2842
14646TIP3    H165429   3.421   3.567  13.677 -0.8094  0.2182 -2.2897
14646TIP3    H265430   3.430   3.425  13.625  0.1978 -0.3474 -0.6485
14647TIP3   OH265431   4.994   2.722  10.668  0.3579 -0.9451 -0.1325
14647TIP3    H165432   4.905   2.714  10.702  0.2288 -0.7269 -0.4133
14647TIP3    H265433   5.010   2.639  10.623  0.4282 -1.1252  0.2210
14648TIP3   OH265434   6.111   1.554  10.857 -0.3347 -0.7748 -0.4941
14648TIP3    H165435   6.137   1.623  10.796  0.2002 -1.3760 -0.9600
14648TIP3    H265436   6.023   1.528  10.828 -0.3772 -0.5655 -0.5565
14649TIP3   OH265437   3.886   5.772   4.778  0.0483  0.1807  0.5372
14649TIP3    H165438   3.891   5.679   4.759 -0.6689  0.5622 -1.8650
14649TIP3    H265439   3.974   5.805   4.762  0.4164 -0.1284  1.8389
14650TIP3   OH265440   0.569   1.845  12.397  0.2007  0.5431  0.2596
14650TIP3    H165441   0.655   1.812  12.422  0.0026  1.1415  1.8975
14650TIP3    H265442   0.509   1.800  12.456 -0.3419  1.8306  0.7364
14651TIP3   OH265443   2.004   6.384   0.983  0.4726 -0.1959 -0.0858
14651TIP3    H165444   1.932   6.324   1.002  1.7631 -2.2800 -1.2878
14651TIP3    H265445   1.962   6.462   0.947 -1.2307 -0.7832  0.5331
14652TIP3   OH265446   2.022   3.135   0.308 -0.1572  0.1062 -1.3080
14652TIP3    H165447   1.951   3.071   0.303  1.3915 -1.7080 -1.3973
14652TIP3    H265448   1.989   3.212   0.262 -1.5841 -1.1530 -2.4704
14653TIP3   OH265449   0.851   3.935  12.578  0.0817  0.1674  0.4442
14653TIP3    H165450   0.797   3.906  12.652  0.2962 -2.9204 -0.4974
14653TIP3    H265451   0.789   3.976  12.518 -0.9425 -1.5469  0.2735
14654TIP3   OH265452   0.632   0.179  16.277  0.1564  0.2894 -0.1176
14654TIP3    H165453   0.566   0.148  16.215 -1.4081  1.0651  1.0910
14654TIP3    H265454   0.640   0.272  16.258  1.7323  0.0219 -0.9459
14655TIP3   OH265455   1.543   1.474  16.393 -0.1420  0.1831 -0.3594
14655TIP3    H165456   1.464   1.522  16.368 -0.0171 -0.5908 -2.4866
14655TIP3    H265457   1.512   1.403  16.449 -0.5779  1.4424  1.0591
14656TIP3   OH265458   0.175   3.055  14.029  0.2110 -0.0307 -0.0262
14656TIP3    H165459   0.175   3.140  14.073 -2.1076  0.0451 -0.0269
14656TIP3    H265460   0.187   2.991  14.099 -0.8258  0.2124  0.3995
14657TIP3   OH265461   6.094   2.221   2.596  0.2459  0.0409  0.3037
14657TIP3    H165462   6.185   2.243   2.614  0.2821 -0.4044  0.6704
14657TIP3    H265463   6.048   2.305   2.601  0.3382  0.0362  1.9802
14658TIP3   OH265464   0.504   0.078  12.717  0.6162 -0.6716  0.5860
14658TIP3    H165465   0.550   0.063  12.799  1.0148 -1.2670  0.2623
14658TIP3    H265466   0.549   0.021  12.654 -0.1196 -0.7351  0.1126
14659TIP3   OH265467   3.140   1.759   4.698  0.2432  0.0894  0.2709
14659TIP3    H165468   3.102   1.847   4.702 -1.2432 -0.5161  0.2200
14659TIP3    H265469   3.072   1.702   4.733  0.5294 -1.2250 -1.1761
14660TIP3   OH265470   5.269   1.669   5.138  0.4500 -0.3110 -0.5542
14660TIP3    H165471   5.344   1.683   5.196  1.0322  2.5395 -1.7756
14660TIP3    H265472   5.194   1.702   5.187 -0.3750 -4.0440  1.0565
14661TIP3   OH265473   6.067   4.597  17.166 -0.1116  0.5582  0.7237
14661TIP3    H165474   5.974   4.575  17.165  0.1396 -0.5748  0.8719
14661TIP3    H265475   6.086   4.627  17.078 -0.3866 -0.2177  0.3962
14662TIP3   OH265476   3.515   4.479   0.712  0.3607  0.5994  0.1779
14662TIP3    H165477   3.601   4.503   0.677  0.6713 -0.2214  0.3539
14662TIP3    H265478   3.457   4.483   0.636  0.5682  1.0778  0.0382
14663TIP3   OH265479   4.217   0.580   1.796 -0.3864 -0.2352  0.4899
14663TIP3    H165480   4.234   0.494   1.758  2.3159  0.2104  0.5074
14663TIP3    H265481   4.239   0.571   1.889  0.0356  0.4798  0.4684
14664TIP3   OH265482   6.033   1.431  11.920  0.0902  0.1505  0.2932
14664TIP3    H165483   6.048   1.508  11.864  1.3474  0.6819  1.2989
14664TIP3    H265484   5.978   1.373  11.867 -1.1045  1.8358 -0.4066
14665TIP3   OH265485   4.324   1.103  14.718  0.2789 -0.1513  0.8211
14665TIP3    H165486   4.387   1.134  14.784  0.7485  0.1919  0.2147
14665TIP3    H265487   4.369   1.114  14.635 -0.6682  0.2983  0.3596
14666TIP3   OH265488   3.715   3.551   5.839  0.3938  0.5573 -0.1121
14666TIP3    H165489   3.696   3.587   5.926  2.1566  2.5836 -0.4562
14666TIP3    H265490   3.665   3.607   5.779  0.8336  0.5378 -0.5016
14667TIP3   OH265491   2.231   3.152   4.670  0.3906 -0.0569 -0.3262
14667TIP3    H165492   2.316   3.127   4.706  0.6182 -1.2044 -1.5929
14667TIP3    H265493   2.240   3.246   4.653  1.6927 -0.3100 -1.1748
14668TIP3   OH265494   2.607   4.329  16.351 -0.2055 -0.2706 -0.1771
14668TIP3    H165495   2.698   4.356  16.360  1.3512 -3.5328 -3.3327
14668TIP3    H265496   2.568   4.395  16.293  0.6352  0.2975 -0.1102
14669TIP3   OH265497   2.497   5.380   3.277  0.7643 -0.1941 -0.0569
14669TIP3    H165498   2.508   5.417   3.365  0.5468 -0.4100  0.0609
14669TIP3    H265499   2.447   5.446   3.229 -1.0686 -1.0227  0.6311
14670TIP3   OH265500   4.868   5.786   0.700  0.2058  0.0498 -0.7206
14670TIP3    H165501   4.925   5.756   0.770  1.2252  2.4994 -0.3962
14670TIP3    H265502   4.784   5.742   0.716  1.1030 -1.2368  0.6194
14671TIP3   OH265503   1.267   0.023   2.071  0.4471  0.3542  0.6898
14671TIP3    H165504   1.176  -0.005   2.063  0.8733 -2.2473  3.1630
14671TIP3    H265505   1.316  -0.041   2.019  0.9578  1.4726 -0.2585
14672TIP3   OH265506   4.177   1.256  12.404 -0.2778 -0.2053 -0.1160
14672TIP3    H165507   4.148   1.165  12.391  2.6548 -1.6727  2.3179
14672TIP3    H265508   4.130   1.284  12.482 -0.6972  0.1562 -0.4949
14673TIP3   OH265509   2.257   0.673  12.792 -0.0447  0.0484 -0.7093
14673TIP3    H165510   2.352   0.685  12.786 -0.0547 -0.2547 -1.5518
14673TIP3    H265511   2.224   0.760  12.816  0.4684  0.0737 -0.0544
14674TIP3   OH265512   3.373   1.822   0.899 -0.3109 -0.1148  0.8301
14674TIP3    H165513   3.434   1.890   0.870 -3.5774  2.8420  0.2051
14674TIP3    H265514   3.353   1.843   0.990 -0.9333 -0.5934  0.8170
14675TIP3   OH265515   4.274   2.200   1.870 -0.0056  0.3214  0.5394
14675TIP3    H165516   4.260   2.292   1.894  0.1601  0.1237  1.4452
14675TIP3    H265517   4.369   2.191   1.867  0.1858  1.3641 -4.4247
14676TIP3   OH265518   5.919   4.635  12.097 -0.8751  0.4299  0.0320
14676TIP3    H165519   5.921   4.610  12.189 -1.0128  2.2483  0.5723
14676TIP3    H265520   6.010   4.626  12.067 -1.1437 -2.0536 -0.2585
14677TIP3   OH265521   1.326   6.216   6.235 -0.0962  0.0625 -0.1431
14677TIP3    H165522   1.241   6.257   6.217  0.1722  1.0711  0.8112
14677TIP3    H265523   1.359   6.262   6.313  0.6756 -1.3006  0.3545
14678TIP3   OH265524   3.078   0.496  14.835  0.2485  0.3091 -0.2381
14678TIP3    H165525   2.997   0.457  14.801  0.9961 -0.7900 -0.8406
14678TIP3    H265526   3.136   0.421  14.852 -0.3025  0.6361  4.3929
14679TIP3   OH265527   2.332   2.198  14.669 -0.2120  0.5406 -0.3429
14679TIP3    H165528   2.376   2.280  14.692 -0.2402  0.1865  1.0268
14679TIP3    H265529   2.388   2.160  14.601  0.4151  1.1377 -0.1779
14680TIP3   OH265530   5.973   4.360  16.640  0.2394  0.3613  0.2941
14680TIP3    H165531   6.050   4.417  16.635 -0.4100  1.2225 -0.1115
14680TIP3    H265532   5.899   4.419  16.626 -0.5301 -0.3704  1.2011
14681TIP3   OH265533   3.640   2.458  14.382  0.3476  0.6641 -0.2487
14681TIP3    H165534   3.573   2.410  14.430  0.4806  0.9860  0.2643
14681TIP3    H265535   3.700   2.490  14.449  1.2332  0.0565 -0.7252
14682TIP3   OH265536   6.496   1.749  14.203 -0.2070 -0.2062 -0.1026
14682TIP3    H165537   6.483   1.793  14.119 -0.1583  0.1212  0.0573
14682TIP3    H265538   6.587   1.721  14.202 -0.8404 -2.4771 -1.2117
14683TIP3   OH265539   2.824   3.547   4.604 -0.3680 -0.1255 -0.0776
14683TIP3    H165540   2.898   3.532   4.545 -2.5243 -0.3719 -2.9231
14683TIP3    H265541   2.823   3.642   4.618  0.9247 -0.2030  0.7062
14684TIP3   OH265542   4.323   4.753   5.360 -0.4361 -0.7629  0.0958
14684TIP3    H165543   4.284   4.786   5.441 -0.0663  1.0499 -0.4269
14684TIP3    H265544   4.309   4.658   5.364  0.0716 -0.8148  2.5405
14685TIP3   OH265545   2.886   3.952  13.761  0.0512  0.3764  0.2325
14685TIP3    H165546   2.928   3.877  13.720  1.6040  0.2857  1.9153
14685TIP3    H265547   2.938   4.027  13.732  1.6643  0.2396  2.5006
14686TIP3   OH265548   5.579   5.285  13.005  0.0345 -0.3869 -0.1858
14686TIP3    H165549   5.597   5.194  13.030 -1.5439 -1.1721 -1.6485
14686TIP3    H265550   5.576   5.282  12.909  0.3461  1.3203 -0.2779
14687TIP3   OH265551   5.959   1.868   4.894  0.8975 -0.0723 -0.4393
14687TIP3    H165552   5.962   1.889   4.801  3.5279 -0.5160 -0.5282
14687TIP3    H265553   6.046   1.835   4.914 -0.0426 -1.4037  1.8793
14688TIP3   OH265554   0.444   4.357  16.124 -0.5936  0.1029 -0.3755
14688TIP3    H165555   0.400   4.305  16.191  0.4696  0.9253  1.0112
14688TIP3    H265556   0.525   4.386  16.165  0.6024 -0.2054 -2.3762
14689TIP3   OH265557   3.104   0.691   2.434 -0.0827  0.2839  0.0954
14689TIP3    H165558   3.016   0.717   2.463 -0.7737  1.0282 -2.4381
14689TIP3    H265559   3.162   0.720   2.505 -1.6962  1.3688  1.0399
14690TIP3   OH265560   5.848   0.303  11.258  0.3801 -0.2726  0.1530
14690TIP3    H165561   5.896   0.242  11.314  1.4378 -0.2353 -0.6888
14690TIP3    H265562   5.904   0.380  11.252 -0.0710  0.0287 -0.3464
14691TIP3   OH265563   5.741   5.943  14.278 -0.1266  0.0903  0.1606
14691TIP3    H165564   5.738   5.881  14.205  1.0516 -0.9674  0.9563
14691TIP3    H265565   5.709   6.025  14.241  0.5956 -0.3618 -1.6009
14692TIP3   OH265566   3.497   6.310   2.572 -0.1975 -0.2696 -0.5347
14692TIP3    H165567   3.500   6.405   2.586 -1.8027 -0.0301 -1.5374
14692TIP3    H265568   3.498   6.273   2.661  0.7791  0.6448 -0.1374
14693TIP3   OH265569   1.565   3.301   3.731 -0.4191  0.4050  0.0356
14693TIP3    H165570   1.560   3.254   3.648 -1.0659 -0.8007  0.7258
14693TIP3    H265571   1.562   3.393   3.707 -0.3600  0.0830 -1.2830
14694TIP3   OH265572   2.231   1.250  12.442 -0.6511 -0.0256  0.9748
14694TIP3    H165573   2.211   1.157  12.445 -0.0954 -0.1150  2.7931
14694TIP3    H265574   2.301   1.257  12.377 -0.8426 -0.8249  0.6644
14695TIP3   OH265575   0.217   1.020   4.115 -0.2024 -0.3525  0.7719
14695TIP3    H165576   0.196   1.110   4.089 -1.2036 -0.7541  0.1538
14695TIP3    H265577   0.147   0.997   4.177  0.3987 -0.5007  1.4074
14696TIP3   OH265578   3.375   3.307   1.643 -0.1617 -0.1548 -0.0711
14696TIP3    H165579   3.343   3.224   1.608  0.4366 -0.0400 -0.9232
14696TIP3    H265580   3.389   3.361   1.565  1.3395  0.0616  0.3251
14697TIP3   OH265581   3.116   4.861  14.843 -0.6710 -0.0720 -0.0077
14697TIP3    H165582   3.064   4.810  14.905 -1.2563 -0.0456 -0.4708
14697TIP3    H265583   3.176   4.911  14.898  0.8055 -2.1745  0.4161
14698TIP3   OH265584   3.596   4.976   5.312 -0.3733 -0.3782  0.1746
14698TIP3    H165585   3.504   4.953   5.322 -0.0189 -2.3875 -0.8156
14698TIP3    H265586   3.641   4.924   5.379  0.1495 -0.1856 -0.0229
14699TIP3   OH265587   3.508   3.888   2.562 -0.0882 -0.1738 -0.2369
14699TIP3    H165588   3.588   3.865   2.609  0.4236 -1.4389 -1.6213
14699TIP3    H265589   3.535   3.956   2.501 -0.5526  0.8407  0.6589
14700TIP3   OH265590   3.404   1.614  12.866  0.0259  0.5271 -0.0618
14700TIP3    H165591   3.412   1.531  12.818 -0.2081  0.3062  0.2740
14700TIP3    H265592   3.317   1.610  12.907  1.2345 -0.5537  2.6719
14701TIP3   OH265593   2.532   6.613   2.346 -0.1726  0.0791  1.1316
14701TIP3    H165594   2.612   6.657   2.373  0.1055  1.7229 -1.9590
14701TIP3    H265595   2.561   6.539   2.292 -0.6595  1.1737 -0.7113
14702TIP3   OH265596   4.869   2.824   1.905  0.4949 -0.0203  0.2358
14702TIP3    H165597   4.906   2.738   1.881  0.2449 -0.3037  0.8434
14702TIP3    H265598   4.794   2.803   1.961 -0.3530  0.5591 -0.6480
14703TIP3   OH265599   6.274   1.964   3.381  0.5595  0.1520 -0.4750
14703TIP3    H165600   6.237   1.884   3.416 -0.6053  2.0342  3.0858
14703TIP3    H265601   6.199   2.022   3.369  1.4493  1.0141 -2.1708
14704TIP3   OH265602   6.138   5.986  16.357 -0.9934  0.5258 -0.3330
14704TIP3    H165603   6.213   5.956  16.408  0.4368  1.4022 -1.8034
14704TIP3    H265604   6.123   6.076  16.386 -2.4680 -0.1149  0.9972
14705TIP3   OH265605   2.166   4.163  13.178 -0.5437  0.2605  0.0760
14705TIP3    H165606   2.257   4.173  13.205 -0.1281  0.5902 -1.3902
14705TIP3    H265607   2.159   4.211  13.096 -1.7866 -0.5947 -0.3531
14706TIP3   OH265608   4.977   1.689   1.688 -0.4387  0.0373 -0.3224
14706TIP3    H165609   4.958   1.653   1.774  0.3029 -0.6732 -0.4400
14706TIP3    H265610   4.948   1.780   1.692 -1.3972 -0.2890  0.3205
14707TIP3   OH265611   5.115   0.259   1.829 -0.2256  0.8807  0.1232
14707TIP3    H165612   5.180   0.218   1.887  0.9091  2.1795 -0.1927
14707TIP3    H265613   5.113   0.351   1.856 -0.1491  1.3715 -1.4668
14708TIP3   OH265614   3.327   5.134  17.144 -0.3784  0.4917  0.3994
14708TIP3    H165615   3.299   5.175  17.226  0.4179  2.2453 -0.1494
14708TIP3    H265616   3.277   5.180  17.076 -1.3760 -1.2525 -0.1093
14709TIP3   OH265617   2.593   2.934  15.414  0.4614 -0.3996 -0.0546
14709TIP3    H165618   2.635   2.890  15.340 -2.3176 -1.1309 -1.3267
14709TIP3    H265619   2.570   3.021  15.381  1.7569  0.3511  0.9369
14710TIP3   OH265620   3.263   2.273   0.229  0.3080 -0.2236 -0.1877
14710TIP3    H165621   3.172   2.303   0.234  0.0744 -1.0206  0.5267
14710TIP3    H265622   3.315   2.351   0.252 -0.1532  0.3732 -1.0996
14711TIP3   OH265623   3.039   2.723   0.771  0.1190 -0.1554 -0.1374
14711TIP3    H165624   3.109   2.760   0.824 -0.5509 -0.6305  1.1322
14711TIP3    H265625   2.959   2.737   0.823 -0.2835 -2.4641 -0.0132
14712TIP3   OH265626   2.603   1.963   0.378 -0.1936 -0.2993  0.0581
14712TIP3    H165627   2.540   1.952   0.449  0.3257 -1.0557  0.4207
14712TIP3    H265628   2.638   2.051   0.391  0.7600 -0.8320  1.5043
14713TIP3   OH265629   1.068   3.354  12.057 -0.1559  0.3131  0.1916
14713TIP3    H165630   1.136   3.364  12.123 -0.2776 -1.3384  0.6043
14713TIP3    H265631   0.986   3.359  12.107 -0.2486 -3.0448  0.6235
14714TIP3   OH265632   0.123   3.127  12.644  0.5957 -0.2339  0.3383
14714TIP3    H165633   0.214   3.138  12.672  0.6374 -0.1631  0.1758
14714TIP3    H265634   0.081   3.083  12.718  0.8364 -0.5623  0.2827
14715TIP3   OH265635   1.630   3.357   5.964 -0.1395  1.1341 -0.2850
14715TIP3    H165636   1.663   3.308   6.039  0.1889  0.2109 -1.0172
14715TIP3    H265637   1.574   3.425   6.003  2.1404  2.4225  0.9738
14716TIP3   OH265638   2.387   0.041   4.830 -0.0882 -0.8095 -0.0601
14716TIP3    H165639   2.308  -0.012   4.834 -0.4942 -0.1368  2.8981
14716TIP3    H265640   2.357   0.127   4.802 -0.0255 -1.0735 -0.9932
14717TIP3   OH265641   6.493   4.155   1.087  0.0573 -0.1871 -0.3696
14717TIP3    H165642   6.423   4.119   1.033 -1.9965  1.3540  1.1067
14717TIP3    H265643   6.491   4.249   1.069  1.1192  0.0139  0.4177
14718TIP3   OH265644   6.411   1.513   1.367  0.1227 -0.1829 -0.2026
14718TIP3    H165645   6.407   1.559   1.283  3.0592 -0.6152 -0.6892
14718TIP3    H265646   6.359   1.434   1.353 -1.6614  1.0147 -0.6719
14719TIP3   OH265647   4.169   3.100   3.719 -0.3843 -0.1750 -0.2025
14719TIP3    H165648   4.175   3.057   3.634 -0.1099 -1.6790  0.5454
14719TIP3    H265649   4.259   3.113   3.746 -0.4731 -0.1843  0.0995
14720TIP3   OH265650   6.351   3.841  15.232  0.4070 -0.4611  0.3138
14720TIP3    H165651   6.286   3.887  15.284 -1.6716 -2.8198 -0.0285
14720TIP3    H265652   6.343   3.877  15.144  0.1557 -0.1479  0.4659
14721TIP3   OH265653   1.252   2.187   3.299 -0.1078  0.1544 -0.0859
14721TIP3    H165654   1.258   2.242   3.377 -1.5123  0.7333 -0.3582
14721TIP3    H265655   1.340   2.152   3.287  0.2384  0.4300  1.4856
14722TIP3   OH265656   2.433   5.491   5.592  0.6701 -0.0367  0.5620
14722TIP3    H165657   2.512   5.531   5.555  0.6880 -1.3674 -0.9701
14722TIP3    H265658   2.453   5.397   5.595 -1.3625 -0.6079 -1.3090
14723TIP3   OH265659   5.060   4.405  11.199  0.1744  0.0942  0.3054
14723TIP3    H165660   5.038   4.346  11.127  0.0596 -1.6869  1.7057
14723TIP3    H265661   5.146   4.440  11.177  0.6587 -1.3208 -0.1814
14724TIP3   OH265662   1.623   4.799   4.874 -0.0598  0.0433  0.1352
14724TIP3    H165663   1.653   4.827   4.788  1.0180  0.3912  0.6120
14724TIP3    H265664   1.599   4.707   4.863  0.0928  0.0825 -0.5285
14725TIP3   OH265665   6.180   6.565  15.661 -0.4883  0.5456 -0.1307
14725TIP3    H165666   6.128   6.507  15.716 -1.5169  0.9782 -0.6261
14725TIP3    H265667   6.270   6.534  15.671 -0.7159  0.3171  1.4084
14726TIP3   OH265668   2.779   2.426   6.183  0.1288  0.2867 -0.7021
14726TIP3    H165669   2.816   2.352   6.134  1.4856 -0.5401  1.3897
14726TIP3    H265670   2.793   2.502   6.126  0.3306 -0.7993 -2.1675
14727TIP3   OH265671   0.622   6.798   1.627 -0.3843  0.0532  0.4835
14727TIP3    H165672   0.616   6.765   1.717 -1.2069  0.2114  0.5017
14727TIP3    H265673   0.540   6.846   1.614 -0.2745  0.0341 -0.3488
14728TIP3   OH265674   4.848   3.777  12.011 -0.3476  0.2769  0.6013
14728TIP3    H165675   4.765   3.774  11.963  0.4984  2.1831 -1.1738
14728TIP3    H265676   4.893   3.696  11.987 -0.7578  0.3155 -0.3251
14729TIP3   OH265677   2.977   6.305   4.092 -0.3063 -0.1402  0.4313
14729TIP3    H165678   3.003   6.343   4.008 -3.0036 -0.5033 -0.6867
14729TIP3    H265679   2.955   6.380   4.147  0.3233  0.0642  0.4116
14730TIP3   OH265680   1.655   0.283  11.108 -0.3825 -0.7072 -0.7218
14730TIP3    H165681   1.624   0.211  11.053  2.2266 -2.2228 -0.4026
14730TIP3    H265682   1.744   0.300  11.078  0.4277 -0.2040  1.6750
14731TIP3   OH265683   0.397   4.752   5.507  0.0376 -0.2049 -0.1765
14731TIP3    H165684   0.330   4.750   5.576 -0.3966 -0.4264 -0.5965
14731TIP3    H265685   0.362   4.695   5.439  0.4155  0.0955 -0.6239
14732TIP3   OH265686   1.479   3.664  12.452  0.0251 -0.0914  0.0728
14732TIP3    H165687   1.506   3.572  12.459  0.6388  0.0973  0.2901
14732TIP3    H265688   1.561   3.712  12.438 -0.2258  0.4767  0.4996
14733TIP3   OH265689   5.098   3.347  14.911  0.4410  0.2497  0.3217
14733TIP3    H165690   5.062   3.275  14.963  1.8347  0.4580  1.6471
14733TIP3    H265691   5.150   3.304  14.843  1.0139 -0.0357  0.9205
14734TIP3   OH265692   3.981   4.506  15.099  0.4889 -0.0864  0.4330
14734TIP3    H165693   4.069   4.478  15.077  0.0203 -1.1595 -0.1444
14734TIP3    H265694   3.924   4.441  15.057 -0.5161 -0.9582  2.9878
14735TIP3   OH265695   0.820   1.605  16.390  0.5199  0.2205  0.0652
14735TIP3    H165696   0.797   1.692  16.358 -1.3602 -1.4055 -3.7284
14735TIP3    H265697   0.762   1.590  16.465 -0.8727  1.3970 -0.7233
14736TIP3   OH265698   4.720   0.193  10.459  0.2784 -0.2982 -0.0760
14736TIP3    H165699   4.667   0.237  10.525  0.8071  0.2424 -0.0007
14736TIP3    H265700   4.698   0.100  10.468  0.1470 -0.2012  0.6757
14737TIP3   OH265701   3.933   4.890   2.511 -0.3243 -0.4263 -0.3573
14737TIP3    H165702   3.943   4.982   2.484 -1.1161 -0.3413 -0.3825
14737TIP3    H265703   3.979   4.885   2.595  0.0461 -0.0981 -0.5359
14738TIP3   OH265704   5.052   5.692  14.987  0.4810  0.0968 -0.2900
14738TIP3    H165705   5.135   5.733  14.964 -0.0748  1.0516 -0.6588
14738TIP3    H265706   5.037   5.628  14.917 -0.0079  1.2775 -1.3040
14739TIP3   OH265707   3.885   0.420   5.964 -0.2238 -0.5705 -0.3889
14739TIP3    H165708   3.955   0.378   6.013 -1.9571 -0.6936  2.1240
14739TIP3    H265709   3.903   0.514   5.973 -0.5713 -0.5878  0.6083
14740TIP3   OH265710   1.415   0.082  15.310  0.4782 -0.2903  0.3253
14740TIP3    H165711   1.502   0.047  15.293 -0.2661 -1.8132 -0.5287
14740TIP3    H265712   1.370   0.075  15.226 -0.7262 -0.3021  0.9531
14741TIP3   OH265713   3.672   6.448  16.838  0.5209  0.3073  0.0156
14741TIP3    H165714   3.740   6.471  16.775 -1.0735  4.3033 -0.5490
14741TIP3    H265715   3.599   6.417  16.784  0.0761  1.1579  0.1225
14742TIP3   OH265716   6.801   5.646  14.615 -0.0777 -0.1948  0.0105
14742TIP3    H165717   6.807   5.741  14.611  1.7173 -0.2841 -0.2689
14742TIP3    H265718   6.825   5.617  14.527 -0.6720 -0.9213  0.0701
14743TIP3   OH265719   4.736   2.035   4.970 -0.2212 -0.0456  0.1390
14743TIP3    H165720   4.750   2.040   5.065 -0.6474  0.3996  0.1813
14743TIP3    H265721   4.822   2.055   4.932  0.2819 -1.5352  0.4324
14744TIP3   OH265722   3.857   6.406   0.074 -0.2868  0.1838  0.4348
14744TIP3    H165723   3.839   6.362  -0.009 -0.4439  0.3257  0.3949
14744TIP3    H265724   3.832   6.342   0.140 -0.8237  0.3354  0.3795
14745TIP3   OH265725   4.137   3.126  12.655 -0.3080  0.3419  0.2949
14745TIP3    H165726   4.120   3.138  12.562  1.7116 -1.1024 -0.3280
14745TIP3    H265727   4.051   3.112  12.694 -1.1082 -0.0007 -1.5066
14746TIP3   OH265728   4.290   3.530   1.487  0.0070 -0.1871  0.5039
14746TIP3    H165729   4.359   3.551   1.425 -0.4278 -0.5248 -0.1053
14746TIP3    H265730   4.208   3.542   1.438 -0.5018  2.2526  1.7886
14747TIP3   OH265731   0.195   1.084  12.937 -0.0235 -0.4213  0.1368
14747TIP3    H165732   0.124   1.140  12.968 -0.5666 -0.6660 -0.6156
14747TIP3    H265733   0.164   1.054  12.851  0.6707 -1.1231  0.1320
14748TIP3   OH265734   3.715   2.321  16.238  0.0641  0.7886 -0.2933
14748TIP3    H165735   3.802   2.359  16.223  0.4543 -0.2686 -0.8395
14748TIP3    H265736   3.694   2.345  16.328  1.2006  0.5507  0.0613
14749TIP3   OH265737   3.562   0.822  15.073 -0.4771  0.5998 -0.3592
14749TIP3    H165738   3.641   0.828  15.126  0.4567  0.0275 -1.6671
14749TIP3    H265739   3.540   0.729  15.073  0.4399  0.3439 -2.2422
14750TIP3   OH265740   1.024   5.971   1.448 -0.3826  0.0253 -0.2147
14750TIP3    H165741   1.023   5.888   1.402 -1.2328 -0.6793  1.0171
14750TIP3    H265742   1.088   6.024   1.401  2.5039 -2.3523  0.7701
14751TIP3   OH265743   2.823   2.207  11.676  0.3847 -0.1647 -0.6382
14751TIP3    H165744   2.797   2.211  11.584  0.6223 -1.1580 -0.7576
14751TIP3    H265745   2.918   2.215  11.674  0.5023 -1.3093 -0.5870
14752TIP3   OH265746   4.307   5.953   6.600 -0.1406 -0.4101  0.1633
14752TIP3    H165747   4.214   5.933   6.598 -0.0826 -0.7501 -1.7699
14752TIP3    H265748   4.333   5.941   6.691 -1.8667 -0.8557  0.6256
14753TIP3   OH265749   2.069   1.391   3.711  0.0121  0.1675 -0.0257
14753TIP3    H165750   2.134   1.329   3.677 -0.4900 -1.7213  2.1658
14753TIP3    H265751   1.992   1.378   3.656  1.6176  3.1568 -3.3100
14754TIP3   OH265752   1.573   0.111  14.431  0.4663 -0.0585 -0.1725
14754TIP3    H165753   1.501   0.174  14.423 -0.3565 -1.1247 -1.9105
14754TIP3    H265754   1.589   0.103  14.525 -0.6692  1.3342  0.1590
14755TIP3   OH265755   2.300   5.612   3.415  0.5502 -0.0796  0.4864
14755TIP3    H165756   2.307   5.520   3.440 -1.0926  0.3513  2.9783
14755TIP3    H265757   2.317   5.660   3.496 -1.3076  1.6870 -0.0803
14756TIP3   OH265758   3.930   4.377   4.222  0.0575 -0.6050 -0.0705
14756TIP3    H165759   3.959   4.461   4.258 -0.2752 -0.8417  0.7513
14756TIP3    H265760   3.889   4.400   4.138  1.6794 -0.1495 -0.7887
14757TIP3   OH265761   4.796   6.812   4.469 -0.4775  0.0254  0.4241
14757TIP3    H165762   4.795   6.831   4.376 -0.3826  1.1443  0.6329
14757TIP3    H265763   4.862   6.871   4.505 -0.6832 -0.2151  1.2312
14758TIP3   OH265764   4.411   2.766   3.870  0.1049  0.0088  0.1420
14758TIP3    H165765   4.380   2.745   3.958  0.2126 -0.9429 -0.0355
14758TIP3    H265766   4.415   2.862   3.868  0.4260  0.0331  1.2829
14759TIP3   OH265767   2.321   0.399  14.010  0.1887 -0.1974 -0.1194
14759TIP3    H165768   2.238   0.376  14.052 -1.1092  0.0035 -2.4130
14759TIP3    H265769   2.388   0.364  14.069 -1.4988 -0.6659  1.6390
14760TIP3   OH265770   4.707   6.363   6.151  0.1996  0.5723  0.3365
14760TIP3    H165771   4.692   6.302   6.223  0.0499  0.0510 -0.1232
14760TIP3    H265772   4.750   6.310   6.083  1.6099  1.3799  0.5638
14761TIP3   OH265773   0.262   2.962   1.320 -0.4784  0.8238 -0.3628
14761TIP3    H165774   0.303   2.968   1.233 -0.3879  0.0410 -0.3757
14761TIP3    H265775   0.171   2.989   1.305 -1.0240 -1.2714 -1.1226
14762TIP3   OH265776   5.847   4.972  16.842 -0.1943  0.4204 -0.4351
14762TIP3    H165777   5.794   5.048  16.820 -1.4554 -0.0109  0.8984
14762TIP3    H265778   5.786   4.913  16.886  1.6898  0.5539  2.6365
14763TIP3   OH265779   5.272   2.370  13.571 -0.0513  0.3181  0.1358
14763TIP3    H165780   5.240   2.280  13.574  0.2123  0.1840 -0.6981
14763TIP3    H265781   5.269   2.393  13.478  0.0868  1.0922  0.3213
14764TIP3   OH265782   3.259   2.351  11.044 -0.2515  0.7095 -0.6228
14764TIP3    H165783   3.303   2.346  10.959  1.1761 -0.7461  0.1380
14764TIP3    H265784   3.184   2.409  11.029 -0.5499 -0.1885 -3.0787
14765TIP3   OH265785   6.160   0.938  13.207 -0.2904 -0.0223 -0.4012
14765TIP3    H165786   6.189   0.855  13.244 -0.9910  0.4622  1.3547
14765TIP3    H265787   6.189   0.936  13.116  0.4165 -1.8272 -0.1673
14766TIP3   OH265788   5.184   3.978   5.153  0.2272 -0.1795  0.0750
14766TIP3    H165789   5.099   3.949   5.186 -1.3631  0.1754 -3.2418
14766TIP3    H265790   5.248   3.942   5.214 -1.9877 -4.5661  0.2120
14767TIP3   OH265791   1.679   1.995   1.541  0.0572 -0.2104 -0.3093
14767TIP3    H165792   1.728   1.971   1.462  0.2230  2.0896 -0.9882
14767TIP3    H265793   1.600   2.037   1.508 -0.3741 -0.1610  0.7679
14768TIP3   OH265794   0.713   4.814  15.160  0.5093  0.4387 -0.3779
14768TIP3    H165795   0.718   4.909  15.174  2.2948  0.1881  1.1244
14768TIP3    H265796   0.763   4.777  15.233 -1.8008 -1.7939  0.2023
14769TIP3   OH265797   3.896   4.319   3.332 -0.2293  0.5744 -0.2438
14769TIP3    H165798   3.969   4.362   3.287  0.4135  0.5056  0.7205
14769TIP3    H265799   3.914   4.331   3.425 -0.5423 -0.9501  0.0320
14770TIP3   OH265800   2.565   0.734  11.607  0.0039  0.5178  0.0106
14770TIP3    H165801   2.528   0.657  11.565 -0.5835  0.8508 -0.0920
14770TIP3    H265802   2.494   0.798  11.606  0.5945  1.1847 -0.2377
14771TIP3   OH265803   1.161   1.428   2.357  0.0199  0.3502 -0.0215
14771TIP3    H165804   1.230   1.362   2.365 -0.8866 -0.5203  0.9250
14771TIP3    H265805   1.188   1.498   2.416 -0.8945 -0.9401  2.0782
14772TIP3   OH265806   4.606   5.804   2.546  0.5679 -0.1706 -0.8454
14772TIP3    H165807   4.541   5.777   2.482 -0.3575  1.3683 -0.5988
14772TIP3    H265808   4.684   5.753   2.523  0.1839  0.1091 -3.0163
14773TIP3   OH265809   6.413   6.032   3.363  0.0350  0.1519  0.0750
14773TIP3    H165810   6.391   6.119   3.329 -0.7254  0.3875  1.1311
14773TIP3    H265811   6.483   6.001   3.306  1.7595  2.2898  0.9146
14774TIP3   OH265812   5.856   2.119   3.122 -0.0065  0.6105 -0.4108
14774TIP3    H165813   5.876   2.044   3.178  0.7271  0.5846 -0.7026
14774TIP3    H265814   5.917   2.187   3.149  1.5187  0.0617 -2.2646
14775TIP3   OH265815   3.907   0.847  13.643 -0.3164 -0.0280 -0.1539
14775TIP3    H165816   3.995   0.884  13.637  0.1830 -1.3052 -1.5626
14775TIP3    H265817   3.905   0.781  13.574 -2.0204 -0.8045  0.5914
14776TIP3   OH265818   3.260   3.880  17.158  0.4884  0.4562 -0.4011
14776TIP3    H165819   3.218   3.910  17.238  1.5534  0.6236  0.1042
14776TIP3    H265820   3.296   3.794  17.180 -0.4168 -0.1224 -1.1166
14777TIP3   OH265821   4.422   2.377  11.246 -0.9281 -0.6218 -0.5477
14777TIP3    H165822   4.513   2.388  11.273 -0.5528 -1.6665 -1.2890
14777TIP3    H265823   4.391   2.465  11.226 -0.2142 -0.2130  0.1217
14778TIP3   OH265824   4.294   2.965  14.755  0.0852  0.4020 -0.2097
14778TIP3    H165825   4.256   2.973  14.668  0.6148 -0.6978 -0.5581
14778TIP3    H265826   4.317   2.873  14.763  0.6025  0.6045  0.8688
14779TIP3   OH265827   0.759   2.381  13.341 -0.0529  0.1781 -0.6514
14779TIP3    H165828   0.775   2.287  13.335  1.4585  0.4727 -1.9218
14779TIP3    H265829   0.772   2.413  13.252 -2.5265  1.3467 -0.6577
14780TIP3   OH265830   2.980   2.366   0.315  0.5111  0.5240 -0.2285
14780TIP3    H165831   2.999   2.394   0.404 -1.3034  1.1175  0.0293
14780TIP3    H265832   2.924   2.289   0.325  0.0996  0.7306 -0.8213
14781TIP3   OH265833   2.356   3.563   2.451  0.5304 -0.3366 -0.1207
14781TIP3    H165834   2.410   3.601   2.382 -0.8134  2.1817  0.0743
14781TIP3    H265835   2.372   3.619   2.527 -0.3261 -1.1665  0.6953
14782TIP3   OH265836   0.735   1.304  16.889 -0.3455 -0.5719  0.8187
14782TIP3    H165837   0.765   1.213  16.896 -1.4270 -0.9407  0.8544
14782TIP3    H265838   0.805   1.355  16.929 -0.3276 -1.4999  2.0499
14783TIP3   OH265839   4.153   4.920  11.375 -0.1232  0.8033  0.0404
14783TIP3    H165840   4.119   4.911  11.464 -1.8465 -0.9898 -0.7187
14783TIP3    H265841   4.076   4.946  11.323  0.5327  0.4523 -1.1414
14784TIP3   OH265842   5.039   4.310   2.510 -0.0310 -0.2246 -0.1216
14784TIP3    H165843   5.030   4.405   2.500 -0.5502 -0.2171  0.3448
14784TIP3    H265844   4.967   4.285   2.568  1.4844 -0.5576  1.7092
14785TIP3   OH265845   1.331   6.488   2.604  0.6984  1.0647 -0.4893
14785TIP3    H165846   1.296   6.402   2.582  1.0577  0.5236  0.9136
14785TIP3    H265847   1.281   6.516   2.681  0.3619  2.2746 -1.1201
14786TIP3   OH265848   1.777   3.607   1.480 -0.2697  0.5898 -0.3890
14786TIP3    H165849   1.739   3.598   1.393  0.5766  1.0939 -0.8153
14786TIP3    H265850   1.818   3.694   1.480  0.4961  0.2412  0.2132
14787TIP3   OH265851   0.706   0.446   4.689 -1.0544  0.0395  0.0797
14787TIP3    H165852   0.753   0.363   4.695 -3.0375 -1.0798  0.8936
14787TIP3    H265853   0.689   0.457   4.595 -2.4094 -1.4710  0.1116
14788TIP3   OH265854   4.004   2.920  16.259  0.4422 -0.1425  0.1973
14788TIP3    H165855   3.944   2.858  16.300  1.2142 -0.4390  0.9181
14788TIP3    H265856   3.974   3.006  16.288 -0.6818 -0.1492 -0.8690
14789TIP3   OH265857   5.377   4.174   5.343  0.1768 -0.3225 -0.2529
14789TIP3    H165858   5.400   4.215   5.427  0.2028 -1.3531  0.2633
14789TIP3    H265859   5.379   4.080   5.361 -0.6926 -0.5401 -1.1881
14790TIP3   OH265860   6.083   5.006  13.911 -0.8310 -0.0612 -0.0318
14790TIP3    H165861   6.093   4.977  14.002  0.0390 -1.8191 -0.6428
14790TIP3    H265862   6.030   4.938  13.870  0.8156 -0.5848 -1.4022
14791TIP3   OH265863   1.159   6.219   1.454  0.2775 -0.2266  0.1134
14791TIP3    H165864   1.110   6.300   1.466  0.1989 -0.2658  0.0586
14791TIP3    H265865   1.151   6.174   1.539  2.1604  0.8111  0.8881
14792TIP3   OH265866   2.164   3.458   5.867  0.0276  0.2372 -0.3645
14792TIP3    H165867   2.255   3.434   5.851 -0.4170 -0.3320 -2.2562
14792TIP3    H265868   2.141   3.518   5.796 -0.9353  0.7869  0.3813
14793TIP3   OH265869   5.888   6.130  13.923  0.2159 -0.4005  0.0946
14793TIP3    H165870   5.975   6.162  13.948  0.5256 -0.2821 -1.0536
14793TIP3    H265871   5.848   6.101  14.005  1.6248 -1.1581  0.5445
14794TIP3   OH265872   1.913   1.447  15.854  0.6103  0.7787 -0.1121
14794TIP3    H165873   1.906   1.513  15.785  1.7824 -0.7963 -1.8592
14794TIP3    H265874   1.937   1.496  15.933  0.3957  2.5189 -1.0715
14795TIP3   OH265875   6.553   4.751  12.216 -0.0022 -0.7373  0.8383
14795TIP3    H165876   6.498   4.708  12.282  0.0342 -1.1449  0.6065
14795TIP3    H265877   6.621   4.687  12.197  2.0679  0.6443  2.9519
14796TIP3   OH265878   6.724   2.238  12.495 -0.1920 -0.5612 -0.0927
14796TIP3    H165879   6.728   2.322  12.448 -1.6117  0.4645  1.4994
14796TIP3    H265880   6.735   2.261  12.587  3.3677 -2.6020  0.1931
14797TIP3   OH265881   3.093   5.631  16.911 -0.1373  0.2059 -0.3987
14797TIP3    H165882   3.086   5.545  16.869 -0.0646 -0.4171  0.8183
14797TIP3    H265883   3.177   5.665  16.882  1.6119 -1.7526  1.9109
14798TIP3   OH265884   4.895   2.662  16.425 -0.2724 -0.5155 -0.0035
14798TIP3    H165885   4.880   2.707  16.508  1.4811 -0.1422  0.1536
14798TIP3    H265886   4.858   2.575  16.439 -1.4186  0.0339  0.5877
14799TIP3   OH265887   6.291   2.635  16.346 -0.1377  0.0022  0.2066
14799TIP3    H165888   6.245   2.667  16.268 -0.0362  0.2155  0.2334
14799TIP3    H265889   6.261   2.692  16.417  1.5310  1.3407 -0.1108
14800TIP3   OH265890   0.593   5.372  16.569 -0.0685 -0.2747 -0.0609
14800TIP3    H165891   0.552   5.385  16.483  0.5728 -0.4792 -0.4096
14800TIP3    H265892   0.535   5.417  16.630  0.8234  2.1489 -0.8978
14801TIP3   OH265893   1.858   5.674   0.197 -0.4506  0.1735 -0.5463
14801TIP3    H165894   1.846   5.753   0.250  2.9436  1.0727 -0.8827
14801TIP3    H265895   1.911   5.616   0.252  0.9044  0.0417 -1.9313
14802TIP3   OH265896   5.707   4.272  16.811 -0.3514  0.0075 -0.6812
14802TIP3    H165897   5.787   4.220  16.808 -0.0936  0.4286 -1.4598
14802TIP3    H265898   5.737   4.363  16.816 -0.7354  0.2400 -2.0067
14803TIP3   OH265899   3.086   6.016   3.517  0.0692 -0.2190 -0.1377
14803TIP3    H165900   3.054   6.094   3.564 -2.4827 -1.2654  0.0129
14803TIP3    H265901   3.096   5.950   3.585  0.5812 -0.5078 -0.4906
14804TIP3   OH265902   0.046   5.171  16.982  0.3781  0.1625 -0.3775
14804TIP3    H165903   0.072   5.212  16.899  0.3948  0.7339 -0.0935
14804TIP3    H265904  -0.043   5.139  16.966  0.7886 -0.7228 -0.9723
14805TIP3   OH265905   3.088   0.664  11.792 -0.5157 -0.1651  0.0051
14805TIP3    H165906   3.152   0.617  11.738  1.4811  2.0089  0.3222
14805TIP3    H265907   3.052   0.730  11.733  0.1005  0.8422  0.7368
14806TIP3   OH265908   3.553   6.085  14.832 -0.3525  0.0379  0.5210
14806TIP3    H165909   3.563   6.123  14.744  0.4226  0.5902  0.8376
14806TIP3    H265910   3.601   6.145  14.889 -2.8399  1.0455  1.7074
14807TIP3   OH265911   1.700   1.406   0.928  0.1581  0.1942 -0.0072
14807TIP3    H165912   1.746   1.345   0.871  0.5528  0.2965  0.1934
14807TIP3    H265913   1.639   1.352   0.978 -0.2542  0.1169 -0.5840
14808TIP3   OH265914   3.445   6.134   3.544 -0.3267 -0.2071 -0.4226
14808TIP3    H165915   3.536   6.164   3.539 -0.1430 -0.8130 -0.8469
14808TIP3    H265916   3.395   6.202   3.499  0.1916 -0.9033 -2.1784
14809TIP3   OH265917   3.001   3.957   4.412 -0.0642 -0.6210  0.4826
14809TIP3    H165918   3.081   3.998   4.445 -0.8191  0.4587  1.0341
14809TIP3    H265919   3.028   3.911   4.334  1.3395 -1.3099  1.3399
14810TIP3   OH265920   4.686   2.069   0.993 -0.1722 -0.1219 -0.2829
14810TIP3    H165921   4.683   1.975   1.010 -0.1490  0.0210  0.5495
14810TIP3    H265922   4.774   2.084   0.959  0.2022 -0.2469  0.5945
14811TIP3   OH265923   4.935   3.057  16.450 -0.0752 -0.9579  0.6243
14811TIP3    H165924   4.955   2.982  16.506 -0.9416 -0.9067  1.0216
14811TIP3    H265925   4.882   3.115  16.505  0.0192 -0.3686  0.1084
14812TIP3   OH265926   4.399   3.897   3.474  0.7672  0.1939 -0.1586
14812TIP3    H165927   4.431   3.837   3.541  0.3453 -0.1479 -0.2575
14812TIP3    H265928   4.367   3.840   3.404  0.5915  0.5374 -0.3606
14813TIP3   OH265929   2.586   0.073   5.057  0.6444  0.3951 -0.2725
14813TIP3    H165930   2.599  -0.020   5.074 -1.3406  0.0301 -0.5261
14813TIP3    H265931   2.514   0.077   4.995  1.0415  2.0954 -0.6915
14814TIP3   OH265932   0.398   1.281  12.201  0.4250  0.2105 -0.6773
14814TIP3    H165933   0.305   1.295  12.185  0.4667 -1.2506 -2.5739
14814TIP3    H265934   0.420   1.341  12.272 -2.7578 -1.9722  2.5120
14815TIP3   OH265935   5.504   2.566  10.077  0.5794 -0.2040  0.0942
14815TIP3    H165936   5.520   2.659  10.059  1.3582 -0.8187 -2.7983
14815TIP3    H265937   5.422   2.547  10.031 -0.0657 -0.7841  1.4346
14816TIP3   OH265938   6.019   3.842   1.348  0.6326 -0.5906 -0.5536
14816TIP3    H165939   5.988   3.858   1.259  0.2940  0.9933 -0.1840
14816TIP3    H265940   6.102   3.795   1.336  0.2714 -0.9786 -1.6780
14817TIP3   OH265941   5.338   4.450  11.903 -0.4817 -0.7846 -0.1496
14817TIP3    H165942   5.331   4.376  11.964 -0.4751 -1.0813 -0.5106
14817TIP3    H265943   5.380   4.414  11.825  1.3302  0.0098  0.3829
14818TIP3   OH265944   6.506   4.546   6.071 -0.2506  0.2861  0.2848
14818TIP3    H165945   6.485   4.590   6.153  0.1147 -0.8047  0.9909
14818TIP3    H265946   6.462   4.461   6.078 -0.5030  0.3146 -0.8070
14819TIP3   OH265947   2.308   2.040   3.491  0.5809 -0.8329  0.0644
14819TIP3    H165948   2.321   2.104   3.561  0.4154  0.3040 -0.9164
14819TIP3    H265949   2.229   2.070   3.446  0.1154 -2.1257 -0.0112
14820TIP3   OH265950   3.529   5.893  12.626 -0.6804 -0.2598 -0.3563
14820TIP3    H165951   3.506   5.819  12.570  0.4856 -2.3158  1.7311
14820TIP3    H265952   3.623   5.886  12.639  0.2014  3.6930 -2.7951
14821TIP3   OH265953   6.141   6.567  13.208  0.2612 -0.1773 -0.9677
14821TIP3    H165954   6.165   6.610  13.290  1.3463  0.1167 -1.4182
14821TIP3    H265955   6.224   6.539  13.171 -0.2248 -0.3802 -1.9302
14822TIP3   OH265956   1.459   4.506   2.036 -0.3477 -0.3412 -0.4157
14822TIP3    H165957   1.465   4.521   2.130  1.8500 -0.0912 -0.5474
14822TIP3    H265958   1.367   4.524   2.014 -0.4018  1.8595  1.2889
14823TIP3   OH265959   6.035   5.902   1.927  0.0609 -0.0895  0.1564
14823TIP3    H165960   6.115   5.858   1.953  0.8118  1.2924  0.2970
14823TIP3    H265961   5.967   5.835   1.930  0.4788 -0.5023  3.7036
14824TIP3   OH265962   3.671   6.552   2.448 -0.0580  0.1593  0.4723
14824TIP3    H165963   3.746   6.581   2.499  0.2573  2.1767 -1.0293
14824TIP3    H265964   3.595   6.576   2.502  0.3140  0.7361  0.7499
14825TIP3   OH265965   2.788   1.920   5.739  0.0314  0.1490  0.3081
14825TIP3    H165966   2.782   2.010   5.772  2.7615  1.1855 -1.6845
14825TIP3    H265967   2.871   1.888   5.774 -1.0074 -1.7566  1.1764
14826TIP3   OH265968   6.556   5.212  13.982 -0.0889 -0.3711 -0.1783
14826TIP3    H165969   6.559   5.188  13.890  0.0898  2.4020 -0.9844
14826TIP3    H265970   6.462   5.218  14.002 -0.1813  1.1803 -0.8822
14827TIP3   OH265971   4.554   1.986  13.680 -0.3990  0.5923  0.2710
14827TIP3    H165972   4.551   2.078  13.705 -1.1784  0.7104 -0.2184
14827TIP3    H265973   4.603   1.984  13.598  0.7502  0.4029  0.9467
14828TIP3   OH265974   4.140   1.112   2.527 -0.7397  0.7032  0.6448
14828TIP3    H165975   4.120   1.157   2.446  0.9320 -0.2440 -0.3391
14828TIP3    H265976   4.130   1.019   2.506  1.0782  0.3708  1.0886
14829TIP3   OH265977   4.307   0.374  14.068 -0.2891  0.2700  0.7671
14829TIP3    H165978   4.361   0.328  14.133 -0.4107 -3.6499 -1.5608
14829TIP3    H265979   4.362   0.377  13.990 -1.2989  1.8945  0.0770
14830TIP3   OH265980   2.757   2.412   0.538  0.0989  0.1646  0.2351
14830TIP3    H165981   2.663   2.402   0.520 -0.1610  1.4145  0.7659
14830TIP3    H265982   2.763   2.492   0.590  1.4751  0.1530  0.1373
14831TIP3   OH265983   1.284   2.383   3.092  0.0291  0.1586  0.0986
14831TIP3    H165984   1.268   2.328   3.016  1.3416 -0.9807  0.6022
14831TIP3    H265985   1.249   2.333   3.166 -0.0788  0.6626  0.3943
14832TIP3   OH265986   6.081   4.515  11.721 -0.5132  0.3671  0.4516
14832TIP3    H165987   5.996   4.478  11.697 -0.5978  0.0696  1.1768
14832TIP3    H265988   6.135   4.439  11.745 -0.2068  0.5947  0.5002
14833TIP3   OH265989   2.377   5.485  12.205  0.7169 -0.3827 -0.3980
14833TIP3    H165990   2.362   5.409  12.261 -1.3227  0.0519 -0.2643
14833TIP3    H265991   2.410   5.449  12.124 -1.2363 -1.5910 -0.7332
14834TIP3   OH265992   2.603   4.086  16.187 -0.1813  0.2813 -0.6088
14834TIP3    H165993   2.610   4.153  16.256 -0.0937  1.8367 -2.0552
14834TIP3    H265994   2.675   4.026  16.204  0.0502  0.8223  0.4338
14835TIP3   OH265995   0.577   0.750   1.780  0.2439 -0.4429  0.1062
14835TIP3    H165996   0.616   0.763   1.693 -0.6318 -0.0125 -0.2334
14835TIP3    H265997   0.651   0.729   1.836  1.2487  2.1306 -0.1273
14836TIP3   OH265998   4.933   1.344  13.984  0.1955 -0.1324  0.4108
14836TIP3    H165999   4.962   1.292  14.058  0.1080 -0.9350 -0.1004
14836TIP3    H266000   4.901   1.426  14.022  1.5327  0.0772  1.1130
14837TIP3   OH266001   1.441   1.913  11.150  0.0706  0.1078 -1.0441
14837TIP3    H166002   1.469   1.849  11.085 -0.0168  0.2662 -1.2376
14837TIP3    H266003   1.398   1.982  11.100  2.0899  1.4232 -1.0776
14838TIP3   OH266004   3.012   3.628   6.309 -0.3440 -1.0043  0.3993
14838TIP3    H166005   2.930   3.675   6.325 -0.1714 -0.6749  0.3165
14838TIP3    H266006   3.001   3.545   6.356 -0.3829 -0.6008  1.1285
14839TIP3   OH266007   1.118   1.224   2.975 -0.6308  0.0309  0.0881
14839TIP3    H166008   1.174   1.148   2.995 -1.0173 -0.8384 -1.8874
14839TIP3    H266009   1.060   1.231   3.051 -0.9458 -2.0166  0.1001
14840TIP3   OH266010   3.564   3.645  11.887  0.7401 -0.5318  0.7015
14840TIP3    H166011   3.659   3.639  11.893  0.7222 -1.0139  0.6011
14840TIP3    H266012   3.546   3.657  11.794  0.6928 -0.7719  0.6776
14841TIP3   OH266013   6.325   2.765  12.399 -0.4040  0.5185  0.1383
14841TIP3    H166014   6.373   2.846  12.420  0.3862 -0.1138  0.8688
14841TIP3    H266015   6.386   2.715  12.344  0.2476 -0.7431  1.9114
14842TIP3   OH266016   2.478   4.123   4.052  0.3706  0.3778 -0.1444
14842TIP3    H166017   2.440   4.207   4.078 -0.8487 -0.0804 -0.3854
14842TIP3    H266018   2.512   4.086   4.134 -2.1500 -0.4020  0.6463
14843TIP3   OH266019   2.471   5.731   5.002 -0.7695 -0.5311 -0.2425
14843TIP3    H166020   2.382   5.699   4.986 -0.6473 -1.5457  0.9779
14843TIP3    H266021   2.527   5.669   4.955 -0.6584 -0.5196 -0.1257
14844TIP3   OH266022   3.654   6.222  13.813 -0.2565 -0.2938  0.3257
14844TIP3    H166023   3.649   6.309  13.851 -0.8617 -0.9732  1.9043
14844TIP3    H266024   3.566   6.185  13.827 -0.4181 -0.7085 -1.4958
14845TIP3   OH266025   1.021   0.452  15.241  0.0916 -0.1932  0.0782
14845TIP3    H166026   1.112   0.434  15.219 -0.6300 -1.6545 -1.9663
14845TIP3    H266027   1.012   0.423  15.332  1.0649 -2.4769 -0.5030
14846TIP3   OH266028   1.487   6.514  16.388 -0.0787 -0.0332 -0.5075
14846TIP3    H166029   1.409   6.569  16.376 -0.0796 -0.1661 -1.1027
14846TIP3    H266030   1.474   6.439  16.330  0.3579 -0.1993 -0.3966
14847TIP3   OH266031   4.266   1.657   5.024  0.2771  0.5479 -0.7218
14847TIP3    H166032   4.267   1.694   4.936 -0.5503  1.4595 -0.3716
14847TIP3    H266033   4.324   1.714   5.075 -0.5920  1.0818 -0.3005
14848TIP3   OH266034   6.353   0.826   0.994 -0.2604 -0.5974  0.1054
14848TIP3    H166035   6.323   0.821   0.903 -1.7190 -0.8499  0.5786
14848TIP3    H266036   6.281   0.790   1.045  0.8640 -1.2162  1.3176
14849TIP3   OH266037   1.789   2.009  13.566  0.1697  0.5180 -0.4066
14849TIP3    H166038   1.756   1.988  13.654  0.4960  0.8257 -0.2085
14849TIP3    H266039   1.739   1.952  13.508 -1.5186  1.7401 -0.2346
14850TIP3   OH266040   5.505   4.754   2.009  0.4685  0.2325  0.1211
14850TIP3    H166041   5.451   4.832   2.023 -0.0995 -0.1242 -0.0483
14850TIP3    H266042   5.559   4.748   2.089 -0.0491  0.3481  0.4834
14851TIP3   OH266043   5.629   3.700  13.157  0.2894 -0.5559  0.4144
14851TIP3    H166044   5.705   3.758  13.146  1.5681 -2.2299  0.1492
14851TIP3    H266045   5.564   3.755  13.202  0.8644  1.5433 -1.1310
14852TIP3   OH266046   2.597   2.709  12.271  0.0372 -0.0896  0.2843
14852TIP3    H166047   2.577   2.790  12.316  0.1953 -0.8318  1.7414
14852TIP3    H266048   2.524   2.696  12.211 -2.0513 -0.8476  2.8441
14853TIP3   OH266049   0.493   5.740  16.855 -0.5071  0.1335 -0.1138
14853TIP3    H166050   0.494   5.646  16.836 -2.5440  0.1089 -0.2510
14853TIP3    H266051   0.495   5.745  16.950 -0.4301 -0.0423 -0.1046
14854TIP3   OH266052   0.889   5.380   0.621 -0.2777  0.3081  0.0151
14854TIP3    H166053   0.798   5.367   0.649 -0.9790 -0.3059 -2.3806
14854TIP3    H266054   0.894   5.339   0.535  2.0776  1.0659 -0.2709
14855TIP3   OH266055   4.184   3.097  11.787 -0.2027 -0.3330 -0.4004
14855TIP3    H166056   4.098   3.054  11.784 -0.6473  0.5729 -0.7802
14855TIP3    H266057   4.246   3.024  11.795 -1.0119 -0.9893  0.1845
14856TIP3   OH266058   3.486   4.582  14.261  0.1369  0.7762 -0.4014
14856TIP3    H166059   3.458   4.613  14.175 -0.5630 -1.2402 -0.9691
14856TIP3    H266060   3.529   4.499  14.243  0.6516  0.6804  1.1381
14857TIP3   OH266061   2.526   2.685   1.655  0.0588 -0.0668 -0.3082
14857TIP3    H166062   2.534   2.780   1.644  1.9035 -0.2862 -1.2536
14857TIP3    H266063   2.487   2.674   1.742 -1.6699  1.5518 -0.7924
14858TIP3   OH266064   3.703   0.384   1.026  0.4566 -0.2601  0.1385
14858TIP3    H166065   3.750   0.322   0.970 -0.4062  0.0141 -0.9148
14858TIP3    H266066   3.772   0.431   1.072  1.1508 -1.4298  0.3454
14859TIP3   OH266067   0.456   2.226   2.078 -0.3350 -0.2389  0.1366
14859TIP3    H166068   0.462   2.150   2.020 -1.5067  0.9055 -1.5591
14859TIP3    H266069   0.364   2.228   2.104 -0.0898  0.0235  1.0076
14860TIP3   OH266070   3.641   2.819  13.532 -0.0944  0.3221 -0.3644
14860TIP3    H166071   3.611   2.760  13.601  0.8319  0.9664  0.6136
14860TIP3    H266072   3.599   2.903  13.553 -1.8691 -0.0455 -2.0627
14861TIP3   OH266073   4.518   3.936   1.038  0.3965  0.5110 -0.5686
14861TIP3    H166074   4.568   3.859   1.009  1.4229  1.0089 -0.1733
14861TIP3    H266075   4.494   3.980   0.957  0.8385  0.4048 -0.7620
14862TIP3   OH266076   0.582   3.653   4.591  0.2988  0.8208 -0.0853
14862TIP3    H166077   0.593   3.617   4.503  4.1701 -2.8159  1.5512
14862TIP3    H266078   0.519   3.594   4.634  2.8394 -1.2240  1.1085
14863TIP3   OH266079   2.169   5.709  15.501  0.6341 -0.1214 -0.4886
14863TIP3    H166080   2.130   5.622  15.513 -0.8031  0.5201 -0.3143
14863TIP3    H266081   2.261   5.691  15.481  0.7154 -1.6349  1.0123
14864TIP3   OH266082   5.340   3.932   2.087 -0.0392  0.3435  0.1402
14864TIP3    H166083   5.345   3.968   2.176 -1.5277  2.6100 -0.5884
14864TIP3    H266084   5.424   3.889   2.074  1.0963  1.8438  1.8864
14865TIP3   OH266085   0.545   5.021   0.689  0.0849  0.3373  0.0036
14865TIP3    H166086   0.521   5.075   0.614 -3.0954 -1.8534 -0.7763
14865TIP3    H266087   0.517   5.071   0.765 -0.7227  0.7689 -0.5589
14866TIP3   OH266088   5.207   3.437  12.619  0.2037  0.1444 -0.1829
14866TIP3    H166089   5.163   3.353  12.637 -1.1152  1.2749  2.3891
14866TIP3    H266090   5.172   3.465  12.535  3.0339 -3.2319 -2.7989
14867TIP3   OH266091   1.865   1.598   2.660 -0.0513 -0.4025  0.0234
14867TIP3    H166092   1.873   1.680   2.612 -1.1489  0.3367  1.0448
14867TIP3    H266093   1.784   1.559   2.628 -0.9367  0.2284  1.4238
14868TIP3   OH266094   2.104   1.972   2.862 -0.4468 -0.0281  0.5405
14868TIP3    H166095   2.115   1.960   2.768  0.9541  1.4276  0.4692
14868TIP3    H266096   2.180   1.928   2.900 -0.9601 -0.5343  0.9906
14869TIP3   OH266097   3.225   6.447   0.954 -0.2550 -0.0676  0.2284
14869TIP3    H166098   3.259   6.536   0.951 -0.2568 -0.0838 -0.3664
14869TIP3    H266099   3.167   6.440   0.879  0.5739 -0.8933 -0.3686
14870TIP3   OH266100   1.881   5.303  10.713  0.0802 -0.1388 -0.3060
14870TIP3    H166101   1.926   5.371  10.764  1.0955 -0.7620 -0.3355
14870TIP3    H266102   1.795   5.341  10.693 -0.8689 -0.2659  2.8536
14871TIP3   OH266103   5.318   0.483   1.477 -0.1343 -0.3411  0.1790
14871TIP3    H166104   5.384   0.460   1.542  0.0756 -0.3580 -0.0382
14871TIP3    H266105   5.365   0.536   1.413 -0.0699 -1.2646 -0.5531
14872TIP3   OH266106   3.582   2.960  15.624  0.7054 -0.3873  0.1442
14872TIP3    H166107   3.664   2.985  15.667  0.8970  0.1537 -0.5314
14872TIP3    H266108   3.566   3.028  15.559  0.3409 -1.1144 -0.5512
14873TIP3   OH266109   5.610   6.807   4.342  0.0382 -0.0155  0.2342
14873TIP3    H166110   5.571   6.741   4.398  0.3854 -0.5287 -0.1242
14873TIP3    H266111   5.659   6.758   4.276  0.7771  0.5991  0.3087
14874TIP3   OH266112   6.687   3.992   1.742 -0.4453 -0.2307 -0.1488
14874TIP3    H166113   6.666   4.080   1.775 -0.1509  0.4424 -1.6815
14874TIP3    H266114   6.783   3.987   1.749 -0.1780  0.5850 -2.3519
14875TIP3   OH266115   0.779   3.212  14.189 -0.5452 -0.7509 -0.2768
14875TIP3    H166116   0.774   3.251  14.102 -0.9561  1.4830  0.6747
14875TIP3    H266117   0.803   3.285  14.246  1.5057 -2.5155  1.2638
14876TIP3   OH266118   5.289   3.235  15.949  0.7918 -0.3134  0.2218
14876TIP3    H166119   5.238   3.162  15.913 -1.3025  0.1430  2.0169
14876TIP3    H266120   5.325   3.279  15.872 -0.5467 -1.3954 -1.0997
14877TIP3   OH266121   1.438   3.986   3.767  0.2947 -0.0937 -0.4707
14877TIP3    H166122   1.519   3.946   3.797  0.4531  1.3412  1.0954
14877TIP3    H266123   1.464   4.068   3.726 -0.0310 -1.4130 -3.6982
14878TIP3   OH266124   3.451   2.476  13.941  0.1891 -0.4317  0.0385
14878TIP3    H166125   3.473   2.398  13.992  1.6004  0.5102  0.9343
14878TIP3    H266126   3.427   2.442  13.855 -1.3984 -1.9939  1.0420
14879TIP3   OH266127   6.080   0.619  15.404 -0.3477  0.2602 -0.0753
14879TIP3    H166128   6.059   0.539  15.357 -2.0668  1.8696 -2.2851
14879TIP3    H266129   6.171   0.609  15.429 -0.7743 -2.7716  0.6682
14880TIP3   OH266130   6.742   5.175  14.951  0.2523  0.3520  0.1200
14880TIP3    H166131   6.802   5.231  15.000  0.5389 -0.4211  0.6758
14880TIP3    H266132   6.674   5.151  15.015 -0.8764  1.5244 -0.6014
14881TIP3   OH266133   0.622   0.513  10.924  0.2277 -0.4517 -0.2278
14881TIP3    H166134   0.661   0.590  10.883 -1.5440  1.4122  1.3700
14881TIP3    H266135   0.601   0.542  11.013 -1.3580 -2.4876  0.1192
14882TIP3   OH266136   4.930   5.863   4.859 -0.9859 -0.3083  0.3606
14882TIP3    H166137   4.850   5.813   4.873 -2.1882  0.7298 -2.1002
14882TIP3    H266138   5.000   5.798   4.863 -2.3172 -1.9305 -0.9311
14883TIP3   OH266139   5.964   1.686   1.741  0.1916 -0.7082  0.4018
14883TIP3    H166140   5.973   1.591   1.745  3.7760 -0.4682  1.7739
14883TIP3    H266141   5.932   1.711   1.827  0.0904 -0.6276  0.3402
14884TIP3   OH266142   5.797   2.535   5.887 -0.4720  0.0650  0.4011
14884TIP3    H166143   5.770   2.473   5.955 -0.0176 -0.3457  0.2181
14884TIP3    H266144   5.892   2.535   5.891 -0.3943 -0.6596 -0.8250
14885TIP3   OH266145   1.873   1.857   2.578 -0.0431 -0.3593 -0.2313
14885TIP3    H166146   1.810   1.883   2.645  1.2645 -0.6185  1.1725
14885TIP3    H266147   1.843   1.901   2.499 -0.7558  1.2937  0.8830
14886TIP3   OH266148   2.763   4.052  14.028 -0.3165 -0.5054  0.6408
14886TIP3    H166149   2.835   4.025  13.970 -0.5550  0.5799 -0.1818
14886TIP3    H266150   2.807   4.076  14.110  0.5658  2.1143 -0.4839
14887TIP3   OH266151   6.374   0.284   1.148  0.0927  0.5142 -0.3182
14887TIP3    H166152   6.323   0.261   1.226  2.1955  0.6519  1.1655
14887TIP3    H266153   6.355   0.377   1.134  0.4571  0.7468  0.6518
14888TIP3   OH266154   2.903   0.787   3.664  0.1745 -0.2803 -1.0063
14888TIP3    H166155   2.887   0.819   3.575  0.1432  1.0932 -0.5352
14888TIP3    H266156   2.894   0.865   3.719 -2.8718 -1.5933  0.5748
14889TIP3   OH266157   6.353   6.158  16.614 -0.0973 -0.2406 -0.1559
14889TIP3    H166158   6.416   6.176  16.684  0.8228 -2.6034 -0.2645
14889TIP3    H266159   6.393   6.086  16.565 -3.0398 -2.1778  0.0290
14890TIP3   OH266160   0.016   5.291  15.329 -0.4859 -0.0750  0.3618
14890TIP3    H166161  -0.029   5.321  15.408 -0.4779  0.1827  0.2692
14890TIP3    H266162   0.104   5.266  15.359 -0.7998 -0.9051  0.6020
14891TIP3   OH266163   3.824   4.190   2.443  0.3649 -0.2683 -0.6154
14891TIP3    H166164   3.838   4.252   2.514  0.3593 -0.2300 -0.6481
14891TIP3    H266165   3.879   4.115   2.466 -0.9205 -0.9693  0.3112
14892TIP3   OH266166   5.269   3.642   5.327 -0.2382 -0.2626 -0.0729
14892TIP3    H166167   5.191   3.643   5.272 -0.2012 -1.2255 -0.1606
14892TIP3    H266168   5.286   3.549   5.343  1.0059 -0.0821 -0.2276
14893TIP3   OH266169   5.922   0.460   2.186  0.2737 -0.0408  0.2243
14893TIP3    H166170   5.963   0.457   2.272  0.0375 -0.6643  0.3202
14893TIP3    H266171   5.995   0.452   2.125  0.7923  3.1031  0.2418
14894TIP3   OH266172   4.706   3.816   3.477 -0.1062 -0.4887  0.7010
14894TIP3    H166173   4.733   3.727   3.452 -1.0857 -0.9804  1.3406
14894TIP3    H266174   4.643   3.803   3.547 -1.5614  0.6340 -0.3503
14895TIP3   OH266175   1.787   2.726   2.020 -0.1263  0.5371 -0.3332
14895TIP3    H166176   1.843   2.797   1.991  0.7020  0.4767  1.0197
14895TIP3    H266177   1.705   2.739   1.973  0.5804  1.3878 -1.3720
14896TIP3   OH266178   3.234   3.752  11.569  0.1545  0.0156 -0.1749
14896TIP3    H166179   3.174   3.826  11.579  1.8255  1.4890 -0.6666
14896TIP3    H266180   3.267   3.736  11.657 -1.5010 -1.3397  0.2515
14897TIP3   OH266181   2.007   6.720   4.307 -0.1782  0.3729 -0.2890
14897TIP3    H166182   2.049   6.677   4.232  0.6320 -1.0343  0.9244
14897TIP3    H266183   2.065   6.702   4.380 -1.1672  1.3679  0.7731
14898TIP3   OH266184   4.988   6.019   0.570 -0.3666  0.1946 -1.0156
14898TIP3    H166185   4.936   5.959   0.623 -0.1122  0.4464 -0.4695
14898TIP3    H266186   5.010   5.969   0.492 -0.8691 -0.1353 -0.9512
14899TIP3   OH266187   6.703   6.197   3.358  0.1607 -0.2058  0.2024
14899TIP3    H166188   6.733   6.106   3.358  0.8879  0.0297  0.4445
14899TIP3    H266189   6.703   6.222   3.266  0.5498 -0.2619  0.1850
14900TIP3   OH266190   4.788   4.190   2.456  0.9385 -0.4509  0.0174
14900TIP3    H166191   4.699   4.171   2.487  1.2437 -2.1407 -0.0661
14900TIP3    H266192   4.775   4.243   2.378  0.0583  0.6048  0.8365
14901TIP3   OH266193   1.973   5.668   3.508  0.0965 -0.3243 -0.5274
14901TIP3    H166194   1.966   5.764   3.505  1.6215 -0.1802 -0.4976
14901TIP3    H266195   2.021   5.645   3.429  2.0145 -0.7728  0.6866
14902TIP3   OH266196   4.824   3.897  16.321  0.0302 -0.5440 -1.0652
14902TIP3    H166197   4.864   3.817  16.286  1.9359 -0.0891 -0.0795
14902TIP3    H266198   4.878   3.967  16.286 -0.0329  0.1313  0.1410
14903TIP3   OH266199   2.072   0.951  15.704 -0.2293  0.3724  0.2352
14903TIP3    H166200   2.092   0.887  15.772  0.6274 -1.3715 -1.5728
14903TIP3    H266201   2.106   0.913  15.624 -1.1812  2.3679 -1.2076
14904TIP3   OH266202   1.532   3.860   1.385  0.1569  0.1544  0.2270
14904TIP3    H166203   1.485   3.886   1.305 -0.2595  1.3344  0.8268
14904TIP3    H266204   1.623   3.851   1.357 -0.2160 -1.0001 -0.7069
14905TIP3   OH266205   0.593   2.070   5.335 -0.3821  0.1082  0.5439
14905TIP3    H166206   0.613   2.018   5.258  0.7404 -0.0578  0.9251
14905TIP3    H266207   0.499   2.089   5.329 -0.3442 -0.0805 -0.7342
14906TIP3   OH266208   2.247   2.881  12.958 -0.0686  0.0533  0.3370
14906TIP3    H166209   2.292   2.955  13.001 -0.9525  1.8099 -1.5743
14906TIP3    H266210   2.219   2.916  12.873 -1.3690 -2.2390 -0.2705
14907TIP3   OH266211   2.801   2.036  12.716  0.0817 -0.5793 -0.0324
14907TIP3    H166212   2.709   2.024  12.737 -0.0720 -2.4632 -1.4853
14907TIP3    H266213   2.817   2.129  12.729 -2.6547  0.2884 -1.9869
14908TIP3   OH266214   0.064   4.950  14.017 -0.6103  0.1541  0.2751
14908TIP3    H166215   0.056   4.879  14.080  0.9714  0.1232  0.4910
14908TIP3    H266216   0.062   5.030  14.069 -1.3470  0.2288  0.1406
14909TIP3   OH266217   5.946   1.471  15.192 -0.1188  0.5762  0.4987
14909TIP3    H166218   5.953   1.376  15.206 -0.8481  0.6658  1.6327
14909TIP3    H266219   6.037   1.501  15.190  0.1271 -0.1590 -0.0407
14910TIP3   OH266220   5.708   4.083   5.068  0.0181 -0.0852 -0.0780
14910TIP3    H166221   5.787   4.130   5.042 -2.2599  3.3445 -1.5609
14910TIP3    H266222   5.705   4.092   5.163  0.5088  1.4216 -0.1739
14911TIP3   OH266223   2.916   3.471   2.106  0.1764 -0.1062 -0.1885
14911TIP3    H166224   2.950   3.489   2.018  0.8779 -0.5041 -0.0070
14911TIP3    H266225   2.936   3.550   2.156  2.9122 -1.1281  0.5088
14912TIP3   OH266226   1.461   0.826   1.021  0.2149 -0.5900 -0.2507
14912TIP3    H166227   1.457   0.736   0.988 -0.2928 -0.8145  0.3839
14912TIP3    H266228   1.376   0.840   1.063  0.0579  0.4053 -0.8713
14913TIP3   OH266229   3.390   0.833  15.347  0.2084  0.0610  0.2678
14913TIP3    H166230   3.478   0.864  15.328  0.2968 -0.2421  0.1768
14913TIP3    H266231   3.344   0.910  15.382  0.2116  0.4857 -0.6249
14914TIP3   OH266232   5.257   2.779  13.482  0.3966 -0.4533 -0.7934
14914TIP3    H166233   5.215   2.733  13.554 -0.7434 -0.1198 -1.2208
14914TIP3    H266234   5.290   2.860  13.521  0.5001 -0.6399 -0.4880
14915TIP3   OH266235   0.987   1.152   1.630  0.7388 -0.2379  0.1825
14915TIP3    H166236   1.048   1.086   1.664 -0.2352 -0.1348  2.3180
14915TIP3    H266237   1.038   1.233   1.626  0.9819 -0.3153  1.2370
14916TIP3   OH266238   5.980   1.007   3.120  0.0018  0.1099  0.0504
14916TIP3    H166239   5.970   0.943   3.049  1.2793 -0.2441  0.1675
14916TIP3    H266240   5.931   1.083   3.090 -0.5851 -0.5129 -0.6150
14917TIP3   OH266241   3.238   2.794  16.052 -0.1766 -0.7852  0.2222
14917TIP3    H166242   3.327   2.826  16.040 -0.3999 -0.6812 -1.4327
14917TIP3    H266243   3.185   2.873  16.062 -0.3577 -0.7192 -1.0700
14918TIP3   OH266244   1.370   4.448  12.320  0.0140 -0.5930 -1.0733
14918TIP3    H166245   1.374   4.460  12.415 -0.7252 -1.1233 -0.9666
14918TIP3    H266246   1.460   4.462  12.290  0.1443  0.1761 -0.3734
14919TIP3   OH266247   2.196   5.763  14.780  0.2322 -0.1700  0.1483
14919TIP3    H166248   2.227   5.740  14.868 -0.4232 -1.3618  0.1009
14919TIP3    H266249   2.275   5.769  14.727  0.5584 -0.6006  0.5782
14920TIP3   OH266250   1.473   0.135  15.014  0.1628  0.4121 -0.3496
14920TIP3    H166251   1.378   0.129  15.017  0.0980  1.5726  0.7168
14920TIP3    H266252   1.499   0.077  14.942 -1.3650  0.4083 -0.9225
14921TIP3   OH266253   4.150   5.074  12.283 -0.1944  0.1564 -0.3154
14921TIP3    H166254   4.125   5.161  12.253 -1.2874  0.0945  0.3603
14921TIP3    H266255   4.118   5.069  12.372 -0.0834 -0.9215 -0.3201
14922TIP3   OH266256   1.331   4.642  11.394 -0.1562 -0.0328  0.1546
14922TIP3    H166257   1.370   4.725  11.364  1.5924 -0.6747  0.5195
14922TIP3    H266258   1.290   4.664  11.478  0.8240  0.3532  0.5487
14923TIP3   OH266259   5.854   2.279  13.595  0.0347  0.1641  0.3580
14923TIP3    H166260   5.768   2.245  13.569  0.3380  0.1274 -0.6398
14923TIP3    H266261   5.861   2.258  13.688 -0.6715 -0.6075  0.2463
14924TIP3   OH266262   2.965   2.064   1.396 -0.0287  0.8545  0.5235
14924TIP3    H166263   2.993   2.152   1.370 -0.8357  0.8715 -0.3573
14924TIP3    H266264   2.976   2.012   1.317  2.4229 -0.3686  1.5719
14925TIP3   OH266265   4.844   3.477   6.644  0.2719  0.1398 -0.0892
14925TIP3    H166266   4.794   3.435   6.714  0.9468  0.1940  0.4249
14925TIP3    H266267   4.798   3.560   6.628 -1.5578 -1.0596 -1.6531
14926TIP3   OH266268   4.132   5.705   5.789  0.1709 -0.1267  0.2170
14926TIP3    H166269   4.040   5.723   5.805  0.0993 -1.1921  1.1275
14926TIP3    H266270   4.178   5.754   5.857  0.1691 -0.8857  0.7697
14927TIP3   OH266271   0.609   2.002  12.645  0.3264 -0.3961 -0.1642
14927TIP3    H166272   0.659   2.058  12.586 -1.8061  1.4737 -0.3549
14927TIP3    H266273   0.555   1.948  12.587 -0.5537  0.2563  0.0292
14928TIP3   OH266274   6.185   3.736  15.914 -0.0160  0.3132  0.0741
14928TIP3    H166275   6.192   3.743  16.009  1.4113  0.2861 -0.0119
14928TIP3    H266276   6.227   3.652  15.893 -2.1586 -0.7062 -0.4169
14929TIP3   OH266277   5.861   5.699  13.690  0.2842 -0.2256  0.0572
14929TIP3    H166278   5.858   5.769  13.755  1.1492 -0.6704  0.5945
14929TIP3    H266279   5.772   5.695  13.655  0.2728  1.2715 -0.1301
14930TIP3   OH266280   3.321   5.401  15.687  0.7388  0.0609  0.5214
14930TIP3    H166281   3.250   5.464  15.700  1.9038  1.9730 -1.7604
14930TIP3    H266282   3.277   5.319  15.665 -0.7746  0.5334  1.6188
14931TIP3   OH266283   0.064   2.761   3.606 -0.1649  0.2508 -0.7249
14931TIP3    H166284   0.156   2.758   3.579 -0.2250  0.4912 -0.9528
14931TIP3    H266285   0.035   2.670   3.601 -0.2535  0.3247 -1.7367
14932TIP3   OH266286   2.361   2.815  13.968 -0.5693  0.5124 -0.2977
14932TIP3    H166287   2.446   2.779  13.944  0.8322  2.0199  1.9871
14932TIP3    H266288   2.321   2.842  13.885  0.5334 -1.5082 -1.5436
14933TIP3   OH266289   1.723   2.067   0.745  0.0055  0.6693 -0.0763
14933TIP3    H166290   1.794   2.002   0.746 -1.0228 -0.5051 -0.8084
14933TIP3    H266291   1.704   2.083   0.838  0.4160  0.0773  0.1191
14934TIP3   OH266292   6.606   2.354  13.290 -0.0180  0.3389 -0.1338
14934TIP3    H166293   6.546   2.389  13.224  0.8838 -1.0227 -1.7515
14934TIP3    H266294   6.693   2.375  13.256  0.4612 -0.3960  0.6143
14935TIP3   OH266295   0.144   4.718   1.667 -0.3109  0.4951  0.2194
14935TIP3    H166296   0.172   4.809   1.660 -1.0096  0.7381  0.4336
14935TIP3    H266297   0.158   4.695   1.759  0.6428  0.1096 -0.0056
14936TIP3   OH266298   4.722   0.653   1.884  0.0227 -0.1082 -0.4340
14936TIP3    H166299   4.762   0.692   1.806  1.0412  0.8355  0.5272
14936TIP3    H266300   4.717   0.560   1.864 -2.0430  0.3645 -2.6042
14937TIP3   OH266301   2.335   4.310  16.859 -0.0359  0.4681 -0.6070
14937TIP3    H166302   2.355   4.395  16.898  0.3636 -0.8063  2.2568
14937TIP3    H266303   2.417   4.261  16.867 -1.1568 -1.2641  1.0638
14938TIP3   OH266304   4.932   3.098  15.015 -0.4122 -0.0645  0.1057
14938TIP3    H166305   4.989   3.063  15.083 -1.2373  0.1427  0.9219
14938TIP3    H266306   4.968   3.064  14.933  0.0270 -1.1086  0.7196
14939TIP3   OH266307   4.726   0.697   5.898 -0.4563 -0.3751  0.2211
14939TIP3    H166308   4.704   0.607   5.924  0.7371 -0.8794 -0.4044
14939TIP3    H266309   4.722   0.747   5.980 -1.9026 -0.8181  0.4467
14940TIP3   OH266310   5.050   3.104  11.346 -0.0396 -0.6606 -0.0932
14940TIP3    H166311   5.038   3.196  11.371  0.1509 -0.9661  1.2385
14940TIP3    H266312   5.144   3.093  11.339  0.0208 -1.0652  1.1189
14941TIP3   OH266313   0.395   2.836  13.007  0.7382 -0.3741  0.0711
14941TIP3    H166314   0.347   2.796  12.934 -1.4326  0.3981  1.0284
14941TIP3    H266315   0.367   2.788  13.084  1.7945 -0.1191  0.6416
14942TIP3   OH266316   0.278   4.501  11.315 -0.9550  0.2816 -0.3002
14942TIP3    H166317   0.352   4.458  11.272 -0.7898 -1.7670  1.8215
14942TIP3    H266318   0.223   4.532  11.243  1.4182  0.9607 -1.9266
14943TIP3   OH266319   6.323   4.758   2.456 -0.5908  0.2971  0.4903
14943TIP3    H166320   6.318   4.787   2.547  0.6549  0.5086  0.5128
14943TIP3    H266321   6.368   4.829   2.410  2.0971 -1.2842  0.4511
14944TIP3   OH266322   5.044   0.205   6.008  0.3892  0.5465 -0.1719
14944TIP3    H166323   5.089   0.172   6.086  0.6484  1.4412  0.0671
14944TIP3    H266324   5.094   0.170   5.935  1.4029  1.4254  0.0886
14945TIP3   OH266325   4.431   1.330   5.287  0.3437 -0.1765 -0.0307
14945TIP3    H166326   4.343   1.338   5.325  1.0804 -1.4100  2.1108
14945TIP3    H266327   4.488   1.373   5.350  1.6446 -2.3966  0.4076
14946TIP3   OH266328   6.062   5.561   5.246 -0.5499  0.6003 -0.9404
14946TIP3    H166329   6.026   5.491   5.300  0.5508  0.7595  0.0290
14946TIP3    H266330   6.066   5.524   5.158  0.2508 -0.6519 -0.3922
14947TIP3   OH266331   0.309   3.201   0.921 -0.0611 -0.0908 -0.2166
14947TIP3    H166332   0.372   3.206   0.850 -0.1288 -0.1200 -0.2787
14947TIP3    H266333   0.309   3.289   0.959  0.0379 -0.0983 -0.1979
14948TIP3   OH266334   2.582   0.501   1.234 -0.2638  0.3729 -0.2087
14948TIP3    H166335   2.509   0.516   1.293 -2.4810  1.6745 -3.0605
14948TIP3    H266336   2.584   0.406   1.221 -0.4537  0.1944  1.0360
14949TIP3   OH266337   4.098   5.782   2.398  0.2126  0.0133  0.1794
14949TIP3    H166338   4.090   5.847   2.328  0.9991 -0.5312 -0.4420
14949TIP3    H266339   4.076   5.699   2.356  0.1051 -0.2405  0.7356
14950TIP3   OH266340   3.255   2.812   3.793  0.4438  0.5538 -0.0064
14950TIP3    H166341   3.166   2.840   3.773 -0.1183 -0.4659  0.9458
14950TIP3    H266342   3.290   2.779   3.711  0.1206  1.3853 -0.4896
14951TIP3   OH266343   0.213   6.256  11.034 -0.4217  0.8601 -0.0073
14951TIP3    H166344   0.272   6.215  10.970  0.2166  1.1747  0.3764
14951TIP3    H266345   0.260   6.334  11.063  0.4247 -0.5234  2.6760
14952TIP3   OH266346   4.717   4.431  13.280 -0.7347 -0.1002  0.0544
14952TIP3    H166347   4.740   4.453  13.190 -1.0373  1.1281  0.2671
14952TIP3    H266348   4.744   4.506  13.331  0.9595 -1.4634  1.2531
14953TIP3   OH266349   2.590   5.087  14.022 -0.1068  0.5660 -0.0815
14953TIP3    H166350   2.676   5.044  14.026 -0.2458  0.3617  0.9135
14953TIP3    H266351   2.593   5.139  13.941  0.9244  0.5105 -0.0934
14954TIP3   OH266352   2.834   0.520  12.190 -0.6281  0.0747  0.2899
14954TIP3    H166353   2.833   0.615  12.181  0.0779 -0.0011 -0.8491
14954TIP3    H266354   2.799   0.503  12.278  1.0415  1.4755  1.2818
14955TIP3   OH266355   4.908   6.708   3.432  0.2344  0.2573 -0.0373
14955TIP3    H166356   4.957   6.786   3.406 -1.2783  1.3584  0.2477
14955TIP3    H266357   4.817   6.730   3.413 -0.4456 -0.6553  1.8943
14956TIP3   OH266358   4.019   4.413   5.284  0.0011  0.1458  0.0621
14956TIP3    H166359   4.031   4.395   5.377 -0.9340  0.8192  0.3287
14956TIP3    H266360   4.099   4.458   5.258 -0.0054  0.5443  0.7049
14957TIP3   OH266361   4.137   6.795  13.801 -0.1765 -0.0196  0.4695
14957TIP3    H166362   4.202   6.841  13.749  0.7326  0.4897  1.9941
14957TIP3    H266363   4.167   6.704  13.802 -0.2342 -0.0425  0.0550
14958TIP3   OH266364   1.387   1.778   3.846 -0.1673  0.0052  0.1867
14958TIP3    H166365   1.424   1.834   3.914  0.4628  2.4829 -2.0001
14958TIP3    H266366   1.462   1.755   3.791 -1.0092  0.5658 -1.2730
14959TIP3   OH266367   0.298   2.007   0.108 -0.7538 -0.5237  0.7239
14959TIP3    H166368   0.284   1.934   0.168 -1.6923 -1.3588 -0.4432
14959TIP3    H266369   0.211   2.024   0.072 -0.1866 -0.1733 -0.5247
14960TIP3   OH266370   2.507   3.867   1.814 -0.8660 -0.1375  0.0372
14960TIP3    H166371   2.444   3.816   1.761  0.3727  0.0840 -1.7482
14960TIP3    H266372   2.524   3.945   1.761 -2.3041  1.9593  2.4657
14961TIP3   OH266373   1.081   1.867  15.908  0.7209  0.2728  0.0584
14961TIP3    H166374   1.018   1.938  15.905 -0.1088 -0.3994  1.0355
14961TIP3    H266375   1.153   1.896  15.852 -0.2337  1.2563 -0.6857
14962TIP3   OH266376   1.425   1.839  15.750  0.0913  0.0795  0.2503
14962TIP3    H166377   1.440   1.763  15.805 -0.5655  0.0184  0.3509
14962TIP3    H266378   1.337   1.827  15.716 -0.5254  1.4286  1.2760
14963TIP3   OH266379   3.964   0.128   5.564 -0.2997  0.1670  0.2034
14963TIP3    H166380   4.004   0.060   5.510 -3.6396 -0.3864 -1.8490
14963TIP3    H266381   4.020   0.205   5.551  0.6015 -0.7622 -1.8081
14964TIP3   OH266382   5.687   5.679  15.788 -0.0273 -0.4239  0.2256
14964TIP3    H166383   5.752   5.737  15.828 -0.5830 -0.0584  0.6115
14964TIP3    H266384   5.649   5.631  15.861 -1.5208  0.7185  0.2585
14965TIP3   OH266385   5.878   6.401   5.826 -0.0769 -0.2851  0.5977
14965TIP3    H166386   5.923   6.354   5.897 -1.3322  0.2168  1.7680
14965TIP3    H266387   5.865   6.490   5.860 -1.5399 -0.2905  0.1272
14966TIP3   OH266388   0.035   6.107   0.006 -0.1375  0.2212  0.2820
14966TIP3    H166389   0.114   6.086  -0.045 -1.0009 -1.0022 -0.6164
14966TIP3    H266390   0.056   6.189   0.050  1.1731  0.5891 -0.9476
14967TIP3   OH266391   4.337   4.714  11.291  0.2959  0.1661 -0.3863
14967TIP3    H166392   4.281   4.787  11.319 -0.5951 -0.8461  0.5788
14967TIP3    H266393   4.278   4.652  11.250  1.1506  0.2554 -1.8161
14968TIP3   OH266394   3.038   2.882   5.790  0.3212  0.0593 -0.2033
14968TIP3    H166395   3.122   2.922   5.813  0.7109 -0.6114 -0.4468
14968TIP3    H266396   2.985   2.890   5.869  1.1476 -0.9102  0.4651
14969TIP3   OH266397   5.090   1.972  13.979  0.2469 -0.3597 -0.3455
14969TIP3    H166398   5.081   2.038  13.911  1.6190  2.5209  2.0345
14969TIP3    H266399   5.184   1.967  13.997 -0.0060 -1.5066  0.8699
14970TIP3   OH266400   3.541   3.793   5.365 -0.6278 -0.2788  0.1441
14970TIP3    H166401   3.501   3.839   5.439 -0.9998  0.0983 -0.2821
14970TIP3    H266402   3.628   3.830   5.357 -1.1348  0.8200 -0.5788
14971TIP3   OH266403   5.240   0.939  15.137 -0.0206 -0.0939 -0.0696
14971TIP3    H166404   5.290   0.869  15.095 -3.2156 -2.5790 -0.1335
14971TIP3    H266405   5.174   0.964  15.072 -0.8265  0.8107  1.0551
14972TIP3   OH266406   0.897   4.695   0.921  0.5852  0.2537  0.4054
14972TIP3    H166407   0.855   4.683   1.006  0.8958 -0.2835  0.4915
14972TIP3    H266408   0.826   4.718   0.862 -0.0523 -1.7957  0.2956
14973TIP3   OH266409   5.663   6.467   5.482 -0.2333  0.0152  0.4192
14973TIP3    H166410   5.622   6.399   5.536  0.2398  0.4209  1.3125
14973TIP3    H266411   5.589   6.514   5.444 -0.6193  0.3098  1.4728
14974TIP3   OH266412   2.888   0.357  15.609 -0.4660 -0.8973  0.1816
14974TIP3    H166413   2.979   0.384  15.600 -0.7242 -0.3174 -0.7896
14974TIP3    H266414   2.880   0.330  15.701 -0.4401  3.4841  1.7180
14975TIP3   OH266415   4.247   3.971  10.752 -0.3652 -0.5345 -0.0535
14975TIP3    H166416   4.328   3.959  10.704 -1.1443 -0.9873 -1.2862
14975TIP3    H266417   4.237   3.890  10.803  0.2355 -0.2318  0.5697
14976TIP3   OH266418   6.502   2.524  15.880 -0.0309 -0.3765 -0.1944
14976TIP3    H166419   6.479   2.593  15.818  3.6703  0.2276 -1.1365
14976TIP3    H266420   6.543   2.570  15.954 -0.1832 -1.3888  0.5406
14977TIP3   OH266421   2.031   2.724   5.086  0.5293  0.0713 -0.2618
14977TIP3    H166422   2.056   2.724   5.178  1.5962 -2.3011 -0.5089
14977TIP3    H266423   1.952   2.670   5.082  1.1023 -0.7499 -0.8640
14978TIP3   OH266424   1.550   2.615   5.302  0.4928  0.5099  0.3862
14978TIP3    H166425   1.616   2.549   5.325 -0.5223 -0.4388  0.6447
14978TIP3    H266426   1.544   2.611   5.207  0.9447  0.7382  0.3462
14979TIP3   OH266427   4.928   3.645   2.722 -0.0831 -0.2352 -0.5456
14979TIP3    H166428   5.016   3.609   2.712 -0.9081 -2.0199 -2.1063
14979TIP3    H266429   4.932   3.697   2.802  2.2832 -0.5432 -0.3936
14980TIP3   OH266430   3.143   5.191  13.991  0.4414 -0.1111  0.5373
14980TIP3    H166431   3.109   5.194  14.081 -0.7583 -3.5306  0.3375
14980TIP3    H266432   3.065   5.185  13.937  1.1860  1.0037 -0.6955
14981TIP3   OH266433   0.688   2.393   0.005  0.3095 -0.0004 -0.1141
14981TIP3    H166434   0.723   2.327   0.065  1.9046 -0.5806 -1.5688
14981TIP3    H266435   0.642   2.455   0.061  0.9691 -0.9776  1.5902
14982TIP3   OH266436   0.285   3.153  11.292  0.2134 -0.6379  0.1076
14982TIP3    H166437   0.198   3.177  11.324  0.3751 -0.1918  0.2157
14982TIP3    H266438   0.304   3.069  11.333  0.4747 -0.0087  1.3066
14983TIP3   OH266439   1.521   3.454   2.989  0.2669 -0.8934  0.2669
14983TIP3    H166440   1.596   3.486   2.939  1.0174 -1.4069  1.0368
14983TIP3    H266441   1.492   3.377   2.941 -0.1904 -0.3253 -0.3916
14984TIP3   OH266442   3.913   4.626  15.844 -0.4900  0.4237 -0.5737
14984TIP3    H166443   3.924   4.538  15.882 -1.7891  0.2856 -0.4819
14984TIP3    H266444   3.953   4.685  15.908  0.5950 -0.1002 -0.7373
14985TIP3   OH266445   0.791   3.568   0.873  0.4495 -0.2261 -0.1302
14985TIP3    H166446   0.745   3.549   0.792  0.3196 -0.7766  0.0659
14985TIP3    H266447   0.774   3.661   0.889 -2.2362 -0.7858  0.9277
14986TIP3   OH266448   0.459   3.202   3.340 -0.5021 -0.1082 -0.1109
14986TIP3    H166449   0.426   3.280   3.385 -1.1525  0.0533 -0.8565
14986TIP3    H266450   0.551   3.196   3.367 -1.0108 -0.3329  1.6788
14987TIP3   OH266451   4.993   6.165   0.985 -0.2740  0.2971 -0.2069
14987TIP3    H166452   5.062   6.120   0.936  0.1441  0.1438  0.5059
14987TIP3    H266453   5.040   6.229   1.039 -0.7947  1.0359 -0.6158
14988TIP3   OH266454   4.925   5.180   5.979  0.3266 -0.5500  0.1094
14988TIP3    H166455   4.883   5.116   6.036  1.0128  1.2941  2.9171
14988TIP3    H266456   5.017   5.153   5.976  0.1127 -1.2160 -1.0521
14989TIP3   OH266457   5.643   5.618  16.916  0.4308 -0.4865  0.0147
14989TIP3    H166458   5.566   5.643  16.865 -0.7341 -2.0936  0.9104
14989TIP3    H266459   5.701   5.694  16.910 -0.9525  0.5297 -1.1821
14990TIP3   OH266460   3.325   1.083   2.675  0.7686 -0.1253  0.3808
14990TIP3    H166461   3.391   1.105   2.610  0.9201 -0.2765  0.4827
14990TIP3    H266462   3.318   1.162   2.730  0.6318  0.0060  0.1747
14991TIP3   OH266463   5.378   6.188   4.372 -0.1112  0.1494 -0.3016
14991TIP3    H166464   5.341   6.108   4.409 -0.6876  0.1039 -0.9556
14991TIP3    H266465   5.302   6.239   4.343  0.2620  0.8182 -0.1343
14992TIP3   OH266466   6.228   4.278  15.251  0.4738  0.3750  0.2262
14992TIP3    H166467   6.321   4.266  15.235  0.4795  1.5404 -0.7077
14992TIP3    H266468   6.191   4.301  15.166 -0.8683 -1.0798  0.3481
14993TIP3   OH266469   4.890   4.723   2.459  0.0797  0.3313 -0.2217
14993TIP3    H166470   4.950   4.705   2.387 -0.2603  1.0131 -0.6833
14993TIP3    H266471   4.897   4.817   2.473  2.2736 -0.0713  2.5355
14994TIP3   OH266472   2.538   4.828  11.646  0.8357 -0.4290  0.0309
14994TIP3    H166473   2.571   4.832  11.556 -2.2775 -0.3547 -1.2333
14994TIP3    H266474   2.493   4.911  11.659 -1.5090 -1.6653  0.4208
14995TIP3   OH266475   4.187   2.442  15.223  0.1161  0.0442 -0.4245
14995TIP3    H166476   4.215   2.358  15.189  0.6363 -0.0829  0.2959
14995TIP3    H266477   4.247   2.460  15.295 -0.2412  0.8416 -0.3137
14996TIP3   OH266478   5.551   3.866   1.047  0.2522 -0.3567  0.0680
14996TIP3    H166479   5.488   3.805   1.084  1.6691 -0.8497  1.8276
14996TIP3    H266480   5.601   3.814   0.984  0.5409 -0.6505  0.5352
14997TIP3   OH266481   3.911   2.079   3.458 -0.1356 -0.0124 -0.0663
14997TIP3    H166482   3.828   2.078   3.506  0.5366  1.0181  1.2188
14997TIP3    H266483   3.938   2.171   3.460 -0.0949  0.0807 -2.5343
14998TIP3   OH266484   6.060   0.494  13.133  0.7333  0.2249 -0.1539
14998TIP3    H166485   6.143   0.465  13.095 -0.1971  0.0484 -2.2031
14998TIP3    H266486   5.997   0.487  13.061 -0.6973  2.0525  0.8189
14999TIP3   OH266487   4.041   6.520  16.426  0.2019 -0.3175 -0.2573
14999TIP3    H166488   4.045   6.599  16.372  2.4743  0.5493  1.0270
14999TIP3    H266489   4.030   6.448  16.364 -0.2434  0.8601 -1.5904
15000TIP3   OH266490   3.433   0.405   4.955  1.0424  0.1630 -0.3920
15000TIP3    H166491   3.504   0.452   4.998 -0.5794  1.7219  0.7003
15000TIP3    H266492   3.400   0.465   4.888 -0.1842  0.1113  0.1226
15001TIP3   OH266493   2.224   4.757  11.302 -0.4386 -0.5108 -0.1686
15001TIP3    H166494   2.178   4.779  11.383 -1.0499 -0.1343 -0.6120
15001TIP3    H266495   2.300   4.816  11.299  0.1018 -1.1457  0.5743
15002TIP3   OH266496   4.608   6.634   1.722 -0.3378  0.0157 -0.8267
15002TIP3    H166497   4.669   6.592   1.784  0.1833 -2.0370 -2.6287
15002TIP3    H266498   4.663   6.661   1.649 -1.0017  2.1509 -0.6212
15003TIP3   OH266499   0.364   5.805  11.800 -0.2252 -0.5509 -0.0072
15003TIP3    H166500   0.380   5.737  11.734 -2.9226 -0.6508 -0.6477
15003TIP3    H266501   0.309   5.869  11.756 -0.6771  0.2530  1.6618
15004TIP3   OH266502   1.840   1.916   1.333  0.1619  0.3528  0.0686
15004TIP3    H166503   1.871   1.835   1.292 -2.3802 -0.9484  0.5207
15004TIP3    H266504   1.919   1.965   1.353  1.8528 -2.3955  0.5494
15005TIP3   OH266505   1.852   2.780  10.482 -0.8751  0.1403  0.4459
15005TIP3    H166506   1.871   2.871  10.502 -1.3718  0.6135 -1.0889
15005TIP3    H266507   1.882   2.769  10.391 -0.9331 -1.1915  0.5655
15006TIP3   OH266508   3.761   2.239   5.035 -0.5915 -0.1147 -0.2733
15006TIP3    H166509   3.834   2.247   4.973  0.0225  0.6006  0.5108
15006TIP3    H266510   3.724   2.327   5.039  0.5954  0.3686  1.7871
15007TIP3   OH266511   1.339   2.239   2.026  0.4521  0.6483  0.4726
15007TIP3    H166512   1.370   2.190   1.950 -0.8683 -0.8342  0.8266
15007TIP3    H266513   1.383   2.199   2.101 -2.1468 -1.5647  0.9942
15008TIP3   OH266514   6.322   2.378   2.211  0.1871  0.3334  0.3655
15008TIP3    H166515   6.333   2.356   2.304 -2.4398 -0.6922  0.5230
15008TIP3    H266516   6.257   2.449   2.211 -0.1076  0.0786 -0.6991
15009TIP3   OH266517   2.579   1.528  15.179 -0.3418 -0.3867  0.2237
15009TIP3    H166518   2.547   1.610  15.141 -0.0069  0.4035  1.5793
15009TIP3    H266519   2.674   1.531  15.166 -0.4401 -1.1125 -0.7385
15010TIP3   OH266520   6.191   6.203   2.331 -0.3532 -0.3202  0.6966
15010TIP3    H166521   6.268   6.257   2.349  0.1824 -0.8284 -0.0226
15010TIP3    H266522   6.167   6.224   2.241 -0.6318 -0.6859  0.6848
15011TIP3   OH266523   6.782   2.100  14.238 -0.5715 -0.0536  0.2351
15011TIP3    H166524   6.797   2.122  14.330 -0.4666  0.7795  0.0315
15011TIP3    H266525   6.812   2.177  14.190 -2.2137  0.2393 -0.3929
15012TIP3   OH266526   4.432   6.721   0.283 -0.8868  0.0823  0.7469
15012TIP3    H166527   4.405   6.719   0.191 -0.9840  0.4729  0.7654
15012TIP3    H266528   4.393   6.642   0.321 -0.3699 -0.3920  0.3276
15013TIP3   OH266529   5.318   3.746  14.862 -0.0955 -0.2907  0.3299
15013TIP3    H166530   5.313   3.708  14.950  1.6879 -0.0160  0.5913
15013TIP3    H266531   5.389   3.699  14.820 -1.1159 -0.6064 -1.0891
15014TIP3   OH266532   0.773   2.962   3.735 -0.5769  0.0659  0.3805
15014TIP3    H166533   0.803   2.984   3.823  0.6741 -1.0706  0.2636
15014TIP3    H266534   0.853   2.966   3.681 -1.1560 -0.1958 -0.5139
15015TIP3   OH266535   0.033   4.147   1.448  0.3452  0.2158 -0.7652
15015TIP3    H166536   0.088   4.226   1.449  1.0564 -0.2707 -0.3507
15015TIP3    H266537   0.048   4.107   1.534  1.2396 -1.2184 -1.5637
15016TIP3   OH266538   1.423   4.673   1.621  0.2459  0.4714  0.0356
15016TIP3    H166539   1.449   4.639   1.536 -0.9981  1.1280 -0.6370
15016TIP3    H266540   1.502   4.716   1.654  1.4192 -1.7186  0.2748
15017TIP3   OH266541   0.326   4.078  16.012 -0.1668  0.2576  0.1138
15017TIP3    H166542   0.403   4.128  16.040 -0.1654 -0.5145  1.6049
15017TIP3    H266543   0.273   4.069  16.092 -0.3799 -1.7160 -0.2161
15018TIP3   OH266544   5.701   4.763   3.437 -0.4527  0.0453 -0.1888
15018TIP3    H166545   5.774   4.821   3.458 -1.8421  1.0990  2.1498
15018TIP3    H266546   5.650   4.809   3.371  0.8241 -0.6301 -1.7225
15019TIP3   OH266547   1.783   5.454   2.598 -0.4993  0.8071  1.2103
15019TIP3    H166548   1.713   5.405   2.554 -0.4059  0.0558  1.8892
15019TIP3    H266549   1.746   5.542   2.611 -1.2903  0.4349  1.5147
15020TIP3   OH266550   0.532   3.200   2.363  0.2813  0.1104 -0.0689
15020TIP3    H166551   0.442   3.214   2.335  0.2680 -0.4070 -0.2907
15020TIP3    H266552   0.556   3.115   2.326 -0.0857 -1.1124  2.3525
15021TIP3   OH266553   2.960   1.423   5.864 -0.0021  0.2703  0.1909
15021TIP3    H166554   2.920   1.362   5.926 -0.5856  1.1172  0.6723
15021TIP3    H266555   2.988   1.497   5.919 -0.2411  0.8927 -0.5182
15022TIP3   OH266556   0.301   6.576  11.700 -0.0521 -0.3193 -0.5181
15022TIP3    H166557   0.320   6.646  11.762 -0.5511 -1.2154  0.6910
15022TIP3    H266558   0.214   6.597  11.665 -1.0711 -1.2915  1.2901
15023TIP3   OH266559   0.976   4.710   2.814  0.1669  0.1562  0.0954
15023TIP3    H166560   1.067   4.680   2.816 -0.5192 -2.0712  1.9056
15023TIP3    H266561   0.965   4.760   2.895 -0.7368 -1.5128  1.0638
15024TIP3   OH266562   3.093   3.087  14.371 -0.1449 -0.1937 -0.0693
15024TIP3    H166563   3.103   3.160  14.432 -0.6303 -0.6797  0.6062
15024TIP3    H266564   3.010   3.046  14.396 -0.2897 -0.4772 -0.9795
15025TIP3   OH266565   6.267   2.419   2.768 -0.0829 -0.3369  0.1097
15025TIP3    H166566   6.197   2.359   2.796 -0.1068  0.2012  1.2264
15025TIP3    H266567   6.229   2.506   2.777  0.2278 -0.1047 -0.7469
15026TIP3   OH266568   4.951   0.488  13.975  0.0044 -0.1154  0.0836
15026TIP3    H166569   4.987   0.470  14.062 -3.1111 -2.6398  1.0514
15026TIP3    H266570   4.943   0.402  13.934 -0.1028  0.8666 -2.0920
15027TIP3   OH266571   5.143   4.442   3.875  0.1284 -0.1339  0.3224
15027TIP3    H166572   5.161   4.356   3.913  1.1693 -0.2684 -0.4334
15027TIP3    H266573   5.214   4.497   3.908 -0.4340  0.4093  0.6572
15028TIP3   OH266574   6.222   0.986   1.536  0.0864 -0.7532 -0.2362
15028TIP3    H166575   6.211   1.017   1.626  2.0409  1.5055 -0.6730
15028TIP3    H266576   6.288   0.916   1.543 -1.8393 -2.6406  0.3313
15029TIP3   OH266577   2.545   2.960  14.336 -0.0246 -0.1195 -0.6277
15029TIP3    H166578   2.584   2.881  14.299  0.1276 -0.3119 -0.0755
15029TIP3    H266579   2.453   2.957  14.309 -0.1856 -0.8521 -0.0285
15030TIP3   OH266580   5.835   5.459  15.994  0.1196 -0.1959 -0.2474
15030TIP3    H166581   5.740   5.457  16.011 -0.1316 -1.3504 -1.5994
15030TIP3    H266582   5.870   5.388  16.048  0.5881  1.5847  1.9503
15031TIP3   OH266583   4.824   4.203   4.653 -0.1874 -0.1182  0.0773
15031TIP3    H166584   4.802   4.111   4.662 -0.8095  0.0892  0.7701
15031TIP3    H266585   4.910   4.203   4.611 -0.6732 -0.9821 -0.9682
15032TIP3   OH266586   5.170   2.598  10.289  0.2462  0.3130  0.0183
15032TIP3    H166587   5.115   2.591  10.211  0.1407 -1.8094  0.2305
15032TIP3    H266588   5.112   2.577  10.362  1.4348 -3.2458  0.1521
15033TIP3   OH266589   1.880   4.373   0.786 -0.0039  0.4262  0.3026
15033TIP3    H166590   1.943   4.366   0.714  0.8784  1.5315  0.9164
15033TIP3    H266591   1.916   4.316   0.854 -0.4025  0.0010  0.1534
15034TIP3   OH266592   5.880   5.298   1.580  0.2201  0.6232 -0.1454
15034TIP3    H166593   5.880   5.215   1.532 -1.6431 -0.0404  0.8896
15034TIP3    H266594   5.829   5.357   1.525  0.6394  0.7666 -0.3823
15035TIP3   OH266595   5.445   6.615  11.169 -0.0479  0.2703 -0.2541
15035TIP3    H166596   5.449   6.590  11.077  0.8631  2.9757 -1.0520
15035TIP3    H266597   5.372   6.677  11.174  0.9434  1.4336  0.4454
15036TIP3   OH266598   3.998   2.708   3.232 -0.9699  0.1318 -0.3865
15036TIP3    H166599   4.017   2.790   3.279  0.0871 -0.2139 -0.1948
15036TIP3    H266600   3.979   2.645   3.302  0.4076 -0.3334 -0.4065
15037TIP3   OH266601   1.673   6.804  16.925 -0.1738  0.6335  0.1900
15037TIP3    H166602   1.757   6.837  16.892 -1.2611  2.3227 -1.0957
15037TIP3    H266603   1.671   6.831  17.017  1.2315 -0.6113  0.6116
15038TIP3   OH266604   0.629   1.135   3.130 -0.3802  0.3427  0.4156
15038TIP3    H166605   0.585   1.217   3.111  2.2500  1.1882 -3.0493
15038TIP3    H266606   0.583   1.070   3.077  0.4668  0.5936 -0.6587
15039TIP3   OH266607   1.787   1.349  14.280 -0.3335 -0.0664  1.0903
15039TIP3    H166608   1.831   1.330  14.363  0.6155  0.9576  0.8570
15039TIP3    H266609   1.694   1.337  14.298 -0.1760  0.5968  2.4370
15040TIP3   OH266610   3.769   5.449   5.457  0.0577  0.1516  0.2820
15040TIP3    H166611   3.820   5.488   5.385 -1.0200  0.8939 -0.1031
15040TIP3    H266612   3.728   5.372   5.418 -1.9311  1.5180 -0.4337
15041TIP3   OH266613   3.391   0.502  14.892 -0.2910 -0.0389 -0.3975
15041TIP3    H166614   3.319   0.557  14.863  0.5492  0.4768 -1.5464
15041TIP3    H266615   3.376   0.491  14.986 -0.7009  1.8055 -0.2163
15042TIP3   OH266616   6.369   5.389  15.635 -0.0855  0.1547  0.5866
15042TIP3    H166617   6.349   5.295  15.633  0.2222  0.0917 -1.1872
15042TIP3    H266618   6.442   5.396  15.696 -0.6926 -0.6253  1.4341
15043TIP3   OH266619   5.253   4.005  13.308  0.6630  0.0579  0.2112
15043TIP3    H166620   5.188   3.997  13.238  0.6463  2.5483 -0.1525
15043TIP3    H266621   5.266   4.099  13.318  2.5079 -0.3041  1.8924
15044TIP3   OH266622   2.682   0.064  15.623 -0.7323 -0.6180  0.2734
15044TIP3    H166623   2.710  -0.025  15.601 -1.4237 -1.0255  0.9616
15044TIP3    H266624   2.700   0.072  15.716 -0.9645 -0.1476  0.2801
15045TIP3   OH266625   2.706   3.686  13.203  0.0292  0.0639  0.4272
15045TIP3    H166626   2.648   3.626  13.155  0.4407  0.2465 -0.3209
15045TIP3    H266627   2.793   3.647  13.195 -0.0079 -0.3246  1.7422
15046TIP3   OH266628   0.060   0.230  16.467 -0.3897 -0.3137 -0.4190
15046TIP3    H166629   0.115   0.170  16.517 -1.6282  0.2561  1.7303
15046TIP3    H266630   0.011   0.174  16.407 -0.1380 -1.2311  0.2116
15047TIP3   OH266631   5.332   4.168   1.930  0.3694 -0.0602 -0.0121
15047TIP3    H166632   5.269   4.239   1.942 -1.2782 -1.6769  1.5622
15047TIP3    H266633   5.302   4.099   1.988  2.3933 -1.7610 -0.8409
15048TIP3   OH266634   0.031   3.769  11.704  0.2555 -0.5265 -0.3927
15048TIP3    H166635  -0.045   3.713  11.690 -0.9682  0.8194  0.6254
15048TIP3    H266636   0.055   3.798  11.617 -1.3505  0.2220 -0.6176
15049TIP3   OH266637   1.068   4.867   5.462 -0.2742 -0.1209  0.1630
15049TIP3    H166638   1.110   4.784   5.439 -0.5488  0.1363 -1.3816
15049TIP3    H266639   1.135   4.933   5.447 -0.8823  0.1976 -1.4372
15050TIP3   OH266640   3.596   5.930  16.291  0.4285 -0.0039  0.1576
15050TIP3    H166641   3.516   5.970  16.255  1.3313  2.3533  0.5470
15050TIP3    H266642   3.565   5.858  16.346 -1.5164  1.3678  0.9730
15051TIP3   OH266643   5.876   6.825   4.035  0.0418 -0.3215  0.4978
15051TIP3    H166644   5.911   6.743   4.000 -0.9066  0.2239 -1.9265
15051TIP3    H266645   5.781   6.815   4.030 -0.2153 -0.4690  3.7875
15052TIP3   OH266646   3.181   0.627  10.908  0.0450  0.1668 -0.0224
15052TIP3    H166647   3.098   0.579  10.904  0.1666 -0.0657  0.2230
15052TIP3    H266648   3.247   0.559  10.920  0.1895  0.4211  0.6131
15053TIP3   OH266649   6.310   2.450  16.746 -0.0400  0.1020  0.1253
15053TIP3    H166650   6.230   2.470  16.697  0.5137  0.8251 -0.5152
15053TIP3    H266651   6.362   2.530  16.740  0.5244 -0.1878  0.9585
15054TIP3   OH266652   1.193   0.413   2.748 -0.5088  0.0308  0.0804
15054TIP3    H166653   1.236   0.340   2.704  2.1388  1.5793 -0.1614
15054TIP3    H266654   1.112   0.428   2.698  0.4131 -0.8148 -1.7634
15055TIP3   OH266655   5.832   6.151  13.241 -0.2479 -0.2666  0.2230
15055TIP3    H166656   5.861   6.226  13.190 -1.7088  0.8441  0.9547
15055TIP3    H266657   5.773   6.104  13.182  0.1125 -0.4474  0.0049
15056TIP3   OH266658   1.234   5.782   5.999 -0.5041  0.0294  0.4393
15056TIP3    H166659   1.222   5.861   6.051  1.2677 -0.8765  2.3717
15056TIP3    H266660   1.188   5.714   6.048  0.2617 -0.6303  0.2690
15057TIP3   OH266661   4.101   3.671  15.037 -0.2036 -0.4395 -0.5398
15057TIP3    H166662   4.115   3.576  15.043 -1.4890 -0.8284 -2.5045
15057TIP3    H266663   4.018   3.686  15.083  1.0861  0.1408  1.7207
15058TIP3   OH266664   6.598   2.478  12.897  0.6097 -0.2789 -0.5112
15058TIP3    H166665   6.574   2.554  12.844 -0.6258  1.0303  1.7460
15058TIP3    H266666   6.631   2.414  12.834  0.7959  1.7520 -2.6202
15059TIP3   OH266667   4.116   5.701  16.480  0.3076 -0.6026 -0.5328
15059TIP3    H166668   4.114   5.736  16.391 -3.2124  0.1306 -0.3062
15059TIP3    H266669   4.130   5.607  16.468  1.8801 -0.2762 -1.6583
15060TIP3   OH266670   1.147   1.659   0.553  0.1100 -0.0440  0.0151
15060TIP3    H166671   1.105   1.719   0.614 -2.0490 -0.8611 -0.5940
15060TIP3    H266672   1.142   1.703   0.468 -0.8497 -0.7402 -0.3095
15061TIP3   OH266673   5.854   2.171   5.582 -0.0482 -0.3959 -0.1757
15061TIP3    H166674   5.832   2.158   5.675 -2.8633  0.5635 -0.6032
15061TIP3    H266675   5.811   2.099   5.537 -2.3752  1.4314 -1.0604
15062TIP3   OH266676   1.795   6.810   5.591  0.0865 -1.1325 -0.0621
15062TIP3    H166677   1.701   6.829   5.594  0.1598 -0.5199 -1.2101
15062TIP3    H266678   1.804   6.743   5.523  0.4309 -1.6383  0.4616
15063TIP3   OH266679   1.031   5.770  16.362  0.0399 -0.7250  0.2994
15063TIP3    H166680   0.968   5.708  16.399 -0.1224 -0.4808  0.4334
15063TIP3    H266681   1.100   5.715  16.326 -0.7225 -1.0413 -0.7287
15064TIP3   OH266682   3.572   5.942   5.978  0.1633  0.0611 -0.6348
15064TIP3    H166683   3.605   5.980   5.897 -0.6233 -0.6908 -1.3209
15064TIP3    H266684   3.568   5.848   5.962  0.6576 -0.1793  0.5213
15065TIP3   OH266685   5.341   4.341  14.711  0.1366 -0.3878 -0.8091
15065TIP3    H166686   5.321   4.273  14.775 -0.8222  0.7567  0.1516
15065TIP3    H266687   5.362   4.418  14.763  2.2461 -0.1940 -1.8667
15066TIP3   OH266688   6.042   3.671   5.392  0.1902 -0.2948 -0.4345
15066TIP3    H166689   6.013   3.729   5.462  0.6623 -0.3032 -0.2286
15066TIP3    H266690   5.991   3.699   5.316  0.8243  0.7929 -0.4925
15067TIP3   OH266691   4.078   2.652  16.334 -0.1378  0.0990 -0.3613
15067TIP3    H166692   4.122   2.663  16.419 -1.0109 -0.0645  0.1164
15067TIP3    H266693   3.989   2.682  16.348 -0.6116 -0.9764 -0.9168
15068TIP3   OH266694   1.510   6.827   4.146  0.1066 -0.4649 -0.3063
15068TIP3    H166695   1.465   6.747   4.117  2.2937 -1.6775 -0.6212
15068TIP3    H266696   1.566   6.798   4.219 -0.7771  1.2999  1.1394
15069TIP3   OH266697   5.006   4.392   5.047  0.0956  0.0238  0.4261
15069TIP3    H166698   4.928   4.340   5.063 -0.2076  0.8259  1.6904
15069TIP3    H266699   5.078   4.341   5.084 -0.0929  0.1321  0.9506
15070TIP3   OH266700   2.561   5.093  14.734  0.3427  0.3156  0.0508
15070TIP3    H166701   2.603   5.117  14.817  1.9516 -3.2046  0.4672
15070TIP3    H266702   2.469   5.084  14.756  0.0615  3.2497  0.4027
15071TIP3   OH266703   5.335   1.572  15.744 -0.0602 -0.3095  0.1181
15071TIP3    H166704   5.312   1.480  15.734  0.0760 -0.5836  1.9799
15071TIP3    H266705   5.425   1.571  15.777  0.0910  0.5122 -0.2465
15072TIP3   OH266706   4.386   0.830  14.152  0.4794  0.2342  0.1640
15072TIP3    H166707   4.432   0.747  14.166  0.3508  0.0797 -0.3044
15072TIP3    H266708   4.305   0.805  14.107  0.3198  0.5883  0.2517
15073TIP3   OH266709   5.216   3.271  14.453 -0.0883 -0.3996 -0.1152
15073TIP3    H166710   5.277   3.278  14.380 -1.7976  1.5697 -1.4845
15073TIP3    H266711   5.270   3.253  14.529  2.0386  0.1237 -1.4356
15074TIP3   OH266712   5.227   2.019   3.573  0.3479  0.4997 -0.0856
15074TIP3    H166713   5.220   1.949   3.638  1.7532 -0.3878 -0.8501
15074TIP3    H266714   5.138   2.035   3.545 -0.4192  1.3731  2.5182
15075TIP3   OH266715   5.140   6.687  10.713  0.2724 -0.4151  0.3029
15075TIP3    H166716   5.154   6.747  10.787  0.9410 -0.5523  0.2927
15075TIP3    H266717   5.056   6.645  10.733  0.1627 -0.0246  0.6917
15076TIP3   OH266718   4.335   4.340   0.791 -0.6597  0.7009  0.4427
15076TIP3    H166719   4.411   4.295   0.827 -0.2328  0.4738 -0.7205
15076TIP3    H266720   4.261   4.303   0.839 -0.1280  0.2334  0.9167
15077TIP3   OH266721   5.536   1.268   3.429  0.3529 -0.0556 -0.4115
15077TIP3    H166722   5.441   1.273   3.424  0.2068 -1.9393 -0.2350
15077TIP3    H266723   5.554   1.183   3.470  2.0789  1.2482  1.7649
15078TIP3   OH266724   5.246   0.757  14.077  0.4289  0.5583 -0.1655
15078TIP3    H166725   5.312   0.789  14.015  0.9812 -1.3394 -0.6365
15078TIP3    H266726   5.184   0.708  14.023  0.0979  0.1106  0.6079
15079TIP3   OH266727   3.204   5.114   3.508  0.3943 -0.2631 -0.2805
15079TIP3    H166728   3.125   5.065   3.482  0.5465 -0.2970 -0.6853
15079TIP3    H266729   3.276   5.068   3.464  0.7105 -0.5624  0.5228
15080TIP3   OH266730   3.197   1.819  16.537  0.3000 -0.3106 -0.5095
15080TIP3    H166731   3.104   1.821  16.561  0.0467 -1.6885 -1.2548
15080TIP3    H266732   3.205   1.884  16.467 -0.3162 -0.8272 -1.0812
15081TIP3   OH266733   1.679   1.930   4.306  0.0956  0.5488  0.7523
15081TIP3    H166734   1.616   2.002   4.312 -1.0379 -0.4389  1.0751
15081TIP3    H266735   1.653   1.883   4.227  3.5696  2.9338 -2.1348
15082TIP3   OH266736   2.479   2.281   3.309 -0.1304 -0.1690  0.1263
15082TIP3    H166737   2.504   2.368   3.279  0.0627 -0.2397  0.0795
15082TIP3    H266738   2.546   2.256   3.372  0.0885 -0.4813 -0.2202
15083TIP3   OH266739   5.523   2.579   2.275  0.6201 -0.2265  0.1904
15083TIP3    H166740   5.503   2.516   2.206  1.7818 -0.3065 -0.0769
15083TIP3    H266741   5.615   2.600   2.264  0.4800  0.8308  0.8514
15084TIP3   OH266742   3.515   2.217  16.990  0.2605 -0.3523  0.2183
15084TIP3    H166743   3.534   2.245  17.079 -0.1458  0.8729 -0.0603
15084TIP3    H266744   3.517   2.121  16.993 -1.0015 -0.3554  1.8017
15085TIP3   OH266745   0.713   5.970   4.537  0.2148  0.2872  0.2103
15085TIP3    H166746   0.740   5.951   4.447  0.7364  0.6206  0.2891
15085TIP3    H266747   0.624   5.937   4.543  0.6166 -0.9060 -0.0498
15086TIP3   OH266748   5.352   1.259   0.829  0.1595 -0.5602  0.5373
15086TIP3    H166749   5.345   1.305   0.745  1.8714 -0.0096  0.6448
15086TIP3    H266750   5.446   1.261   0.849  0.0614 -2.4842  1.4704
15087TIP3   OH266751   3.256   3.523  13.962 -0.6302 -0.0631 -0.0065
15087TIP3    H166752   3.322   3.560  13.903 -0.0973 -0.5989  0.2301
15087TIP3    H266753   3.175   3.525  13.913 -0.8522  2.3434  0.3609
15088TIP3   OH266754   6.017   5.700  13.989  0.7507 -0.1440  0.0697
15088TIP3    H166755   6.063   5.722  14.070 -0.1714 -0.4395  0.6950
15088TIP3    H266756   6.066   5.746  13.920  0.7033  1.3047  0.9617
15089TIP3   OH266757   3.267   1.333  17.066  0.2016 -0.2373  0.3002
15089TIP3    H166758   3.189   1.384  17.089  0.5882  1.1375 -1.2468
15089TIP3    H266759   3.235   1.245  17.050 -0.9730  0.2133  0.0954
15090TIP3   OH266760   5.566   2.407  10.279 -0.1020 -0.2934 -0.4009
15090TIP3    H166761   5.509   2.445  10.347 -0.3771 -1.1705 -0.1331
15090TIP3    H266762   5.550   2.462  10.202 -1.7346 -0.8250 -0.4893
15091TIP3   OH266763   3.561   0.276   4.626 -0.1837  0.3415  0.0334
15091TIP3    H166764   3.653   0.253   4.632  0.1096  1.2254 -0.7865
15091TIP3    H266765   3.532   0.241   4.542 -1.0914 -1.4989  1.0623
15092TIP3   OH266766   0.346   4.765  10.917 -0.0809 -0.2161 -0.3419
15092TIP3    H166767   0.422   4.798  10.869 -0.1742  2.0616  0.9375
15092TIP3    H266768   0.292   4.723  10.849 -0.0854  2.6399 -2.2870
15093TIP3   OH266769   4.022   4.279  12.168 -0.2394  0.1789  0.2589
15093TIP3    H166770   4.074   4.236  12.101 -1.3174  2.0384 -1.9207
15093TIP3    H266771   4.054   4.370  12.169  0.2520  0.0419  2.8527
15094TIP3   OH266772   5.609   1.430   0.510 -0.2262  0.6627 -0.1059
15094TIP3    H166773   5.644   1.466   0.591  0.9342  0.1056 -0.3473
15094TIP3    H266774   5.664   1.354   0.491 -0.0309  1.1731 -1.7728
15095TIP3   OH266775   2.185   0.177   2.309  0.1873  0.4447 -0.3034
15095TIP3    H166776   2.270   0.159   2.269 -0.7321 -0.3347 -1.9886
15095TIP3    H266777   2.198   0.159   2.402  1.9284  0.6410 -0.4785
15096TIP3   OH266778   0.575   2.474   3.852 -0.3430  0.2993 -0.5720
15096TIP3    H166779   0.489   2.456   3.814  0.1954 -0.2539 -1.5923
15096TIP3    H266780   0.604   2.554   3.808 -0.0524  0.1001 -0.7470
15097TIP3   OH266781   1.141   4.626  14.799 -0.4662 -0.3870  0.1340
15097TIP3    H166782   1.091   4.559  14.846 -1.1369  0.1156  0.1498
15097TIP3    H266783   1.171   4.686  14.867  1.4646 -1.4826  0.3151
15098TIP3   OH266784   0.255   3.512   5.989 -0.4721 -0.4415 -0.1732
15098TIP3    H166785   0.345   3.540   6.010  0.3374 -1.9373 -1.3826
15098TIP3    H266786   0.200   3.585   6.015  1.0755  0.3965  0.9010
15099TIP3   OH266787   6.556   2.397   2.783  0.2529  0.4695 -0.3949
15099TIP3    H166788   6.461   2.381   2.781  0.4115 -0.4645 -1.3216
15099TIP3    H266789   6.564   2.492   2.783 -0.6858  0.5613 -0.5263
15100TIP3   OH266790   1.509   3.508   5.564 -0.7278  0.1161 -0.1596
15100TIP3    H166791   1.434   3.556   5.599  0.7851  0.1628  3.5025
15100TIP3    H266792   1.582   3.569   5.570  0.0704 -0.6900 -1.3163
15101TIP3   OH266793   3.557   5.347  15.995  0.0400  0.4995 -0.2027
15101TIP3    H166794   3.477   5.359  16.045  0.0112  1.7085 -0.5017
15101TIP3    H266795   3.545   5.264  15.949 -1.4274  1.0798 -0.9301
15102TIP3   OH266796   4.753   3.143   4.651  0.1890 -0.1862  0.1496
15102TIP3    H166797   4.736   3.149   4.557 -2.9401 -0.8372  0.5827
15102TIP3    H266798   4.700   3.212   4.690  0.6878 -0.5490  1.5254
15103TIP3   OH266799   4.210   2.478  15.665 -0.6861  0.2113 -0.0072
15103TIP3    H166800   4.182   2.475  15.756 -2.8128  1.0996 -0.5836
15103TIP3    H266801   4.137   2.516  15.618  0.0828 -0.8484 -2.2232
15104TIP3   OH266802   6.145   1.200   2.505  0.0579  1.0169  0.7777
15104TIP3    H166803   6.214   1.244   2.455  0.1956  0.4350  0.4464
15104TIP3    H266804   6.075   1.186   2.441 -0.8386  2.6008  1.3678
15105TIP3   OH266805   6.640   1.934   0.427 -0.3071  0.0342  0.1454
15105TIP3    H166806   6.614   2.026   0.431  0.8869  0.3632  0.7626
15105TIP3    H266807   6.734   1.936   0.412  0.1049 -1.0221  2.1296
15106TIP3   OH266808   6.795   1.583   3.040  0.2068  0.1799  0.2997
15106TIP3    H166809   6.801   1.509   2.980  0.9510  0.0054  0.5789
15106TIP3    H266810   6.885   1.608   3.057  0.0722 -0.3387  2.0087
15107TIP3   OH266811   5.351   5.441  14.947 -0.4305 -0.3839  0.5619
15107TIP3    H166812   5.387   5.529  14.956  1.6899 -1.2241  0.9552
15107TIP3    H266813   5.296   5.445  14.870 -0.8368  1.4242  0.9041
15108TIP3   OH266814   6.437   3.704  11.139  0.4954 -0.1660  0.3888
15108TIP3    H166815   6.489   3.762  11.084  0.1554 -0.5054 -0.2997
15108TIP3    H266816   6.379   3.762  11.188  2.0461  0.2888  1.7565
15109TIP3   OH266817   3.405   2.961   3.134  0.6107  0.0347  0.3773
15109TIP3    H166818   3.411   2.896   3.064  2.9866 -1.4614  1.8609
15109TIP3    H266819   3.475   3.024   3.114 -1.6761  2.3223 -1.0634
15110TIP3   OH266820   1.367   3.590   3.275  0.1517  0.0597  0.0890
15110TIP3    H166821   1.453   3.552   3.289 -0.5231 -1.2053  0.9106
15110TIP3    H266822   1.320   3.525   3.223  0.0947  1.3169 -1.5023
15111TIP3   OH266823   5.789   6.217   1.371  0.2068  0.3734  0.0621
15111TIP3    H166824   5.816   6.254   1.455  1.9201  0.2096 -0.3721
15111TIP3    H266825   5.762   6.128   1.391  0.1587  0.4851  0.4979
15112TIP3   OH266826   1.701   3.003   4.907 -0.2563 -0.0402  0.6759
15112TIP3    H166827   1.714   3.075   4.968  0.3258 -0.0380  0.5546
15112TIP3    H266828   1.727   2.925   4.956 -0.1086 -0.0776  0.5369
15113TIP3   OH266829   5.029   0.692   3.166 -0.7463  0.0703 -0.4269
15113TIP3    H166830   5.082   0.641   3.105  0.7240  0.3265  0.6087
15113TIP3    H266831   5.067   0.674   3.252 -1.8920  0.8301  0.2650
15114TIP3   OH266832   0.508   2.442   0.951 -0.4138  0.3987 -0.3703
15114TIP3    H166833   0.601   2.464   0.959  0.2216 -1.6598 -1.3852
15114TIP3    H266834   0.484   2.406   1.037  0.4664 -1.4570 -0.8607
15115TIP3   OH266835   5.141   6.193  11.714 -0.6745  0.1369  0.0327
15115TIP3    H166836   5.081   6.202  11.788  0.2251  0.1692  0.7791
15115TIP3    H266837   5.204   6.126  11.742 -0.9717 -0.6856 -1.1607
15116TIP3   OH266838   4.725   6.395   2.892 -0.1164 -0.1559  0.2851
15116TIP3    H166839   4.763   6.374   2.807 -1.1374 -1.1993  0.0610
15116TIP3    H266840   4.653   6.455   2.871 -0.7767 -0.9150  0.3238
15117TIP3   OH266841   3.215   4.290   2.400 -0.1987 -0.3828  0.5973
15117TIP3    H166842   3.298   4.309   2.442 -0.4360  0.7515  0.5943
15117TIP3    H266843   3.152   4.282   2.472 -0.7061  2.0688  0.5258
15118TIP3   OH266844   6.819   5.955  14.549  0.2670 -0.1079  0.8190
15118TIP3    H166845   6.911   5.936  14.534 -0.0074 -1.4164  0.6940
15118TIP3    H266846   6.779   5.954  14.463 -0.0016 -0.3824  0.9419
15119TIP3   OH266847   3.223   6.561   4.232  0.2397  0.8971 -0.4338
15119TIP3    H166848   3.241   6.559   4.326 -1.9686 -0.9025  0.0334
15119TIP3    H266849   3.138   6.604   4.225 -0.6229 -0.8532 -1.3473
15120TIP3   OH266850   4.133   0.934  10.339 -0.0185  0.3523  0.4278
15120TIP3    H166851   4.216   0.983  10.331 -0.7173  1.2350 -3.2480
15120TIP3    H266852   4.160   0.843  10.345  1.2990  0.6184 -0.7132
15121TIP3   OH266853   1.993   4.476  11.951 -0.5237  0.2926 -0.1415
15121TIP3    H166854   1.899   4.457  11.951 -0.7964  1.3866  1.4861
15121TIP3    H266855   2.001   4.552  11.893 -0.3073 -1.0020 -1.8803
15122TIP3   OH266856   6.442   2.499   4.560  0.7131  0.1310  0.1373
15122TIP3    H166857   6.422   2.408   4.540  1.3438  0.2314 -0.9924
15122TIP3    H266858   6.478   2.496   4.649 -2.0085 -0.3344  1.3484
15123TIP3   OH266859   5.023   2.175   4.271  0.4896 -0.4950 -0.0158
15123TIP3    H166860   4.984   2.094   4.302 -0.5874 -0.9839 -2.4021
15123TIP3    H266861   5.096   2.147   4.216 -0.1476  0.0817 -1.2000
15124TIP3   OH266862   0.466   0.438   2.952  0.3626 -0.4450  0.2799
15124TIP3    H166863   0.557   0.432   2.979  1.6414 -1.1016 -3.6119
15124TIP3    H266864   0.419   0.382   3.013  2.3701  0.4985  2.8601
15125TIP3   OH266865   4.728   2.461  16.064 -0.0713  0.3573 -0.0214
15125TIP3    H166866   4.694   2.410  16.137  1.3949 -0.3705  0.1881
15125TIP3    H266867   4.813   2.421  16.044  0.9432  2.4164 -0.1273
15126TIP3   OH266868   3.841   1.494  13.011  0.0476  0.1969 -0.1807
15126TIP3    H166869   3.780   1.567  12.998 -0.3380 -0.5275 -3.1379
15126TIP3    H266870   3.813   1.453  13.093 -1.5227  1.6779  0.0685
15127TIP3   OH266871   0.858   2.205  11.291  0.8488  0.1471  1.1333
15127TIP3    H166872   0.840   2.157  11.372  1.4282  0.1898  1.2873
15127TIP3    H266873   0.773   2.210  11.247  0.4273  0.5695  1.9800
15128TIP3   OH266874   1.385   1.375   4.210 -0.4866  0.5813 -0.1203
15128TIP3    H166875   1.299   1.396   4.175 -0.0721  0.0396 -1.5460
15128TIP3    H266876   1.378   1.284   4.240 -0.0394  0.0007 -1.6522
15129TIP3   OH266877   1.373   2.274   0.267 -0.0000  0.3168 -0.1381
15129TIP3    H166878   1.361   2.196   0.322  0.1879 -1.4829 -2.4583
15129TIP3    H266879   1.290   2.285   0.222  0.0146  1.4176  0.0851
15130TIP3   OH266880   0.037   3.355  13.657 -0.9759 -0.0683  0.5868
15130TIP3    H166881  -0.011   3.283  13.616 -1.5154  0.8230 -0.3749
15130TIP3    H266882   0.128   3.341  13.630 -1.5158  1.4329 -2.4472
15131TIP3   OH266883   3.211   1.833  11.620  0.3402 -0.0092 -0.0125
15131TIP3    H166884   3.148   1.894  11.582  2.9942  3.1967  0.2795
15131TIP3    H266885   3.159   1.777  11.678 -2.1521  3.0327  0.9413
15132TIP3   OH266886   5.216   3.922   0.215 -0.2350 -0.0296 -0.2966
15132TIP3    H166887   5.297   3.938   0.263 -0.0364 -0.6013 -0.4343
15132TIP3    H266888   5.188   3.834   0.243 -1.2408  0.4748  0.3650
15133TIP3   OH266889   3.314   6.145   3.815  0.2826 -0.0429 -0.0506
15133TIP3    H166890   3.375   6.072   3.816  0.6085  0.2375  1.0520
15133TIP3    H266891   3.333   6.190   3.732 -0.1252 -1.3434 -0.8910
15134TIP3   OH266892   5.567   6.625   2.230 -0.5721  0.1796  0.3912
15134TIP3    H166893   5.530   6.651   2.146 -2.5390  1.2886  1.5059
15134TIP3    H266894   5.584   6.531   2.221  0.4948  0.5271 -1.6289
15135TIP3   OH266895   1.712   0.159  14.733  0.5316  0.6766 -0.3775
15135TIP3    H166896   1.658   0.238  14.739 -0.1770  0.1347  0.5976
15135TIP3    H266897   1.802   0.191  14.741  0.4864  1.7031 -3.0102
15136TIP3   OH266898   0.272   3.330  13.472 -0.5075  0.0129 -0.3311
15136TIP3    H166899   0.298   3.407  13.523 -0.4130 -0.2079 -0.0421
15136TIP3    H266900   0.228   3.366  13.395  1.9528  0.4830 -1.6312
15137TIP3   OH266901   4.976   6.326   3.669 -0.1115 -0.1585 -0.0573
15137TIP3    H166902   4.899   6.377   3.646  0.6325  0.6634 -0.8090
15137TIP3    H266903   5.044   6.391   3.685  0.7052 -0.8904 -0.4625
15138TIP3   OH266904   5.986   3.966  13.988  0.0970  0.3720 -0.1757
15138TIP3    H166905   5.912   4.010  14.031  0.2968  2.9493 -2.2839
15138TIP3    H266906   6.063   3.996  14.036  0.0420  0.1049  0.0886
15139TIP3   OH266907   3.049   5.057  14.631 -0.1891  0.5862 -0.4633
15139TIP3    H166908   3.034   4.968  14.663 -0.7474  0.6704 -0.4789
15139TIP3    H266909   3.116   5.048  14.564 -1.4499 -0.0723 -1.6836
15140TIP3   OH266910   1.336   1.768  13.952 -0.1822  0.2058 -0.5502
15140TIP3    H166911   1.357   1.843  14.008  2.5045  0.2401 -1.4492
15140TIP3    H266912   1.288   1.807  13.878 -1.3030  0.5635  0.3328
15141TIP3   OH266913   6.640   4.717  11.577  0.1019 -0.2801 -0.7470
15141TIP3    H166914   6.685   4.730  11.661 -0.6283  2.2871 -0.6991
15141TIP3    H266915   6.710   4.715  11.513  0.4569  2.3127 -0.5208
15142TIP3   OH266916   1.229   3.596  11.592  0.1340 -0.1137 -0.0353
15142TIP3    H166917   1.190   3.525  11.643 -0.8764 -0.9694 -1.9161
15142TIP3    H266918   1.299   3.555  11.542 -0.1182  0.3131 -0.7513
15143TIP3   OH266919   1.270   0.959   2.101  0.1289  0.0285 -0.1573
15143TIP3    H166920   1.266   0.992   2.012 -0.0165  0.9476  0.1746
15143TIP3    H266921   1.348   0.904   2.103  0.7017  0.8053 -0.6045
15144TIP3   OH266922   4.329   1.369   5.753  0.3782  0.3424 -0.4333
15144TIP3    H166923   4.320   1.464   5.750 -0.0595  0.4230  1.7432
15144TIP3    H266924   4.362   1.345   5.666  1.0569  2.5314 -0.8444
15145TIP3   OH266925   3.839   1.939  14.029  0.2553 -0.2466 -0.0769
15145TIP3    H166926   3.888   1.861  14.055  1.6234  1.5611  3.1892
15145TIP3    H266927   3.894   1.981  13.963  1.8170  0.3093  1.5307
15146TIP3   OH266928   0.826   2.296   1.868 -0.3228 -0.4998  0.0272
15146TIP3    H166929   0.772   2.373   1.851 -1.7433 -1.4761  0.0166
15146TIP3    H266930   0.916   2.328   1.859 -0.8776  1.1242 -0.0940
15147TIP3   OH266931   0.699   2.399   4.657  0.4757  0.0552 -0.3237
15147TIP3    H166932   0.657   2.418   4.741  2.2002  1.4965  0.2696
15147TIP3    H266933   0.712   2.486   4.617  1.1397 -0.4931 -1.3413
15148TIP3   OH266934   3.872   5.829   0.344 -0.5212  0.3276  0.4338
15148TIP3    H166935   3.925   5.878   0.281 -0.7501 -1.2959 -1.0996
15148TIP3    H266936   3.934   5.800   0.410  0.1594  0.1029 -0.2877
15149TIP3   OH266937   6.522   3.709   2.771  0.0213  0.0459  0.2316
15149TIP3    H166938   6.516   3.781   2.708 -1.6627  0.8933  1.2928
15149TIP3    H266939   6.527   3.630   2.716  0.5866  0.8792 -0.9529
15150TIP3   OH266940   3.886   5.412  13.887  0.6465  0.0296 -0.1289
15150TIP3    H166941   3.881   5.380  13.797  0.2121  0.1713 -0.1598
15150TIP3    H266942   3.836   5.348  13.938  0.2143  0.3777 -0.1114
15151TIP3   OH266943   2.497   3.187  15.350 -0.1900  0.3804  0.1282
15151TIP3    H166944   2.554   3.264  15.349  1.1772 -0.6051 -0.1022
15151TIP3    H266945   2.426   3.211  15.410  1.8303  0.6877  2.5634
15152TIP3   OH266946   1.526   1.136  12.847  0.1762  0.1974 -0.1450
15152TIP3    H166947   1.591   1.071  12.820  0.6919  0.6015  0.1028
15152TIP3    H266948   1.560   1.171  12.930 -0.7496 -0.1334  0.3875
15153TIP3   OH266949   0.679   5.487   6.430 -0.4994 -0.1671 -0.1255
15153TIP3    H166950   0.616   5.527   6.370 -3.2377 -0.1680  2.5233
15153TIP3    H266951   0.652   5.395   6.435 -0.3498 -0.1510  1.1235
15154TIP3   OH266952   1.473   1.209   3.231 -0.5739  0.4027 -0.3299
15154TIP3    H166953   1.508   1.143   3.171 -1.2324 -0.4668  0.2139
15154TIP3    H266954   1.445   1.281   3.175 -2.6529 -1.0449 -1.2464
15155TIP3   OH266955   3.797   2.594   2.413 -0.0685  0.4836  0.4853
15155TIP3    H166956   3.774   2.686   2.403  0.5228  0.5151 -0.7289
15155TIP3    H266957   3.713   2.551   2.432 -0.3983  1.2163  0.7320
15156TIP3   OH266958   3.386   2.635  15.382 -0.2567 -0.5341 -0.1042
15156TIP3    H166959   3.362   2.551  15.345 -2.5365 -0.5382  1.2353
15156TIP3    H266960   3.372   2.698  15.311 -0.2237 -1.0573 -0.5754
15157TIP3   OH266961   6.051   1.449   3.015  0.3827  0.3310  0.0943
15157TIP3    H166962   5.995   1.377   3.043  1.4615 -0.2463  0.8146
15157TIP3    H266963   6.043   1.450   2.919 -1.6652  0.9627  0.2186
15158TIP3   OH266964   3.604   2.102   2.472  0.4056  0.4898  0.1066
15158TIP3    H166965   3.688   2.145   2.480  0.9058 -0.5699  0.8232
15158TIP3    H266966   3.540   2.167   2.502  1.3124  0.1208  3.2827
15159TIP3   OH266967   6.743   4.553  13.713 -0.5220 -0.0246  0.8435
15159TIP3    H166968   6.809   4.484  13.703 -0.2875  0.3146 -0.0669
15159TIP3    H266969   6.684   4.541  13.638 -1.1483  0.0566  1.3125
15160TIP3   OH266970   5.044   1.128  11.433 -0.5494  0.3570  0.3874
15160TIP3    H166971   5.117   1.176  11.471  0.1344  0.6893 -1.2467
15160TIP3    H266972   4.974   1.193  11.426 -0.2987  0.5916  0.0302
15161TIP3   OH266973   0.792   0.170   4.387  0.5442  0.4783 -0.4982
15161TIP3    H166974   0.884   0.172   4.415  0.9384  0.4801 -1.7033
15161TIP3    H266975   0.797   0.154   4.293 -0.7991 -2.9589 -0.1102
15162TIP3   OH266976   0.793   4.224  11.703 -0.2379  0.1367  0.3247
15162TIP3    H166977   0.778   4.194  11.613  0.0300 -0.5598  0.5092
15162TIP3    H266978   0.787   4.145  11.756 -0.1180  0.5040  0.8881
15163TIP3   OH266979   3.367   5.732  16.468  1.0044 -0.3542  0.0635
15163TIP3    H166980   3.461   5.713  16.467  1.5572  2.0529  0.5257
15163TIP3    H266981   3.326   5.649  16.493  2.8854 -1.7788 -1.2832
15164TIP3   OH266982   4.693   3.516   3.452 -0.1586  0.0057  0.3627
15164TIP3    H166983   4.684   3.493   3.544 -1.5635 -3.4698 -0.4667
15164TIP3    H266984   4.786   3.507   3.434 -0.0966 -1.0851  1.1161
15165TIP3   OH266985   5.142   5.010  15.175 -0.5762  0.3813  0.0079
15165TIP3    H166986   5.208   4.949  15.209  2.1373  2.3794 -1.2792
15165TIP3    H266987   5.076   5.015  15.245  0.5213 -1.8574  1.3155
15166TIP3   OH266988   5.165   2.320  15.224  0.1948 -0.0978  0.0627
15166TIP3    H166989   5.206   2.302  15.139  1.2102 -0.0422  0.5274
15166TIP3    H266990   5.231   2.367  15.274 -0.1151 -0.7570  1.1445
15167TIP3   OH266991   5.164   5.787  11.903 -0.0379  0.3426  0.3394
15167TIP3    H166992   5.247   5.828  11.879  2.0345 -1.8166  3.0673
15167TIP3    H266993   5.175   5.695  11.880 -2.3518  0.2246 -0.5886
15168TIP3   OH266994   5.411   1.301  14.935 -0.0927 -0.1779  0.2984
15168TIP3    H166995   5.472   1.277  15.004  1.8960 -0.3747 -1.4345
15168TIP3    H266996   5.447   1.381  14.897 -3.1310  2.1065  1.7670
15169TIP3   OH266997   4.935   5.430  13.175 -0.0953  0.2244  0.1891
15169TIP3    H166998   4.934   5.451  13.268 -2.5841 -1.0735  0.5338
15169TIP3    H266999   4.843   5.422  13.151  0.5085 -0.3018 -2.1973
15170TIP3   OH267000   0.435   5.926   4.888 -0.0305  0.0471  0.7472
15170TIP3    H167001   0.372   5.926   4.960 -0.3278 -0.7686  0.5012
15170TIP3    H267002   0.510   5.878   4.923 -0.8101 -1.8336  0.0206
15171TIP3   OH267003   6.167   3.090  15.151  0.4789 -0.2473  0.4731
15171TIP3    H167004   6.151   3.137  15.233  3.0927 -1.4713  1.8032
15171TIP3    H267005   6.137   3.001  15.168 -2.9741  0.3209 -1.5069
15172TIP3   OH267006   6.268   1.340   0.359 -0.3729  0.5450  0.2870
15172TIP3    H167007   6.293   1.322   0.268 -0.5329 -0.5292  0.4425
15172TIP3    H267008   6.247   1.433   0.360  0.0027  0.6548 -0.6890
15173TIP3   OH267009   6.083   4.339  17.009 -0.2463 -0.3939  0.3562
15173TIP3    H167010   6.140   4.415  16.994 -1.5785  0.2383 -1.9089
15173TIP3    H267011   6.013   4.372  17.065 -0.5503 -0.0658 -0.2102
15174TIP3   OH267012   3.795   0.728  14.216 -0.2713  0.2284 -0.2271
15174TIP3    H167013   3.824   0.697  14.303  0.0950  0.6277 -0.2048
15174TIP3    H267014   3.842   0.810  14.204 -0.1029  0.0304 -0.9313
15175TIP3   OH267015   3.687   6.628   3.025 -0.2081 -1.1005  0.2190
15175TIP3    H167016   3.771   6.619   2.980 -0.2725 -0.1903 -0.0987
15175TIP3    H267017   3.692   6.713   3.068 -1.2392 -0.7286 -0.3732
15176TIP3   OH267018   1.477   0.867  14.974 -0.7433  0.0752 -0.5453
15176TIP3    H167019   1.444   0.852  14.885  1.5691 -0.8857 -1.3154
15176TIP3    H267020   1.569   0.892  14.961 -0.0462 -1.1732  1.6317
15177TIP3   OH267021   3.100   6.422   4.824 -0.5651 -0.0525  0.4539
15177TIP3    H167022   3.153   6.385   4.753  0.1028 -0.0378  0.9323
15177TIP3    H267023   3.164   6.449   4.890 -1.0757  1.2428  0.4647
15178TIP3   OH267024   3.966   2.239  12.777  0.6096 -0.1741  0.2013
15178TIP3    H167025   4.006   2.282  12.852 -0.4270  0.0085  0.6673
15178TIP3    H267026   3.977   2.300  12.705  1.4766 -0.2846  0.2284
15179TIP3   OH267027   2.342   0.974   0.098 -0.4196 -0.0703 -0.0341
15179TIP3    H167028   2.254   1.002   0.074 -0.2174 -0.5638 -1.4436
15179TIP3    H267029   2.391   1.055   0.108 -0.3837  0.1848 -1.8977
15180TIP3   OH267030   1.436   3.236   3.421  0.0265  0.3099  0.2148
15180TIP3    H167031   1.375   3.218   3.350  0.0604 -0.8939  0.4640
15180TIP3    H267032   1.498   3.299   3.385 -0.7318  0.7242 -0.3825
15181TIP3   OH267033   3.515   3.298  12.263 -0.1382  0.0982  0.3163
15181TIP3    H167034   3.503   3.325  12.354 -2.9671 -1.8649  0.6661
15181TIP3    H267035   3.464   3.362  12.213 -2.5423 -1.4505  0.6516
15182TIP3   OH267036   5.193   4.733   1.833  0.0895  0.0561  0.7784
15182TIP3    H167037   5.241   4.816   1.831 -1.0289  0.7155  0.6033
15182TIP3    H267038   5.169   4.717   1.742  0.9142 -0.8459  0.7031
15183TIP3   OH267039   1.022   4.072  14.966 -0.3436 -0.0554  0.1324
15183TIP3    H167040   0.944   4.016  14.968 -0.0124 -0.5090  2.1837
15183TIP3    H267041   1.085   4.028  15.022  0.7758  1.1978 -0.0883
15184TIP3   OH267042   4.441   4.602   3.811 -0.2039  0.1504 -0.2192
15184TIP3    H167043   4.483   4.575   3.893 -1.1344  0.0439  0.2401
15184TIP3    H267044   4.384   4.675   3.836 -1.5501 -0.7654 -0.4765
15185TIP3   OH267045   2.569   2.612  16.875  0.2917  0.0742 -0.4446
15185TIP3    H167046   2.585   2.627  16.968  0.0608 -2.0073 -0.0350
15185TIP3    H267047   2.652   2.637  16.833 -0.0924  2.5070  0.0779
15186TIP3   OH267048   5.388   2.312   2.351 -0.0034 -0.5054  0.3737
15186TIP3    H167049   5.422   2.394   2.385  0.1448 -0.6470  0.5675
15186TIP3    H267050   5.450   2.245   2.381 -0.7625 -0.8438  1.2219
15187TIP3   OH267051   1.189   1.711  17.049 -0.6886  0.9579 -0.6393
15187TIP3    H167052   1.220   1.710  16.958 -1.4341 -0.4093 -0.9118
15187TIP3    H267053   1.099   1.744  17.042 -0.3269  2.0392 -0.2371
15188TIP3   OH267054   2.989   2.926   0.519  0.0180  0.7399 -0.2115
15188TIP3    H167055   2.984   2.834   0.492 -1.0846  0.5828  0.4837
15188TIP3    H267056   2.899   2.953   0.533  0.3019  2.0525 -0.7395
15189TIP3   OH267057   4.642   5.819   5.006 -0.4710  0.3967  0.3685
15189TIP3    H167058   4.680   5.891   5.057 -1.8376  1.6033 -0.2483
15189TIP3    H267059   4.590   5.769   5.069  0.4922 -0.0811  0.8022
15190TIP3   OH267060   3.891   4.489  12.633 -0.7480 -0.5437 -0.2482
15190TIP3    H167061   3.797   4.506  12.633 -0.2647  2.8411 -1.3104
15190TIP3    H267062   3.910   4.467  12.541 -0.4729 -1.0909 -0.0603
15191TIP3   OH267063   0.932   0.950  12.774 -0.2332  0.5578  0.0294
15191TIP3    H167064   0.991   0.882  12.742  0.6121  1.2467  0.1190
15191TIP3    H267065   0.880   0.906  12.842 -0.8403 -0.4376 -1.0520
15192TIP3   OH267066   3.524   6.150   4.020 -0.0131  0.6006  0.0747
15192TIP3    H167067   3.441   6.167   3.976  0.5193 -0.6994 -1.5463
15192TIP3    H267068   3.503   6.152   4.113 -2.3098 -1.5820 -0.2880
15193TIP3   OH267069   2.050   3.109   5.988  0.5212  0.1345 -0.2911
15193TIP3    H167070   2.000   3.112   6.069  0.5472  2.6389 -0.2887
15193TIP3    H267071   2.133   3.152   6.009  1.2882 -0.8235 -1.2022
15194TIP3   OH267072   1.850   5.352   3.494 -0.0029  0.5200  0.1777
15194TIP3    H167073   1.903   5.388   3.566  0.4418  1.0466 -0.3979
15194TIP3    H267074   1.908   5.356   3.418 -0.4389 -0.1237 -0.1921
15195TIP3   OH267075   6.225   2.846  16.556  0.0805  0.1990  0.4204
15195TIP3    H167076   6.203   2.897  16.634 -0.3209 -1.6155  1.5550
15195TIP3    H267077   6.303   2.796  16.581 -0.6518 -1.1792  0.0513
15196TIP3   OH267078   5.328   5.872   3.327  0.1508  0.1883  0.4385
15196TIP3    H167079   5.353   5.896   3.416 -1.2492 -0.8122  1.1256
15196TIP3    H267080   5.277   5.946   3.295 -0.6851 -0.1153  1.0536
15197TIP3   OH267081   0.887   5.063  15.669  0.2976 -0.4509 -0.0123
15197TIP3    H167082   0.977   5.030  15.666 -0.4300 -2.5241 -1.0073
15197TIP3    H267083   0.867   5.086  15.578 -0.2414 -0.1649  0.1763
15198TIP3   OH267084   3.283   3.306   2.059  0.3162  0.2943  0.3515
15198TIP3    H167085   3.230   3.227   2.052 -0.8615  1.0663  0.1025
15198TIP3    H267086   3.244   3.355   2.131 -1.3339  2.2736 -1.7183
15199TIP3   OH267087   0.487   4.172  13.605 -0.0723 -0.1501 -0.6047
15199TIP3    H167088   0.582   4.160  13.608 -0.2492 -1.5849 -0.3416
15199TIP3    H267089   0.469   4.232  13.678  0.6089  0.0440 -0.5853
15200TIP3   OH267090   3.134   0.401   2.379  0.1789 -0.4258  0.2528
15200TIP3    H167091   3.205   0.377   2.319 -0.0165  0.9995 -0.6039
15200TIP3    H267092   3.136   0.497   2.381  0.2293 -0.4129  2.6283
15201TIP3   OH267093   0.212   4.537   3.948  0.3987 -0.1683  0.0366
15201TIP3    H167094   0.129   4.493   3.966 -0.2099  0.7881 -0.3297
15201TIP3    H267095   0.229   4.590   4.026 -0.8501  1.8753 -0.9960
15202TIP3   OH267096   0.525   0.624  10.059  0.4476 -0.5026  0.0155
15202TIP3    H167097   0.499   0.548  10.007  1.1216  1.8376 -4.1511
15202TIP3    H267098   0.457   0.689  10.042  1.9825  1.1795  0.1253
15203TIP3   OH267099   5.966   1.860   2.441 -0.0176 -0.4698 -0.3574
15203TIP3    H167100   5.981   1.775   2.399 -1.2697 -2.0003  2.0446
15203TIP3    H267101   5.885   1.848   2.491 -0.5842  2.3813 -0.4271
15204TIP3   OH267102   3.612   4.637   3.047 -0.1721  0.7514  0.1585
15204TIP3    H167103   3.536   4.628   3.105 -0.1234  1.2128  0.2985
15204TIP3    H267104   3.585   4.597   2.965 -1.0367  2.0734 -0.2272
15205TIP3   OH267105   2.472   6.215  16.099 -0.3529  0.1536  0.2462
15205TIP3    H167106   2.419   6.269  16.041 -0.6927  0.4189  0.7980
15205TIP3    H267107   2.524   6.278  16.150 -1.9126  0.0952  2.0321
15206TIP3   OH267108   1.478   1.509  10.537 -0.2703  0.3230  0.4939
15206TIP3    H167109   1.489   1.593  10.492  0.6380  0.4982  1.0245
15206TIP3    H267110   1.398   1.519  10.589 -0.0429  0.9412  0.7314
15207TIP3   OH267111   2.680   5.119   0.764 -0.1570  0.0321  0.1722
15207TIP3    H167112   2.705   5.145   0.852  0.0776 -0.2373  0.1838
15207TIP3    H267113   2.608   5.058   0.776  0.7015 -0.9838  0.2289
15208TIP3   OH267114   2.637   4.479  16.029  0.1979 -0.2834 -0.8508
15208TIP3    H167115   2.708   4.415  16.027  0.8575  0.3464  0.6711
15208TIP3    H267116   2.588   4.463  15.949  0.8098 -2.1548 -0.8967
15209TIP3   OH267117   0.153   6.049   1.971  0.1485 -0.0899  0.0449
15209TIP3    H167118   0.128   5.971   2.019  1.6318 -0.9829 -0.5488
15209TIP3    H267119   0.185   6.016   1.887  2.0095  1.0104  0.2597
15210TIP3   OH267120   1.909   0.008   0.582  0.7625 -0.1538 -0.7139
15210TIP3    H167121   1.977   0.070   0.609  0.8226  0.1792 -1.5926
15210TIP3    H267122   1.882   0.039   0.496 -0.9601  0.0887 -0.1143
15211TIP3   OH267123   4.757   2.749  12.511  0.2495  0.2395  0.7537
15211TIP3    H167124   4.789   2.660  12.523  2.0625  0.9126  1.1253
15211TIP3    H267125   4.696   2.742  12.438  0.8391 -1.1937  0.3604
15212TIP3   OH267126   3.657   4.604  16.521  0.4818 -0.4907 -0.0015
15212TIP3    H167127   3.696   4.690  16.505  0.0153 -0.3657 -0.4866
15212TIP3    H267128   3.603   4.587  16.443  0.2023 -1.0130  0.3008
15213TIP3   OH267129   5.734   1.467  14.711  0.4075 -0.0105 -0.0336
15213TIP3    H167130   5.788   1.476  14.790  1.3199  0.0149 -0.6590
15213TIP3    H267131   5.738   1.554  14.670 -0.1887  0.0194 -0.0348
15214TIP3   OH267132   5.630   4.795   1.765  0.6854 -0.5411 -0.4172
15214TIP3    H167133   5.590   4.807   1.851  0.1399 -0.4257 -0.6845
15214TIP3    H267134   5.649   4.701   1.761  1.9858 -0.3444  0.3737
15215TIP3   OH267135   0.665   0.264  12.446 -0.0226 -0.2045  0.5372
15215TIP3    H167136   0.724   0.211  12.500 -0.3029 -1.3971 -0.2893
15215TIP3    H267137   0.653   0.344  12.496  3.6210  0.8278  0.0357
15216TIP3   OH267138   3.348   3.997  15.113  0.1164  0.1728  0.2658
15216TIP3    H167139   3.363   4.090  15.100  0.8723 -0.0616 -0.7246
15216TIP3    H267140   3.254   3.985  15.098  0.3488  0.4806 -1.7946
15217TIP3   OH267141   2.346   5.105  16.342 -0.0647  0.1352 -0.6452
15217TIP3    H167142   2.286   5.035  16.317 -1.3484  1.1202 -0.4292
15217TIP3    H267143   2.311   5.183  16.299  1.0765  0.7372 -0.5148
15218TIP3   OH267144   2.664   2.674   2.929 -0.1846  0.2980  0.3737
15218TIP3    H167145   2.678   2.701   2.838  2.3266  1.1501  0.9238
15218TIP3    H267146   2.709   2.741   2.981 -0.0611 -1.0747  2.1495
15219TIP3   OH267147   6.567   6.339   1.623  0.8327  0.7672 -0.4346
15219TIP3    H167148   6.556   6.320   1.530  1.6943 -0.2132 -0.3566
15219TIP3    H267149   6.578   6.253   1.664 -0.5648  1.1172  0.7326
15220TIP3   OH267150   2.560   4.260  12.824  0.0670 -0.2573 -0.2948
15220TIP3    H167151   2.527   4.177  12.789  0.8514 -0.2509 -1.0776
15220TIP3    H267152   2.653   4.246  12.839  0.0796  0.2818  0.1842
15221TIP3   OH267153   0.718   1.082   6.473 -0.4777  0.2083  0.3966
15221TIP3    H167154   0.796   1.126   6.440  0.2906 -0.9025  0.7065
15221TIP3    H267155   0.679   1.041   6.395 -0.0431 -0.3150  0.4530
15222TIP3   OH267156   0.220   2.613   3.047 -0.1705  0.4273 -0.0440
15222TIP3    H167157   0.273   2.691   3.028  2.6558 -1.0622  0.9946
15222TIP3    H267158   0.283   2.541   3.043 -2.8430 -2.0039 -1.9485
15223TIP3   OH267159   3.613   3.486   1.745 -1.2999  0.2399 -0.2274
15223TIP3    H167160   3.698   3.442   1.749 -1.1812  0.4870 -0.0403
15223TIP3    H267161   3.550   3.414   1.736 -1.1985 -0.0516  1.2061
15224TIP3   OH267162   1.686   6.759   0.733 -0.4173 -0.1759  0.5705
15224TIP3    H167163   1.600   6.788   0.703 -0.7689 -2.2564 -0.5893
15224TIP3    H267164   1.748   6.808   0.679 -0.9604 -0.6831 -0.5381
15225TIP3   OH267165   4.185   4.019   1.178 -0.2203  0.5876 -0.0151
15225TIP3    H167166   4.188   4.052   1.088 -2.5338  0.5379 -0.1717
15225TIP3    H267167   4.234   3.936   1.174  0.3880  0.9720 -1.0269
15226TIP3   OH267168   6.136   5.695  13.522 -0.0490 -0.5556  0.1681
15226TIP3    H167169   6.067   5.654  13.573  1.4742 -1.0205  1.9806
15226TIP3    H267170   6.143   5.784  13.558 -1.7547  0.6391 -2.1628
15227TIP3   OH267171   4.699   1.877   3.536  0.0162  0.0573 -0.1775
15227TIP3    H167172   4.731   1.884   3.626  0.0937  1.4830 -0.2932
15227TIP3    H267173   4.713   1.785   3.513  0.8657 -0.1212  0.9451
15228TIP3   OH267174   0.894   1.354  14.599  0.0465  0.1653  0.1383
15228TIP3    H167175   0.889   1.324  14.508  0.7305 -2.7272  0.9274
15228TIP3    H267176   0.977   1.318  14.631 -0.0310  1.3760  1.8293
15229TIP3   OH267177   5.453   5.133   1.391  0.2672  0.1903  0.4730
15229TIP3    H167178   5.516   5.092   1.331  0.6400  1.0677  0.2502
15229TIP3    H267179   5.474   5.096   1.477 -1.0041 -1.9360 -0.0741
15230TIP3   OH267180   5.161   2.919   4.957 -0.5486  0.3219 -0.5707
15230TIP3    H167181   5.147   2.889   4.867 -0.4247  0.9892 -0.8172
15230TIP3    H267182   5.074   2.935   4.991 -0.5990  0.0076 -0.5460
15231TIP3   OH267183   0.347   3.435  13.155  0.2598  0.3337 -0.2589
15231TIP3    H167184   0.252   3.430  13.145  0.3330  0.7402 -1.3043
15231TIP3    H267185   0.367   3.528  13.145  0.7068  0.3464  0.6404
15232TIP3   OH267186   4.870   1.108  13.391 -0.4194 -0.2852  0.1227
15232TIP3    H167187   4.862   1.202  13.381 -1.4775 -0.1375  1.8478
15232TIP3    H267188   4.847   1.072  13.305  0.5662  1.0218 -0.7105
15233TIP3   OH267189   5.968   5.287  11.969  0.0228  0.0272  0.1631
15233TIP3    H167190   5.986   5.379  11.952 -1.1077  0.9210  3.2035
15233TIP3    H267191   5.934   5.253  11.886  0.7045  2.2457 -1.0992
15234TIP3   OH267192   5.161   4.078   5.660  0.6323  0.5179  0.2657
15234TIP3    H167193   5.091   4.126   5.704 -0.3367 -0.1649 -0.4639
15234TIP3    H267194   5.187   4.010   5.722 -0.2605 -0.0206  0.0776
15235TIP3   OH267195   2.531   3.246   1.513  0.1248  0.0341  0.1007
15235TIP3    H167196   2.459   3.242   1.450  1.7653 -0.9869 -1.8090
15235TIP3    H267197   2.586   3.318   1.483  1.5966 -1.2674 -0.4378
15236TIP3   OH267198   0.068   6.515   0.807 -0.2706  0.2356  0.7670
15236TIP3    H167199  -0.007   6.461   0.781 -0.1451  0.6548 -0.5475
15236TIP3    H267200   0.032   6.579   0.868 -0.6863 -0.4561  1.2699
15237TIP3   OH267201   4.639   2.062   5.836 -0.2838 -0.0440  0.0127
15237TIP3    H167202   4.650   2.156   5.852  3.1727 -0.5836  1.7246
15237TIP3    H267203   4.585   2.032   5.910 -1.9712  0.5913 -0.8922
15238TIP3   OH267204   6.754   6.605   2.636  0.0239  0.6614 -0.3165
15238TIP3    H167205   6.827   6.625   2.694  0.3831 -1.3481 -0.0014
15238TIP3    H267206   6.690   6.562   2.692 -0.5762  0.6751 -0.9775
15239TIP3   OH267207   2.356   1.642   5.781  0.4960  0.2540  0.2251
15239TIP3    H167208   2.272   1.673   5.814  0.9158  0.7095  0.8793
15239TIP3    H267209   2.410   1.721   5.774  1.4839 -0.2667  1.6364
15240TIP3   OH267210   5.851   0.777   1.669 -0.3878  0.3314  0.1551
15240TIP3    H167211   5.935   0.732   1.660 -0.1251 -0.2532  3.9499
15240TIP3    H267212   5.790   0.708   1.697 -1.0527  1.4782  1.6925
15241TIP3   OH267213   5.620   0.958  13.756  0.0849  0.1173  0.7064
15241TIP3    H167214   5.678   0.903  13.702  2.0782  1.2136  1.6042
15241TIP3    H267215   5.590   1.026  13.696  0.2356 -0.1088  0.3675
15242TIP3   OH267216   2.737   2.552  14.763 -0.3505  0.7033  0.2104
15242TIP3    H167217   2.750   2.584  14.674  0.4615  0.2749  0.1676
15242TIP3    H267218   2.774   2.620  14.819 -0.6809  0.8811  0.2147
15243TIP3   OH267219   0.015   0.611  13.441 -0.0705 -0.1005  0.4997
15243TIP3    H167220  -0.064   0.558  13.433 -1.0033  1.0655  1.6493
15243TIP3    H267221   0.080   0.565  13.387 -1.5184 -1.0707 -0.4967
15244TIP3   OH267222   3.807   1.190  16.376  0.2990  0.2721 -0.4685
15244TIP3    H167223   3.720   1.183  16.416 -0.6547  0.2496 -2.4466
15244TIP3    H267224   3.818   1.283  16.359 -0.6695  0.0021 -2.9128
15245TIP3   OH267225   2.494   6.367   4.240 -0.5018 -0.6111 -0.1437
15245TIP3    H167226   2.569   6.321   4.277 -0.5099 -0.8164 -0.3846
15245TIP3    H267227   2.515   6.376   4.147  0.1775  1.1585  0.1398
15246TIP3   OH267228   0.737   3.753   1.875 -0.3927 -0.8922  0.6156
15246TIP3    H167229   0.806   3.810   1.839 -1.2249  0.0135  0.4096
15246TIP3    H267230   0.667   3.758   1.811 -2.1770  1.2567  2.5567
15247TIP3   OH267231   2.985   5.216   2.087 -0.0067 -0.1182  0.7023
15247TIP3    H167232   3.060   5.249   2.135 -0.5103 -1.4830  2.5621
15247TIP3    H267233   2.989   5.121   2.098 -1.4744 -0.2904  0.0708
15248TIP3   OH267234   0.453   3.891  13.564  0.2043  0.2007 -0.0803
15248TIP3    H167235   0.369   3.876  13.519 -1.2579  0.6754  2.3142
15248TIP3    H267236   0.455   3.985  13.580  1.4088  0.2519 -0.4522
15249TIP3   OH267237   3.837   1.514   5.508  0.3630  0.2554  0.0904
15249TIP3    H167238   3.770   1.484   5.447 -0.3209 -1.7813  1.7104
15249TIP3    H267239   3.912   1.456   5.492  0.7446  0.7318  0.1313
15250TIP3   OH267240   1.469   0.934  16.994 -0.4138  0.4346 -0.3352
15250TIP3    H167241   1.498   0.851  16.958 -1.9119 -0.9854  1.5250
15250TIP3    H267242   1.397   0.962  16.938  0.8528  1.1287 -1.6643
15251TIP3   OH267243   6.611   0.616   6.093 -0.2780  0.6660 -0.1121
15251TIP3    H167244   6.535   0.667   6.120 -0.1356  0.2345  1.1732
15251TIP3    H267245   6.686   0.666   6.126 -0.0311  0.7491 -0.7873
15252TIP3   OH267246   1.749   2.978   2.683  0.0616  0.4249  0.9513
15252TIP3    H167247   1.756   3.056   2.738 -0.5633  0.1214  1.4703
15252TIP3    H267248   1.796   2.910   2.730  2.2664  0.9095 -0.3853
15253TIP3   OH267249   6.121   2.981   4.616  0.3487  0.1946 -0.1896
15253TIP3    H167250   6.121   3.025   4.531  1.1142 -0.2182 -0.4172
15253TIP3    H267251   6.199   3.014   4.660  0.8953 -0.8569 -0.3397
15254TIP3   OH267252   6.231   3.325  12.421 -0.2369  0.3453  0.2488
15254TIP3    H167253   6.199   3.370  12.343  0.7032  1.8090  0.6685
15254TIP3    H267254   6.216   3.387  12.492 -0.1936 -0.5830  1.0940
15255TIP3   OH267255   6.362   6.243   4.163 -0.0958 -0.3252  0.2230
15255TIP3    H167256   6.371   6.172   4.227  0.4977  0.0188  0.5327
15255TIP3    H267257   6.431   6.226   4.099  3.3334  2.4557  2.7288
15256TIP3   OH267258   3.281   4.280  14.857 -0.1024 -0.5518  0.2784
15256TIP3    H167259   3.243   4.368  14.859 -0.6329 -0.7768  2.3217
15256TIP3    H267260   3.207   4.222  14.875  0.3352 -1.3943 -0.5797
15257TIP3   OH267261   5.854   0.221   4.272  0.2133  0.4117  0.1088
15257TIP3    H167262   5.821   0.172   4.196  1.5071 -0.7867  0.2721
15257TIP3    H267263   5.861   0.311   4.241 -0.8273  0.2494 -0.6678
15258TIP3   OH267264   0.440   0.787  15.335  0.0992 -0.4062 -0.1790
15258TIP3    H167265   0.474   0.719  15.277  1.4688  0.3141 -0.2407
15258TIP3    H267266   0.466   0.759  15.423 -1.0188 -0.9295  0.0041
15259TIP3   OH267267   4.450   3.931  15.615 -0.4049  0.2537  0.0856
15259TIP3    H167268   4.442   3.873  15.539 -2.1640 -1.6368  1.6028
15259TIP3    H267269   4.534   3.909  15.654 -0.7000 -0.7265  0.1867
15260TIP3   OH267270   2.136   0.848   6.012 -0.4468  0.0411  0.1289
15260TIP3    H167271   2.041   0.851   6.018 -0.3767  1.6981  1.2572
15260TIP3    H267272   2.166   0.847   6.103  0.6157 -0.2582 -0.2012
15261TIP3   OH267273   0.651   0.020  14.016 -0.1341 -0.5711 -0.3689
15261TIP3    H167274   0.746   0.029  14.030 -0.3301 -0.3514  1.0168
15261TIP3    H267275   0.612   0.079  14.081 -1.2565 -2.2019  0.4977
15262TIP3   OH267276   0.322   2.954   4.611 -0.5440  0.2292 -0.6804
15262TIP3    H167277   0.329   2.910   4.695 -1.9382  0.1095 -0.6051
15262TIP3    H267278   0.239   2.925   4.575  0.0510  0.2451 -2.1331
15263TIP3   OH267279   2.045   0.675   0.508 -0.0442 -0.2538  0.2708
15263TIP3    H167280   2.106   0.606   0.535  2.3026  1.3886 -0.4336
15263TIP3    H267281   2.021   0.719   0.589  0.7859 -0.1054  0.4441
15264TIP3   OH267282   2.776   5.405  14.809  0.3020  0.3835  0.8487
15264TIP3    H167283   2.696   5.435  14.766  1.3661  1.1762 -0.6473
15264TIP3    H267284   2.789   5.316  14.777 -1.7294 -1.0827  3.6929
15265TIP3   OH267285   3.531   4.436   3.515  0.2586  0.1944 -0.3424
15265TIP3    H167286   3.601   4.462   3.575 -0.3128  0.3185  0.2867
15265TIP3    H267287   3.574   4.377   3.452  0.8324 -0.0743  0.2864
15266TIP3   OH267288   3.197   5.653  12.139 -0.4449  0.5075 -0.0520
15266TIP3    H167289   3.189   5.661  12.044 -1.1267  0.4057 -0.0050
15266TIP3    H267290   3.226   5.740  12.168 -0.6555  0.6638 -0.3067
15267TIP3   OH267291   2.660   6.777  17.143  0.2956 -0.0479  0.0047
15267TIP3    H167292   2.614   6.841  17.089  0.7151 -0.7413 -1.2355
15267TIP3    H267293   2.727   6.827  17.189  0.2652  0.4965 -0.5287
15268TIP3   OH267294   5.399   6.026  16.409 -0.4155  0.3622  0.2653
15268TIP3    H167295   5.359   6.052  16.326  1.4707 -1.1549 -1.2052
15268TIP3    H267296   5.480   5.982  16.384 -0.3694 -1.2327  2.8537
15269TIP3   OH267297   3.040   1.491  17.103 -0.6296  0.6456  0.3482
15269TIP3    H167298   3.027   1.539  17.021  1.7607  0.8534  0.0074
15269TIP3    H267299   3.014   1.553  17.171 -0.9727  1.1195 -0.1970
15270TIP3   OH267300   5.459   4.790   5.835 -0.2487 -0.0983  0.2676
15270TIP3    H167301   5.532   4.837   5.875 -1.4014 -0.0353  2.4515
15270TIP3    H267302   5.488   4.699   5.831  1.4254  0.4252 -2.6386
15271TIP3   OH267303   3.882   6.358  15.465 -0.2402 -0.5457  0.3592
15271TIP3    H167304   3.874   6.396  15.378  0.5228  1.5951  1.1679
15271TIP3    H267305   3.928   6.276  15.451  1.2274  0.4663 -1.1074
15272TIP3   OH267306   5.054   1.457  16.011  0.7007  0.2807 -0.1254
15272TIP3    H167307   5.043   1.547  15.979  0.1960 -0.1258 -1.1372
15272TIP3    H267308   5.072   1.406  15.932  0.2605 -0.6212  0.3500
15273TIP3   OH267309   3.929   2.607  10.981 -0.2177 -0.3691  0.5055
15273TIP3    H167310   3.843   2.618  11.022 -0.6904  2.1662 -0.9413
15273TIP3    H267311   3.916   2.539  10.915 -2.1947  2.1937 -2.0202
15274TIP3   OH267312   5.258   0.308  13.342 -0.6827 -0.0708  0.1859
15274TIP3    H167313   5.341   0.343  13.308  0.2451 -1.7866  0.5368
15274TIP3    H267314   5.243   0.358  13.422 -0.3580  0.7323 -0.2387
15275TIP3   OH267315   4.618   5.705  14.700  0.2211  0.3835  0.2553
15275TIP3    H167316   4.669   5.740  14.773  0.0419 -0.0030  0.5716
15275TIP3    H267317   4.558   5.775  14.676 -0.2025  0.2672  0.9469
15276TIP3   OH267318   3.260   5.683   0.833  0.3904  0.2630 -0.6592
15276TIP3    H167319   3.180   5.679   0.885  0.8475 -0.1053  0.0253
15276TIP3    H267320   3.315   5.748   0.878 -0.7616  3.0060 -2.9079
15277TIP3   OH267321   3.328   0.813  14.342 -0.0729  0.7882 -0.3862
15277TIP3    H167322   3.359   0.722  14.338 -1.7699  0.0712  1.1910
15277TIP3    H267323   3.402   0.862  14.378  1.4828  0.4339 -2.8303
15278TIP3   OH267324   2.760   2.594  10.893 -0.1244  0.3688 -0.1843
15278TIP3    H167325   2.800   2.527  10.948  1.5171  2.4424  1.3470
15278TIP3    H267326   2.803   2.585  10.808  1.0758  0.3131  0.4111
15279TIP3   OH267327   2.136   2.229  13.958  0.2168  0.1602  0.4211
15279TIP3    H167328   2.145   2.153  13.901 -0.6205 -0.1699  0.7079
15279TIP3    H267329   2.210   2.285  13.936  0.5674 -0.5126 -0.1411
15280TIP3   OH267330   3.615   4.153  11.544  0.0073  0.0253  0.3983
15280TIP3    H167331   3.673   4.164  11.619 -0.4120 -0.3521  0.7782
15280TIP3    H267332   3.641   4.223  11.483  1.1991 -0.4569  0.3336
15281TIP3   OH267333   4.207   5.277   2.657  0.3773 -0.2458  0.2411
15281TIP3    H167334   4.239   5.190   2.631  0.3299 -0.0566 -0.4531
15281TIP3    H267335   4.272   5.307   2.721  0.2968 -0.8640  0.6338
15282TIP3   OH267336   4.417   3.201  16.401  0.1659  0.2930  0.2708
15282TIP3    H167337   4.360   3.271  16.368  0.9595  0.9573  0.2815
15282TIP3    H267338   4.398   3.126  16.344 -3.0278 -0.5582  2.1742
15283TIP3   OH267339   5.443   3.401   4.942 -0.3304 -0.1975 -0.0676
15283TIP3    H167340   5.438   3.413   4.847  0.9453  0.4932 -0.0670
15283TIP3    H267341   5.376   3.459   4.977 -0.8670 -0.5183 -0.5482
15284TIP3   OH267342   3.561   5.135   3.510 -0.1615 -0.6628 -0.1081
15284TIP3    H167343   3.601   5.098   3.431  1.2091 -1.1632  0.7840
15284TIP3    H267344   3.549   5.059   3.568  2.6163  0.1640  1.7242
15285TIP3   OH267345   0.252   4.824  12.622 -0.5130 -0.3442  0.9671
15285TIP3    H167346   0.262   4.800  12.714 -0.3004  0.2713  1.1104
15285TIP3    H267347   0.163   4.796  12.599 -0.3825 -0.9676  1.2071
15286TIP3   OH267348   1.937   3.679   5.449 -0.4423 -0.1433  0.2343
15286TIP3    H167349   1.843   3.691   5.466 -0.6619 -0.7214 -0.5244
15286TIP3    H267350   1.941   3.640   5.362  0.5466  0.6038 -0.0742
15287TIP3   OH267351   1.230   2.664   0.375  0.0983 -0.1970  0.0375
15287TIP3    H167352   1.149   2.703   0.344  0.3552 -0.7897 -1.4423
15287TIP3    H267353   1.217   2.653   0.469 -1.5306 -0.2795 -0.1793
15288TIP3   OH267354   2.277   4.771  15.848  0.1844 -0.5270  0.7369
15288TIP3    H167355   2.227   4.816  15.916  0.1559  1.5855 -0.6003
15288TIP3    H267356   2.368   4.789  15.870  0.1641  0.5836 -0.0118
15289TIP3   OH267357   4.702   2.548  15.549  0.3591 -0.4304 -0.9777
15289TIP3    H167358   4.734   2.498  15.474  1.8689  0.2110 -0.7967
15289TIP3    H267359   4.676   2.633  15.512 -1.2928 -0.9787 -1.1387
15290TIP3   OH267360   5.695   1.983  12.633 -0.5076 -0.1091 -0.0982
15290TIP3    H167361   5.728   1.933  12.707 -0.3387 -0.7443 -0.5927
15290TIP3    H267362   5.752   1.958  12.560 -1.1826 -0.1180 -0.6311
15291TIP3   OH267363   5.365   0.743  11.080  0.1144 -0.0601  0.2136
15291TIP3    H167364   5.408   0.760  10.997 -1.1239  1.8330 -0.1020
15291TIP3    H267365   5.330   0.654  11.072 -2.3064  0.9686 -2.4264
15292TIP3   OH267366   3.197   0.511   1.486  0.2216 -0.2442  0.0091
15292TIP3    H167367   3.259   0.466   1.429 -0.0287  0.7822 -1.1072
15292TIP3    H267368   3.226   0.488   1.575  2.7112  0.8592 -0.4412
15293TIP3   OH267369   3.010   6.798   0.590 -0.5383  0.2962 -0.5200
15293TIP3    H167370   2.955   6.783   0.667 -0.5427 -0.0435 -0.5887
15293TIP3    H267371   3.091   6.836   0.625 -0.9027  1.0301 -0.4396
15294TIP3   OH267372   3.592   6.170   6.624 -0.2847 -0.4343  0.3010
15294TIP3    H167373   3.542   6.095   6.656  0.5208  0.0155  2.9135
15294TIP3    H267374   3.544   6.246   6.657  0.5846  0.0846  0.3911
15295TIP3   OH267375   0.369   3.294   5.527  0.0661 -0.3177 -0.0719
15295TIP3    H167376   0.340   3.380   5.557 -0.2575  0.0606 -1.3815
15295TIP3    H267377   0.317   3.232   5.578  0.1514  0.2669  0.7391
15296TIP3   OH267378   5.602   3.643   3.897 -0.1971  0.0607  0.3357
15296TIP3    H167379   5.693   3.653   3.926  0.5369 -1.4828 -1.3171
15296TIP3    H267380   5.604   3.666   3.804 -1.1903 -1.3907 -0.0740
15297TIP3   OH267381   5.598   4.250   2.174  0.4500  0.4545  0.2382
15297TIP3    H167382   5.527   4.191   2.201  1.1709 -0.5014  0.1088
15297TIP3    H267383   5.560   4.337   2.181 -0.4677  0.0208  1.0171
15298TIP3   OH267384   2.429   3.775  14.419 -0.0417  0.2933 -0.2041
15298TIP3    H167385   2.334   3.768  14.431  0.0037  1.5597  1.2535
15298TIP3    H267386   2.454   3.850  14.473  1.9047 -0.5170  0.1007
15299TIP3   OH267387   1.377   1.613  12.155 -0.3518  0.3352  0.3542
15299TIP3    H167388   1.294   1.654  12.131 -0.5191 -0.0974  0.1967
15299TIP3    H267389   1.353   1.527  12.189  0.0968 -0.2078 -0.6554
15300TIP3   OH267390   0.189   1.977   0.528 -0.2806  0.0551 -0.3169
15300TIP3    H167391   0.164   2.045   0.590  2.5285  1.0076 -0.0708
15300TIP3    H267392   0.197   2.023   0.444 -1.9668 -0.7887 -0.9799
15301TIP3   OH267393   1.651   4.676   0.066  0.1242 -0.0415  0.2032
15301TIP3    H167394   1.653   4.686  -0.029  1.0505  0.1911  0.2345
15301TIP3    H267395   1.570   4.628   0.084  0.0502 -0.2749 -0.7200
15302TIP3   OH267396   1.518   4.647   3.873 -0.0496  0.4361 -0.1944
15302TIP3    H167397   1.601   4.620   3.832  0.5203  1.2188  0.4179
15302TIP3    H267398   1.459   4.573   3.857  0.4706  0.2737 -1.4817
15303TIP3   OH267399   6.828   5.661   4.884  0.1316  0.1836 -0.5057
15303TIP3    H167400   6.750   5.607   4.901  0.4605  0.2884  1.5993
15303TIP3    H267401   6.882   5.649   4.962  2.0407  0.4700 -1.7309
15304TIP3   OH267402   3.705   6.104   1.360 -0.0596  0.5337 -0.2006
15304TIP3    H167403   3.680   6.123   1.269 -0.2606  1.0731 -0.0375
15304TIP3    H267404   3.798   6.082   1.355 -0.0031  0.8272 -0.5026
15305TIP3   OH267405   0.372   6.169  16.683 -0.1433 -0.1700  0.0597
15305TIP3    H167406   0.346   6.081  16.658 -0.3952 -0.0856  0.0232
15305TIP3    H267407   0.414   6.206  16.605  2.2421 -1.1222  0.7889
15306TIP3   OH267408   0.259   0.880  15.061  0.0047 -0.5934  0.8429
15306TIP3    H167409   0.217   0.932  15.130  2.6436  1.1027  1.3081
15306TIP3    H267410   0.352   0.881  15.084  0.9583 -0.2800 -2.5181
15307TIP3   OH267411   2.410   2.540  11.858  0.2824  0.1562 -0.3837
15307TIP3    H167412   2.411   2.447  11.837  0.6521 -0.3444  1.6878
15307TIP3    H267413   2.502   2.567  11.856  0.2025  0.4272 -0.6609
15308TIP3   OH267414   5.498   2.319   5.617  0.0306 -0.2168  0.2177
15308TIP3    H167415   5.488   2.227   5.641  0.0882 -0.5959 -1.0891
15308TIP3    H267416   5.478   2.368   5.697 -1.6425 -1.3179  0.5250
15309TIP3   OH267417   2.416   0.032   1.259 -0.0314 -0.2589 -0.4464
15309TIP3    H167418   2.385   0.060   1.346 -3.3409  0.8219 -1.8001
15309TIP3    H267419   2.384  -0.058   1.251  0.3415 -0.3843 -0.5482
15310TIP3   OH267420   3.413   5.979  11.691  0.1170 -0.0620 -0.5856
15310TIP3    H167421   3.365   6.037  11.632  1.0140  1.0827 -0.2091
15310TIP3    H267422   3.396   5.891  11.656 -1.4445  0.3768 -1.0256
15311TIP3   OH267423   1.301   2.155  14.596 -0.7507  0.0214 -0.1565
15311TIP3    H167424   1.240   2.182  14.665  0.0369  0.7083  0.2784
15311TIP3    H267425   1.246   2.150  14.518 -1.6791 -0.8847  0.5215
15312TIP3   OH267426   4.097   6.087  16.629  0.9044 -0.1587 -0.4725
15312TIP3    H167427   4.123   6.011  16.681  0.9015  1.2404  1.6643
15312TIP3    H267428   4.002   6.091  16.638  0.7812 -0.4747 -1.4678
15313TIP3   OH267429   0.188   1.523  16.625 -0.3417 -0.1853 -0.1079
15313TIP3    H167430   0.271   1.561  16.653  0.5654 -0.9577 -1.6274
15313TIP3    H267431   0.127   1.597  16.622 -0.1768  0.1618  2.4933
15314TIP3   OH267432   3.098   1.585   2.529 -0.1782  0.1304  0.8661
15314TIP3    H167433   3.081   1.495   2.559  0.5513  0.0422  1.0350
15314TIP3    H267434   3.170   1.615   2.584  2.5498 -0.6984 -1.9320
15315TIP3   OH267435   0.945   4.182   4.598  0.6538 -0.3558  0.1107
15315TIP3    H167436   0.928   4.186   4.504 -3.0026 -3.8122  0.3422
15315TIP3    H267437   0.870   4.224   4.638  1.4636 -0.1987  1.5352
15316TIP3   OH267438   4.473   6.640   0.941 -0.5013 -0.0146 -0.5849
15316TIP3    H167439   4.439   6.575   1.002  0.0806  0.2518  0.0314
15316TIP3    H267440   4.443   6.610   0.855 -1.8005 -0.0904 -0.1273
15317TIP3   OH267441   6.067   6.648   0.340 -0.3182 -0.0112 -0.1050
15317TIP3    H167442   6.154   6.616   0.363 -1.1583 -1.5865  1.0882
15317TIP3    H267443   6.070   6.661   0.245  0.9191 -1.0177 -0.2260
15318TIP3   OH267444   1.655   0.337   5.825  0.2233 -0.0210 -0.0960
15318TIP3    H167445   1.566   0.324   5.791  0.2752  1.5553 -0.8905
15318TIP3    H267446   1.665   0.432   5.831  2.3208 -0.1185 -1.2836
15319TIP3   OH267447   1.611   2.030   1.820  0.6775 -0.1780  0.7797
15319TIP3    H167448   1.584   1.942   1.846 -0.0265 -0.2172 -0.0560
15319TIP3    H267449   1.618   2.026   1.725  1.2762  0.5001  0.7876
15320TIP3   OH267450   1.574   6.668   1.603 -0.1247 -0.2929 -0.3947
15320TIP3    H167451   1.602   6.656   1.513  0.2854 -1.2466 -0.1535
15320TIP3    H267452   1.518   6.592   1.621  0.1026 -0.3094  0.2722
15321TIP3   OH267453   6.505   0.562  15.803 -0.3071 -0.4531 -0.6973
15321TIP3    H167454   6.547   0.647  15.815  0.5490 -0.4947 -2.8783
15321TIP3    H267455   6.427   0.565  15.858  0.7574  0.9463  0.8121
15322TIP3   OH267456   5.169   1.011  13.074 -0.6502 -0.3918  0.0166
15322TIP3    H167457   5.183   0.941  13.010 -0.8948 -0.2573 -0.1904
15322TIP3    H267458   5.077   1.002  13.100 -1.3911  1.2179 -1.7185
15323TIP3   OH267459   1.447   6.664  12.662  0.2189  0.1304  0.1991
15323TIP3    H167460   1.412   6.600  12.600  1.3892 -0.6051  0.2668
15323TIP3    H267461   1.485   6.732  12.607  0.7052 -0.2107  0.1109
15324TIP3   OH267462   6.440   5.395  14.327 -0.5279 -0.2850  0.0613
15324TIP3    H167463   6.412   5.332  14.394  0.4027  0.8016  1.5513
15324TIP3    H267464   6.475   5.469  14.378 -2.5812  1.9542 -1.5458
15325TIP3   OH267465   5.042   0.808  15.539 -0.3589  0.0009  0.1755
15325TIP3    H167466   5.043   0.896  15.577 -2.3503  0.1646 -0.0184
15325TIP3    H267467   4.994   0.755  15.603  0.1181 -0.7638 -0.0879
15326TIP3   OH267468   2.542   2.107  12.850 -0.0259 -0.1906  0.9413
15326TIP3    H167469   2.507   2.018  12.848 -0.0283 -0.2123 -1.5557
15326TIP3    H267470   2.475   2.158  12.895 -1.1658 -1.0432  0.2697
15327TIP3   OH267471   5.450   6.814   1.692 -0.4561 -0.4117 -0.5169
15327TIP3    H167472   5.480   6.899   1.723 -0.6335 -0.6692  0.3971
15327TIP3    H267473   5.528   6.758   1.695 -0.4941 -0.4612 -0.4422
15328TIP3   OH267474   6.475   4.120  12.255 -0.5629 -0.2785  0.1415
15328TIP3    H167475   6.493   4.087  12.167  0.2100 -0.9849  0.5516
15328TIP3    H267476   6.410   4.059  12.290 -0.5785 -0.2274  0.2003
15329TIP3   OH267477   1.248   2.957  15.262  0.3269  0.5069  0.0666
15329TIP3    H167478   1.333   2.997  15.244  0.9975  0.5332  2.8826
15329TIP3    H267479   1.262   2.864  15.247 -0.1039  0.7806 -2.5130
15330TIP3   OH267480   1.571   3.309  10.582 -0.5264 -0.1951 -0.2929
15330TIP3    H167481   1.488   3.262  10.587  0.0499 -1.3699 -1.2350
15330TIP3    H267482   1.634   3.244  10.551  0.1096  1.4189 -2.7567
15331TIP3   OH267483   4.574   3.330   0.604  0.0422 -0.5556 -0.0639
15331TIP3    H167484   4.561   3.375   0.520  1.5147  0.9957  0.4755
15331TIP3    H267485   4.641   3.264   0.587  1.3098  0.6381  0.1336
15332TIP3   OH267486   1.134   1.720  12.118 -0.2255 -0.1886 -0.3666
15332TIP3    H167487   1.084   1.795  12.085  0.3792 -0.1829 -1.3081
15332TIP3    H267488   1.067   1.654  12.139 -0.6288 -0.4408 -2.2675
15333TIP3   OH267489   6.473   1.581  16.634  0.4084 -0.2482 -0.4596
15333TIP3    H167490   6.442   1.536  16.555  0.7237  2.1006 -2.0047
15333TIP3    H267491   6.564   1.552  16.644  0.3592 -0.5686 -0.9318
15334TIP3   OH267492   4.793   3.179   5.011 -0.4876 -0.2014  0.2171
15334TIP3    H167493   4.759   3.262   5.045 -0.2620 -0.6076  1.4756
15334TIP3    H267494   4.884   3.198   4.989 -0.5008 -0.0545  0.2869
15335TIP3   OH267495   6.217   4.354   5.349  0.4426 -0.5379  0.1079
15335TIP3    H167496   6.158   4.356   5.424  0.6110  0.4390  0.2308
15335TIP3    H267497   6.182   4.420   5.290 -0.0269 -1.6910 -0.9540
15336TIP3   OH267498   2.364   3.888   3.666  0.2113  0.0089 -0.3977
15336TIP3    H167499   2.438   3.940   3.634  0.0664  0.7913  0.4792
15336TIP3    H267500   2.401   3.834   3.736  0.3869 -1.1916 -1.3876
15337TIP3   OH267501   2.030   0.438   1.788 -0.4274 -0.2062 -0.0820
15337TIP3    H167502   2.096   0.472   1.728  0.7037  0.0598  1.2747
15337TIP3    H267503   1.951   0.430   1.734  0.5062  0.1397 -1.5618
15338TIP3   OH267504   5.704   4.114   3.514 -0.2644 -0.2228  0.1771
15338TIP3    H167505   5.638   4.086   3.577  0.0225 -1.2592  0.0354
15338TIP3    H267506   5.706   4.044   3.449  0.5366  0.0949 -0.1506
15339TIP3   OH267507   5.035   2.474  11.433 -0.4797  0.2254 -0.3485
15339TIP3    H167508   5.066   2.461  11.523  0.9525 -0.4587 -0.9160
15339TIP3    H267509   4.945   2.506  11.444 -0.3925  0.0272  1.3176
15340TIP3   OH267510   2.301   5.489  15.259  0.2951 -0.0429  0.2830
15340TIP3    H167511   2.288   5.473  15.166 -2.1200  4.2017 -0.3707
15340TIP3    H267512   2.354   5.569  15.262  0.2612 -0.0425  2.5409
15341TIP3   OH267513   5.450   1.720  11.469 -0.4132  0.6980 -0.3599
15341TIP3    H167514   5.522   1.688  11.414 -0.5661  0.9087 -0.6899
15341TIP3    H267515   5.416   1.642  11.511  0.4779  0.6913  0.3742
15342TIP3   OH267516   5.654   0.992  13.046 -0.0606  0.1921  0.5971
15342TIP3    H167517   5.627   1.057  13.111  1.4842  1.4787  0.0251
15342TIP3    H267518   5.691   0.921  13.098  1.1534  1.2008  1.1893
15343TIP3   OH267519   3.376   1.665   0.670  0.0070  0.1954 -0.0173
15343TIP3    H167520   3.298   1.720   0.660  0.8798  1.8415  1.6566
15343TIP3    H267521   3.429   1.710   0.736  1.9464 -1.3814 -0.4029
15344TIP3   OH267522   5.469   0.889  16.392 -0.4708 -0.4960 -0.9377
15344TIP3    H167523   5.523   0.887  16.313 -1.2184 -1.0369 -1.4506
15344TIP3    H267524   5.469   0.798  16.423  0.0936 -0.2264 -0.1129
15345TIP3   OH267525   0.346   1.334  12.668  0.0009  0.3477 -0.4946
15345TIP3    H167526   0.342   1.244  12.637 -0.9105  0.0839  0.3465
15345TIP3    H267527   0.438   1.359  12.657  0.2089 -0.5993 -0.9642
15346TIP3   OH267528   2.119   2.134   6.364  0.4710 -0.5308  0.0172
15346TIP3    H167529   2.198   2.141   6.310  0.9565  1.6277  0.9320
15346TIP3    H267530   2.048   2.157   6.304  0.6327 -1.2737 -0.4861
15347TIP3   OH267531   1.752   0.986  15.313 -0.0997  1.0690 -0.2622
15347TIP3    H167532   1.804   0.908  15.328  0.1314  0.7529 -2.3962
15347TIP3    H267533   1.666   0.953  15.284  0.1030  1.5525 -1.5142
15348TIP3   OH267534   5.163   4.037  17.175  0.1443 -0.3081  0.2103
15348TIP3    H167535   5.070   4.056  17.162  0.4593  1.0934 -0.1213
15348TIP3    H267536   5.165   3.976  17.249 -0.9927  0.1205  0.6148
15349TIP3   OH267537   2.913   6.261   2.793  0.1536  0.4056 -0.5123
15349TIP3    H167538   2.977   6.306   2.848  1.2031 -2.1414  0.4761
15349TIP3    H267539   2.837   6.247   2.850  0.6525 -0.8927 -0.1436
15350TIP3   OH267540   6.142   5.299   3.990 -0.0011  0.4845 -0.5013
15350TIP3    H167541   6.124   5.237   3.919  0.6530  0.1387 -0.3727
15350TIP3    H267542   6.077   5.368   3.979 -0.0521  0.3163 -1.2939
15351TIP3   OH267543   1.774   5.312   6.041 -0.2103 -1.3171 -0.0232
15351TIP3    H167544   1.687   5.311   6.082  0.0424  3.8611  1.3492
15351TIP3    H267545   1.834   5.318   6.115  0.8091  1.0520 -0.9647
15352TIP3   OH267546   1.279   4.337   5.463 -0.7839 -0.0642  0.6429
15352TIP3    H167547   1.356   4.347   5.519 -0.6524 -0.1716  0.4827
15352TIP3    H267548   1.206   4.327   5.525 -0.5807 -0.6237  0.7987
15353TIP3   OH267549   2.061   0.713  16.140  0.3364 -0.7033  0.1252
15353TIP3    H167550   2.077   0.711  16.234  0.2845  0.5510  0.1780
15353TIP3    H267551   1.966   0.711  16.131  0.2211  1.6851  0.2364
15354TIP3   OH267552   0.398   4.356   4.633  0.1794  0.0540 -0.1893
15354TIP3    H167553   0.375   4.325   4.545 -0.1539 -1.7547  0.4914
15354TIP3    H267554   0.439   4.441   4.619 -0.5729  0.1498 -2.0276
15355TIP3   OH267555   5.185   6.343   3.979  0.5365 -0.0343 -0.0613
15355TIP3    H167556   5.168   6.399   3.903 -0.5761 -0.6598 -0.2883
15355TIP3    H267557   5.280   6.345   3.989  0.5633  1.4424 -0.4092
15356TIP3   OH267558   0.856   5.432  11.910 -0.2561 -0.1521 -0.5029
15356TIP3    H167559   0.897   5.411  11.993  0.7964  1.0485 -0.6814
15356TIP3    H267560   0.927   5.469  11.857 -1.7740  3.6107 -0.2729
15357TIP3   OH267561   2.599   1.077   5.671  0.1112  0.2202  0.6546
15357TIP3    H167562   2.608   1.172   5.680 -2.3079  0.6393 -0.3561
15357TIP3    H267563   2.591   1.045   5.761  0.8852  0.9832  1.0018
15358TIP3   OH267564   0.570   1.264  13.038  0.4336 -0.5155 -0.5430
15358TIP3    H167565   0.554   1.201  12.969 -0.4797 -1.3601  0.4089
15358TIP3    H267566   0.516   1.340  13.015  0.0453 -0.8377 -0.6921
15359TIP3   OH267567   3.787   6.274  17.042 -0.7020  0.5032  0.0731
15359TIP3    H167568   3.732   6.342  17.003  0.2145  0.9845 -0.4116
15359TIP3    H267569   3.864   6.269  16.985 -0.9243 -1.2270 -0.1318
15360TIP3   OH267570   3.131   6.044   3.990 -0.1972  0.5214  0.4399
15360TIP3    H167571   3.148   6.083   4.076  0.1322  1.0710  0.1363
15360TIP3    H267572   3.179   6.100   3.929  0.4852 -0.5142  0.0064
15361TIP3   OH267573   0.857   6.315   3.376 -0.6327 -0.2658  0.2037
15361TIP3    H167574   0.864   6.242   3.315 -2.2163 -0.4651  0.2099
15361TIP3    H267575   0.797   6.284   3.444 -0.1221  0.5060  1.0304
15362TIP3   OH267576   0.587   0.213   1.935  0.1720  0.0621  0.0295
15362TIP3    H167577   0.494   0.226   1.956 -0.0309 -1.4033  0.1398
15362TIP3    H267578   0.610   0.289   1.882 -1.2394  0.1701 -0.4766
15363TIP3   OH267579   3.481   6.495  14.774 -0.0068  0.2355  0.2593
15363TIP3    H167580   3.503   6.428  14.839  0.7244  0.2808  0.0662
15363TIP3    H267581   3.490   6.578  14.822  1.5048  0.3234 -0.1540
15364TIP3   OH267582   3.294   3.640  12.700  0.0610  0.0979 -0.5217
15364TIP3    H167583   3.385   3.646  12.728 -0.1694 -0.6223  0.4406
15364TIP3    H267584   3.296   3.577  12.628  0.3060 -0.0411 -0.3971
15365TIP3   OH267585   1.891   1.677   2.062 -0.3377 -0.5123 -0.2020
15365TIP3    H167586   1.870   1.752   2.118 -4.3088 -0.0512 -1.9319
15365TIP3    H267587   1.983   1.688   2.040 -0.1429  2.4862  1.5573
15366TIP3   OH267588   2.746   4.717   2.984  0.5098 -0.3838  0.7736
15366TIP3    H167589   2.735   4.706   2.889 -2.3152 -0.1346  0.9648
15366TIP3    H267590   2.764   4.810   2.996  2.2836 -0.6587  0.4368
15367TIP3   OH267591   3.588   4.721   4.138  0.3239 -0.4087 -0.0402
15367TIP3    H167592   3.631   4.639   4.162  1.1021  0.1084  0.3518
15367TIP3    H267593   3.504   4.718   4.185  0.6284 -0.6869  0.4895
15368TIP3   OH267594   6.557   4.455  13.503 -0.2194  0.3877 -0.2647
15368TIP3    H167595   6.523   4.511  13.433  0.8652  0.2848 -0.8969
15368TIP3    H267596   6.506   4.479  13.580 -1.4827  0.4620 -1.0939
15369TIP3   OH267597   4.013   2.170   6.579  0.2709  0.1263 -0.5558
15369TIP3    H167598   4.015   2.102   6.647  2.8915  0.0245 -0.6292
15369TIP3    H267599   3.945   2.141   6.518 -0.2767 -1.1937  0.6320
15370TIP3   OH267600   0.392   2.523  10.530 -0.3165  1.1788  0.2387
15370TIP3    H167601   0.483   2.516  10.502 -1.2165  0.3790 -2.8355
15370TIP3    H267602   0.388   2.469  10.609  1.7309  0.7008  0.0741
15371TIP3   OH267603   1.135   2.705  14.373 -0.2854 -0.1556 -0.1083
15371TIP3    H167604   1.079   2.642  14.327 -0.4444  0.2282 -0.4459
15371TIP3    H267605   1.133   2.676  14.464 -0.9429 -0.2208 -0.1354
15372TIP3   OH267606   6.144   0.627   2.014  0.4919 -0.0057 -0.6523
15372TIP3    H167607   6.201   0.674   2.075 -1.4057 -0.5869  1.7270
15372TIP3    H267608   6.163   0.534   2.029  1.0085 -0.1628 -2.0556
15373TIP3   OH267609   1.166   5.607  11.409 -0.2874 -0.5076  0.4890
15373TIP3    H167610   1.238   5.615  11.346  0.2018 -3.3991  0.5359
15373TIP3    H267611   1.159   5.694  11.448  1.4821  0.5406 -1.3054
15374TIP3   OH267612   5.955   6.756  13.887  0.0437 -0.3864 -0.2459
15374TIP3    H167613   6.031   6.802  13.853  0.4903 -0.9797 -0.0727
15374TIP3    H267614   5.915   6.714  13.811 -1.1379  1.3263 -0.6361
15375TIP3   OH267615   2.406   5.701  13.985  0.4260  0.2067  0.5960
15375TIP3    H167616   2.392   5.607  13.977 -0.4477  0.4415 -1.6685
15375TIP3    H267617   2.346   5.729  14.054 -0.5594 -0.6879  0.1316
15376TIP3   OH267618   0.976   0.724   2.783 -0.4132 -0.3066  0.1781
15376TIP3    H167619   1.031   0.802   2.789 -1.4341  0.5101 -0.7523
15376TIP3    H267620   1.028   0.663   2.731 -0.4812  0.5745 -0.9749
15377TIP3   OH267621   3.902   3.496   3.896 -0.4127  0.3437 -0.0517
15377TIP3    H167622   3.843   3.556   3.850 -2.4740 -2.0695 -0.7763
15377TIP3    H267623   3.853   3.469   3.974 -0.2640 -1.6182 -0.5953
15378TIP3   OH267624   3.233   5.356   1.015 -0.3186  0.4063  0.0987
15378TIP3    H167625   3.278   5.391   1.092  0.2809  1.8462 -0.8653
15378TIP3    H267626   3.140   5.371   1.033 -0.1728  0.8441  0.4994
15379TIP3   OH267627   3.997   6.405  13.656  0.0550 -0.1452  0.4758
15379TIP3    H167628   4.026   6.320  13.688  0.6656  0.2914  1.0998
15379TIP3    H267629   4.074   6.461  13.661 -0.2860  0.3978 -0.1274
15380TIP3   OH267630   3.117   2.391  12.284  0.2185 -0.0296  0.1875
15380TIP3    H167631   3.025   2.412  12.295  0.0391 -0.6939 -0.0175
15380TIP3    H267632   3.163   2.462  12.329 -0.4076 -0.2019  1.1314
15381TIP3   OH267633   5.217   2.627  17.079  0.0049 -0.1471  0.0945
15381TIP3    H167634   5.202   2.547  17.129  0.9147 -0.6221 -0.3610
15381TIP3    H267635   5.231   2.695  17.145  0.5787 -0.6451  0.4989
15382TIP3   OH267636   1.691   5.054  12.202  0.4723  0.1367  0.2881
15382TIP3    H167637   1.596   5.058  12.187  0.6341  0.2002 -0.7997
15382TIP3    H267638   1.729   5.089  12.122  1.4349 -0.3737  0.5111
15383TIP3   OH267639   6.800   0.036   1.453  0.5007  0.0006  0.0035
15383TIP3    H167640   6.808   0.051   1.547 -0.2732 -0.9077  0.2290
15383TIP3    H267641   6.878  -0.016   1.431  0.7477  0.3204  0.1152
15384TIP3   OH267642   0.622   3.196   1.749  0.0759  0.3775 -0.2250
15384TIP3    H167643   0.626   3.222   1.656 -0.3690  0.3675 -0.2490
15384TIP3    H267644   0.698   3.139   1.761 -1.2792 -1.7750 -1.2580
15385TIP3   OH267645   2.648   6.752   0.317  0.5906 -0.3807  0.5485
15385TIP3    H167646   2.644   6.719   0.407 -0.9407 -1.9740 -0.0390
15385TIP3    H267647   2.740   6.741   0.291  1.3441  1.3173  2.3025
15386TIP3   OH267648   6.293   6.652   5.628  0.2216 -0.0539  0.0608
15386TIP3    H167649   6.282   6.731   5.681 -0.9416  0.7517 -1.3109
15386TIP3    H267650   6.226   6.592   5.661 -0.5031  0.4473 -0.4433
15387TIP3   OH267651   2.534   1.320  12.319  0.7084 -0.0700  0.1083
15387TIP3    H167652   2.523   1.391  12.382 -0.2640  0.2346 -0.3952
15387TIP3    H267653   2.608   1.348  12.265  0.0556  0.7625 -0.3600
15388TIP3   OH267654   2.699   4.774   3.973  0.7613  0.1399 -0.4213
15388TIP3    H167655   2.715   4.836   3.902 -0.6130  0.2173 -0.6897
15388TIP3    H267656   2.780   4.722   3.979  1.3968  1.0272 -1.1183
15389TIP3   OH267657   5.619   0.175   3.214  0.3041 -0.0148  0.4033
15389TIP3    H167658   5.646   0.143   3.300 -1.8726  0.6439  1.4188
15389TIP3    H267659   5.677   0.130   3.152  1.3266 -1.2205  2.1419
15390TIP3   OH267660   2.318   2.263  12.943  0.4004 -0.5835  0.0023
15390TIP3    H167661   2.230   2.289  12.970  0.2463  0.5640 -1.4670
15390TIP3    H267662   2.370   2.344  12.947  1.0953 -1.0072 -0.2385
15391TIP3   OH267663   0.749   2.140  13.604 -0.0851 -0.0449 -0.1004
15391TIP3    H167664   0.832   2.175  13.637  0.4793 -0.2130 -1.2549
15391TIP3    H267665   0.768   2.117  13.513 -1.2156 -0.7377 -0.1841
15392TIP3   OH267666   2.330   0.470  15.012  0.1594 -0.2310  0.0187
15392TIP3    H167667   2.313   0.533  15.082 -2.4774 -1.5769  0.7431
15392TIP3    H267668   2.409   0.424  15.039 -0.4930 -0.3450  1.8805
15393TIP3   OH267669   1.749   6.219   2.180  0.0557  0.0349 -0.1341
15393TIP3    H167670   1.787   6.303   2.204  0.8110  0.1885 -1.7827
15393TIP3    H267671   1.670   6.213   2.233  0.3464  1.4714  0.5033
15394TIP3   OH267672   4.286   0.045  14.259 -0.2596  0.3597  0.3049
15394TIP3    H167673   4.250  -0.042  14.241 -0.1586  0.5749 -1.0123
15394TIP3    H267674   4.377   0.040  14.230 -0.0728  0.7237  0.8168
15395TIP3   OH267675   1.710   0.405   0.677 -0.0415 -0.6706  0.2653
15395TIP3    H167676   1.630   0.451   0.700  0.8341  0.4159  1.3231
15395TIP3    H267677   1.743   0.450   0.599  1.5569  1.6142  2.0953
15396TIP3   OH267678   0.936   1.233   2.317 -0.4145 -0.1612  0.0796
15396TIP3    H167679   1.008   1.296   2.311 -0.0507 -0.5270  0.5462
15396TIP3    H267680   0.971   1.162   2.371 -1.6834  0.4537  1.8274
15397TIP3   OH267681   0.721   5.300  13.838  0.0256 -0.0623 -0.1925
15397TIP3    H167682   0.677   5.376  13.798 -1.0959 -0.7182 -0.2492
15397TIP3    H267683   0.651   5.235  13.848  0.8387 -0.8516  0.4595
15398TIP3   OH267684   0.272   5.319   3.207  0.2400 -0.3510 -0.6709
15398TIP3    H167685   0.228   5.242   3.170 -1.3850  0.4229 -0.4296
15398TIP3    H267686   0.340   5.282   3.264 -0.3428 -1.6027 -0.7484
15399TIP3   OH267687   4.809   4.622  14.744 -0.0333 -0.0961 -0.4675
15399TIP3    H167688   4.874   4.625  14.815 -0.6346  0.6725  0.0697
15399TIP3    H267689   4.860   4.639  14.665  0.6865 -1.2080 -0.2669
15400TIP3   OH267690   5.810   6.031  16.743 -0.0249  0.1070  0.1411
15400TIP3    H167691   5.809   6.097  16.673  0.0771  0.8858  0.8649
15400TIP3    H267692   5.724   5.990  16.738 -0.9256  1.7687  1.0438
15401TIP3   OH267693   3.962   2.343   3.637  0.4262 -0.4670  0.0086
15401TIP3    H167694   4.010   2.274   3.682  0.1739 -0.6528 -0.0092
15401TIP3    H267695   3.875   2.341   3.675  0.1006 -0.8691 -0.7427
15402TIP3   OH267696   4.332   2.459  13.740 -0.3462 -0.2001 -0.2233
15402TIP3    H167697   4.284   2.517  13.682 -1.8834 -1.1498  0.0521
15402TIP3    H267698   4.274   2.446  13.815  1.3126  0.4706  1.2513
15403TIP3   OH267699   6.082   6.055  13.277 -0.4521  0.1135 -0.1918
15403TIP3    H167700   6.054   5.964  13.273 -1.3448  0.4320 -1.7069
15403TIP3    H267701   6.005   6.106  13.253  0.7360  1.1264 -2.1137
15404TIP3   OH267702   0.185   0.975  14.363 -0.1157  0.5551  0.1229
15404TIP3    H167703   0.197   0.881  14.357 -1.5728  0.3515  0.1537
15404TIP3    H267704   0.274   1.011  14.355  0.6453 -0.8610  1.6497
15405TIP3   OH267705   4.723   2.087  13.481  0.1602  0.2198 -0.0300
15405TIP3    H167706   4.697   2.161  13.535 -1.2271  0.9934 -1.6423
15405TIP3    H267707   4.818   2.098  13.470  0.2190  0.8839  0.9736
15406TIP3   OH267708   3.099   1.471  12.699 -0.1920 -0.3893  0.5781
15406TIP3    H167709   3.128   1.411  12.768  1.8626 -0.6912 -0.4652
15406TIP3    H267710   3.073   1.550  12.746  1.5778 -0.4277  1.7235
15407TIP3   OH267711   5.495   4.943   1.128 -0.5153  0.3299 -0.5242
15407TIP3    H167712   5.578   4.990   1.137 -0.3806  0.1651 -0.8723
15407TIP3    H267713   5.435   5.007   1.089 -0.5421  0.4386 -0.3044
15408TIP3   OH267714   1.742   5.803  10.495  0.2617 -0.6463  0.1216
15408TIP3    H167715   1.676   5.735  10.482  1.4214 -1.7727 -0.1131
15408TIP3    H267716   1.812   5.759  10.543  1.1314  0.3323 -0.2149
15409TIP3   OH267717   4.625   4.185  16.969 -0.0846 -0.2937 -0.2325
15409TIP3    H167718   4.551   4.158  16.915 -0.1241  0.7035 -0.7154
15409TIP3    H267719   4.596   4.172  17.059  0.0526 -2.1868 -0.4265
15410TIP3   OH267720   5.647   4.680   3.693 -0.0520  0.0230 -0.1268
15410TIP3    H167721   5.653   4.585   3.681 -1.9026 -0.0588 -0.7973
15410TIP3    H267722   5.664   4.716   3.606 -0.7128  0.2143 -0.1796
15411TIP3   OH267723   1.236   3.421  13.057 -0.0065  0.6394 -0.4073
15411TIP3    H167724   1.239   3.512  13.026  1.7825  0.7214 -0.1129
15411TIP3    H267725   1.328   3.393  13.058 -0.4108 -0.7736  0.6906
15412TIP3   OH267726   4.805   2.964  14.015  0.5408 -0.4392  0.0024
15412TIP3    H167727   4.740   2.910  14.059 -0.2662  0.9763  0.6370
15412TIP3    H267728   4.756   3.041  13.985  1.2565 -0.8778 -2.5464
15413TIP3   OH267729   2.420   3.920  13.540 -0.2254  0.0972 -0.6444
15413TIP3    H167730   2.489   3.956  13.595  0.3658 -3.3847  1.2135
15413TIP3    H267731   2.467   3.883  13.465 -0.0349 -1.6235  0.2611
15414TIP3   OH267732   4.014   2.720  16.756 -0.0302 -0.1309  0.1370
15414TIP3    H167733   4.021   2.806  16.798  0.3523 -1.6202  3.4802
15414TIP3    H267734   4.089   2.715  16.697 -0.0203  1.7623 -0.0651
15415TIP3   OH267735   6.615   1.499  13.722  0.0067  0.0938 -0.4479
15415TIP3    H167736   6.636   1.436  13.791 -0.8505  0.3342  0.0405
15415TIP3    H267737   6.676   1.479  13.652  1.7116  0.6050  0.8207
15416TIP3   OH267738   3.900   6.454   1.727  0.1078  0.3488 -0.7855
15416TIP3    H167739   3.829   6.477   1.787  0.7532 -2.0359  1.0379
15416TIP3    H267740   3.859   6.397   1.662  0.1549 -0.3182 -0.2411
15417TIP3   OH267741   0.425   6.398  12.684  0.2451  0.5205  0.3955
15417TIP3    H167742   0.459   6.308  12.688  0.4152  0.6440  3.1992
15417TIP3    H267743   0.501   6.451  12.660  0.4499  0.0813  0.0484
15418TIP3   OH267744   4.600   2.412  14.392 -0.2634 -0.6076 -0.4866
15418TIP3    H167745   4.630   2.424  14.482 -1.3015 -3.0732  0.2868
15418TIP3    H267746   4.528   2.349  14.399 -2.2714  1.2214 -2.7668
15419TIP3   OH267747   2.101   0.421   5.986  0.1260  0.2028 -0.1042
15419TIP3    H167748   2.136   0.509   5.978  0.4982  0.1092  0.4859
15419TIP3    H267749   2.137   0.387   6.068 -0.2396 -0.3942 -0.1808
15420TIP3   OH267750   4.671   4.478   3.098 -0.1755 -0.0780  0.3836
15420TIP3    H167751   4.612   4.550   3.075 -2.5900 -1.4476  1.8369
15420TIP3    H267752   4.730   4.515   3.164 -1.4383  0.5977  1.1788
15421TIP3   OH267753   3.430   4.353   5.116 -0.7411 -0.2424  0.6707
15421TIP3    H167754   3.372   4.404   5.173 -0.0542 -0.6471  1.7511
15421TIP3    H267755   3.410   4.261   5.138 -0.8777 -0.4252 -0.1666
15422TIP3   OH267756   1.413   3.692  12.730  0.3266 -0.6649  0.4964
15422TIP3    H167757   1.466   3.627  12.777 -0.2759 -2.2871 -0.9315
15422TIP3    H267758   1.453   3.695  12.642 -1.1186 -0.9383 -0.1975
15423TIP3   OH267759   2.585   3.449  16.702  0.6238  0.3337  0.0489
15423TIP3    H167760   2.552   3.430  16.614 -1.9597 -0.4841  1.0865
15423TIP3    H267761   2.612   3.363  16.736 -0.0031  0.3562  0.6277
15424TIP3   OH267762   4.037   1.826  13.337  0.4903  0.6249 -0.0533
15424TIP3    H167763   4.080   1.897  13.385 -0.6431 -0.2806  2.5466
15424TIP3    H267764   3.944   1.851  13.336  0.1544 -0.5103  0.4391
15425TIP3   OH267765   6.749   4.556  12.188  0.2365  0.3452  0.3645
15425TIP3    H167766   6.689   4.483  12.192  0.4703  0.1177 -0.1636
15425TIP3    H267767   6.779   4.558  12.097  1.4292  0.1138  0.7217
15426TIP3   OH267768   2.495   4.447   2.044 -0.0617 -0.1628  0.1890
15426TIP3    H167769   2.505   4.402   2.128 -0.9448 -0.2486  0.2527
15426TIP3    H267770   2.585   4.458   2.013  0.2289 -1.0414  0.6591
15427TIP3   OH267771   1.891   1.652  15.620 -0.0452  0.0971 -0.0345
15427TIP3    H167772   1.916   1.591  15.550 -0.0397  0.6203 -0.4955
15427TIP3    H267773   1.800   1.674  15.601 -0.4725 -0.7997  0.9023
15428TIP3   OH267774   3.878   5.771   5.849 -0.1040  0.0415  0.0604
15428TIP3    H167775   3.815   5.796   5.781  1.2116 -0.8257 -1.5478
15428TIP3    H267776   3.825   5.740   5.921 -1.6106  2.2831  0.0107
15429TIP3   OH267777   0.834   3.479  14.304  0.1198 -0.5826  0.4196
15429TIP3    H167778   0.906   3.537  14.280 -0.8833  0.8327  0.7489
15429TIP3    H267779   0.825   3.490  14.399 -1.2924  0.1926  0.2223
15430TIP3   OH267780   3.066   2.505  11.604  0.1048  0.3487  0.6584
15430TIP3    H167781   3.101   2.594  11.604 -0.1591  0.4851 -1.0553
15430TIP3    H267782   3.016   2.499  11.686  2.3156  0.8394  2.1157
15431TIP3   OH267783   1.050   0.375  16.136  1.1379  0.0375  0.2467
15431TIP3    H167784   1.071   0.431  16.211 -0.9994  1.8785 -0.4198
15431TIP3    H267785   1.128   0.380  16.079  2.3036 -0.4353  1.7383
15432TIP3   OH267786   0.613   0.519  12.874 -0.2045 -0.0317 -0.2969
15432TIP3    H167787   0.539   0.572  12.901  0.7740  0.6538  1.1724
15432TIP3    H267788   0.586   0.429  12.891 -0.8001  0.1950 -0.0435
15433TIP3   OH267789   4.871   5.305  14.570  0.3784 -0.3207 -0.2507
15433TIP3    H167790   4.922   5.287  14.650 -0.9622  0.2966  0.7862
15433TIP3    H267791   4.780   5.305  14.599 -0.0396  2.2556 -1.2561
15434TIP3   OH267792   5.163   3.265   3.742 -0.1283  0.1454  0.0571
15434TIP3    H167793   5.249   3.231   3.770 -0.5983 -0.8714  0.3010
15434TIP3    H267794   5.101   3.221   3.800 -0.9517 -0.3797 -1.2021
15435TIP3   OH267795   5.001   2.118  15.175  0.2183 -0.0281 -0.4840
15435TIP3    H167796   5.057   2.187  15.210 -1.5538  1.1715  0.1350
15435TIP3    H267797   4.973   2.150  15.090 -0.4433 -0.0851 -0.2913
15436TIP3   OH267798   0.327   5.192   3.515 -0.0180 -0.1078 -0.2218
15436TIP3    H167799   0.395   5.138   3.555  0.1440 -0.2672 -0.7006
15436TIP3    H267800   0.282   5.133   3.455  0.8758  0.5426 -1.5815
15437TIP3   OH267801   1.636   2.331  11.320 -0.1970  0.1636 -0.5844
15437TIP3    H167802   1.568   2.267  11.341 -0.7821  0.7520 -0.6914
15437TIP3    H267803   1.593   2.416  11.325  1.1549  0.7851  2.0526
15438TIP3   OH267804   2.053   1.631  16.012  0.0513 -0.2467 -0.0864
15438TIP3    H167805   2.110   1.654  15.939  0.8273  2.2772  1.1929
15438TIP3    H267806   2.062   1.704  16.073 -1.9554 -1.4025  1.7235
15439TIP3   OH267807   1.258   5.839   5.425 -0.1029  0.0317  0.1807
15439TIP3    H167808   1.265   5.826   5.520  1.2694 -0.2335  0.0645
15439TIP3    H267809   1.171   5.806   5.403 -0.4964  0.2304  1.3702
15440TIP3   OH267810   2.476   4.108  12.015 -0.2367  0.3550  0.4618
15440TIP3    H167811   2.431   4.161  11.950 -2.3221 -0.0558  1.5004
15440TIP3    H267812   2.562   4.151  12.025 -0.6051  1.5395 -1.1241
15441TIP3   OH267813   6.160   3.461  16.467  0.3774  0.2022  0.1870
15441TIP3    H167814   6.225   3.401  16.429 -0.8564 -0.0073 -1.7530
15441TIP3    H267815   6.085   3.405  16.486  0.0209  0.7718  0.4585
15442TIP3   OH267816   1.409   0.086  11.377 -0.1517 -0.2871  0.3872
15442TIP3    H167817   1.364   0.022  11.432  0.9364 -1.1828  0.2636
15442TIP3    H267818   1.387   0.062  11.287 -0.3654 -0.0045  0.3612
15443TIP3   OH267819   5.582   0.722   1.378  1.1122  0.0032 -0.1671
15443TIP3    H167820   5.535   0.746   1.299  2.4312 -0.5347 -1.1547
15443TIP3    H267821   5.535   0.766   1.449  0.1991  0.8914 -1.2952
15444TIP3   OH267822   5.904   4.952   3.149  0.2862  0.0837  0.0415
15444TIP3    H167823   5.839   4.958   3.218 -1.9759 -2.3351 -1.6974
15444TIP3    H267824   5.963   4.882   3.179 -2.3734 -3.1083 -1.4975
15445TIP3   OH267825   6.126   0.236  14.488  0.9170 -0.5104 -0.5883
15445TIP3    H167826   6.176   0.317  14.485 -0.3127  0.3553  0.8545
15445TIP3    H267827   6.139   0.203  14.577 -0.7676 -0.4314 -0.2828
15446TIP3   OH267828   3.622   6.619  10.604 -0.0072  0.0823  0.0799
15446TIP3    H167829   3.690   6.567  10.646  0.0088 -0.6289 -0.8112
15446TIP3    H267830   3.570   6.655  10.677 -0.0094 -1.1545  0.7037
15447TIP3   OH267831   6.753   4.741  10.584  0.1328 -0.1245 -0.0097
15447TIP3    H167832   6.753   4.651  10.617  0.3629 -0.2179 -0.2594
15447TIP3    H267833   6.838   4.776  10.610  0.3056 -0.1925 -0.4858
15448TIP3   OH267834   1.744   2.249   2.574  0.1706 -0.1693  0.0257
15448TIP3    H167835   1.723   2.162   2.541 -1.5542 -0.1427  0.9632
15448TIP3    H267836   1.694   2.308   2.518 -1.0192  0.0129  1.2492
15449TIP3   OH267837   2.893   6.057   3.814  0.0023 -0.4043  0.0685
15449TIP3    H167838   2.937   6.134   3.777  1.1145  0.2334  2.5172
15449TIP3    H267839   2.948   6.032   3.888 -2.4402 -1.1669  1.7214
15450TIP3   OH267840   0.720   4.142   2.571  0.5182 -0.4094 -0.2506
15450TIP3    H167841   0.664   4.095   2.633 -0.4094  2.3545  1.1546
15450TIP3    H267842   0.809   4.126   2.602  0.0568  1.7040  2.5817
15451TIP3   OH267843   5.044   1.091   5.279  0.2912  0.1634  0.5526
15451TIP3    H167844   5.137   1.096   5.258  0.5103 -0.8327  1.2207
15451TIP3    H267845   5.041   1.055   5.368 -0.7128  0.8466  0.8213
15452TIP3   OH267846   2.418   0.094   3.358 -0.4415 -0.4750  0.0518
15452TIP3    H167847   2.442   0.151   3.285  1.8660 -0.9848  0.3421
15452TIP3    H267848   2.379   0.017   3.317 -0.5092 -0.1403 -0.5245
15453TIP3   OH267849   3.566   5.380   3.409  0.1326  0.5332 -0.3471
15453TIP3    H167850   3.496   5.417   3.462 -1.4685 -2.1384 -0.4253
15453TIP3    H267851   3.565   5.287   3.430  2.0522  0.0243 -2.1993
15454TIP3   OH267852   5.059   4.940  15.846 -1.0322  0.3469  0.0481
15454TIP3    H167853   5.134   4.994  15.821 -0.5837 -0.3174 -0.0568
15454TIP3    H267854   5.004   4.998  15.898 -0.7099  0.9963 -0.3287
15455TIP3   OH267855   3.791   1.805  11.230 -0.4218 -0.1109 -0.4746
15455TIP3    H167856   3.726   1.866  11.266  1.8635  2.1495  0.0695
15455TIP3    H267857   3.872   1.826  11.276  0.6004 -3.3694 -0.5732
15456TIP3   OH267858   5.466   3.162  16.313  0.0101  0.6165  0.0850
15456TIP3    H167859   5.548   3.199  16.281  0.1004 -0.7477 -1.3640
15456TIP3    H267860   5.407   3.165  16.237 -0.9374  0.5251  0.7864
15457TIP3   OH267861   3.196   3.449   2.259  0.8241 -0.0608 -0.2185
15457TIP3    H167862   3.140   3.489   2.325  1.5996 -0.5686  0.7796
15457TIP3    H267863   3.261   3.517   2.238  1.2885 -0.3017  0.4244
15458TIP3   OH267864   0.357   5.767   2.017 -0.6426  0.4537  0.2875
15458TIP3    H167865   0.397   5.830   1.957  0.2011 -0.6760 -0.3699
15458TIP3    H267866   0.380   5.799   2.104  1.1918  0.1981 -0.0592
15459TIP3   OH267867   4.183   2.655   6.155 -0.4294  0.0696 -0.0605
15459TIP3    H167868   4.115   2.674   6.219 -1.0209 -0.8609 -0.4008
15459TIP3    H267869   4.250   2.607   6.204 -1.5706 -2.0016 -0.4137
15460TIP3   OH267870   1.725   1.605   5.600 -0.3816 -0.3165 -0.2495
15460TIP3    H167871   1.816   1.616   5.627  0.5242 -0.6830 -2.9371
15460TIP3    H267872   1.687   1.692   5.609  1.3043  0.7733 -2.5609
15461TIP3   OH267873   1.425   1.130   4.314  0.4977  0.1308  0.5482
15461TIP3    H167874   1.358   1.065   4.296 -1.1406  2.1728 -1.2225
15461TIP3    H267875   1.507   1.080   4.316 -0.9531 -2.5039  3.1184
15462TIP3   OH267876   0.731   6.823   4.588  0.4299 -0.7020  0.1669
15462TIP3    H167877   0.794   6.852   4.522  0.5003  0.5221  0.7371
15462TIP3    H267878   0.744   6.884   4.661 -1.0591 -0.7638  0.5049
15463TIP3   OH267879   2.642   0.787  11.889  0.3425 -0.3419 -0.0533
15463TIP3    H167880   2.591   0.754  11.816  1.8346 -0.2569 -1.1983
15463TIP3    H267881   2.580   0.794  11.961 -1.3356  0.1740 -1.4723
15464TIP3   OH267882   6.091   3.542  15.134 -0.6929 -0.3036 -0.0318
15464TIP3    H167883   6.136   3.606  15.189 -0.1584 -0.8571  0.1941
15464TIP3    H267884   6.059   3.476  15.195 -1.1517 -0.3050 -0.2722
15465TIP3   OH267885   4.096   2.472  11.683  0.6946 -0.1814 -0.7783
15465TIP3    H167886   4.028   2.437  11.741 -0.0880  0.7350 -1.1120
15465TIP3    H267887   4.093   2.417  11.605  2.6078 -2.2303  0.4758
15466TIP3   OH267888   2.109   6.726  10.898 -0.0213  0.0811  0.2528
15466TIP3    H167889   2.056   6.805  10.902 -0.9756 -0.4059 -1.5551
15466TIP3    H267890   2.057   6.665  10.845  2.1723 -0.5303 -1.3695
15467TIP3   OH267891   4.013   0.699   3.165 -0.3013 -0.0863  0.1024
15467TIP3    H167892   4.046   0.677   3.252  0.6083  0.8433  0.0178
15467TIP3    H267893   4.037   0.791   3.153 -0.3365 -0.2252 -1.1656
15468TIP3   OH267894   6.095   4.986  14.765 -0.4885  0.5184  0.1409
15468TIP3    H167895   6.081   5.067  14.716  0.2010 -0.0848 -1.1130
15468TIP3    H267896   6.156   5.009  14.834  1.7585  0.5668 -1.7543
15469TIP3   OH267897   0.384   2.059   4.816  0.3743 -0.2645 -0.1502
15469TIP3    H167898   0.316   2.120   4.847  1.0721 -0.2654  1.5230
15469TIP3    H267899   0.465   2.093   4.854  0.8509 -1.9782  0.4525
15470TIP3   OH267900   3.520   0.635  15.497 -0.3448  0.0075  0.4979
15470TIP3    H167901   3.453   0.593  15.551 -0.3036  0.9693  1.3456
15470TIP3    H267902   3.476   0.710  15.458  0.0162  0.1682  0.3945
15471TIP3   OH267903   6.077   3.561  13.577  0.3859 -0.7611 -0.0882
15471TIP3    H167904   6.150   3.606  13.620 -1.3219  1.4150  0.7222
15471TIP3    H267905   6.005   3.567  13.639 -1.0668 -1.0123 -1.6752
15472TIP3   OH267906   2.505   6.063   4.870  0.1958 -0.3885 -0.0739
15472TIP3    H167907   2.541   6.152   4.868  0.7905 -0.6115  0.3685
15472TIP3    H267908   2.509   6.033   4.779 -0.3713  0.1731 -0.2939
15473TIP3   OH267909   4.311   3.493   1.044 -0.2120  0.2011  0.0465
15473TIP3    H167910   4.225   3.452   1.037  0.5666 -1.3005 -1.5970
15473TIP3    H267911   4.355   3.443   1.113 -0.2227  0.1544  0.0191
15474TIP3   OH267912   2.699   1.249   1.326 -0.2155  0.1632 -0.1180
15474TIP3    H167913   2.738   1.227   1.241 -2.9382  1.4750 -1.8378
15474TIP3    H267914   2.636   1.180   1.342 -1.9408  1.5180 -0.7879
15475TIP3   OH267915   2.369   0.099  12.073 -0.1497  0.2910 -0.2188
15475TIP3    H167916   2.358   0.194  12.065  0.5928  0.6338  2.0702
15475TIP3    H267917   2.339   0.079  12.162 -0.3730 -1.6569 -0.6852
15476TIP3   OH267918   6.577   2.099   3.953  0.3317  0.7597 -0.2039
15476TIP3    H167919   6.615   2.147   4.026  0.0651 -1.3680  1.4392
15476TIP3    H267920   6.635   2.024   3.940 -1.3767 -0.6803  0.0709
15477TIP3   OH267921   2.197   3.902  11.852 -0.7299  0.2239  0.9597
15477TIP3    H167922   2.272   3.845  11.874 -0.4304  0.3868  0.3610
15477TIP3    H267923   2.120   3.849  11.874 -0.4475  0.3013  2.2273
15478TIP3   OH267924   0.499   2.568  13.765 -0.5734  0.2555  0.1294
15478TIP3    H167925   0.533   2.626  13.834  2.2286  1.1858 -1.8390
15478TIP3    H267926   0.447   2.626  13.710  1.6386  0.8757 -1.4380
15479TIP3   OH267927   0.234   3.441   2.888 -0.0944 -0.3312  0.3998
15479TIP3    H167928   0.274   3.513   2.839  2.1032  0.7852  3.5104
15479TIP3    H267929   0.245   3.364   2.833  2.4671  0.7767 -0.7961
15480TIP3   OH267930   6.642   0.863  16.474 -0.2018  0.2482 -0.1800
15480TIP3    H167931   6.720   0.808  16.474  0.3002  0.9462 -0.4711
15480TIP3    H267932   6.631   0.889  16.566 -0.2351 -0.0456 -0.1008
15481TIP3   OH267933   4.005   5.728  11.759 -0.9120  0.3815 -0.4282
15481TIP3    H167934   4.010   5.639  11.725 -0.3881  1.0767 -2.2952
15481TIP3    H267935   3.916   5.757  11.738 -0.5495  0.8546 -1.3546
15482TIP3   OH267936   3.509   0.025   3.474  0.5047 -0.0433 -0.3572
15482TIP3    H167937   3.497   0.113   3.439 -0.7880 -0.0647 -0.0239
15482TIP3    H267938   3.501  -0.032   3.398 -1.0317 -0.0074 -0.2538
15483TIP3   OH267939   6.042   4.925   4.692  0.1484  0.3389  0.4886
15483TIP3    H167940   5.998   4.871   4.759 -0.8187  1.3851  0.7225
15483TIP3    H267941   5.980   4.928   4.619  0.7015  0.1758  0.0073
15484TIP3   OH267942   5.866   3.211  12.483 -0.1661  0.2496 -0.2196
15484TIP3    H167943   5.878   3.298  12.520  0.8979 -0.0435  0.1684
15484TIP3    H267944   5.771   3.202  12.473 -0.2691  1.6207 -0.7101
15485TIP3   OH267945   1.421   6.316   5.202 -0.6987 -0.4216 -0.0690
15485TIP3    H167946   1.379   6.402   5.209  0.1423  0.1946 -2.0163
15485TIP3    H267947   1.426   6.285   5.293 -1.0766  1.5564  0.6833
15486TIP3   OH267948   0.169   2.441  15.792 -0.2545  0.1971  0.0480
15486TIP3    H167949   0.073   2.442  15.800 -0.2558  1.5328  0.0613
15486TIP3    H267950   0.197   2.371  15.851 -1.0573  1.7181  2.3606
15487TIP3   OH267951   0.708   2.930  11.265 -0.8851  0.7184 -0.4834
15487TIP3    H167952   0.650   2.872  11.215  0.3552 -3.4280  2.3588
15487TIP3    H267953   0.658   2.951  11.344 -0.2417  1.1110 -0.1757
15488TIP3   OH267954   5.067   4.885   5.061 -0.0013  0.7065 -0.1965
15488TIP3    H167955   5.141   4.830   5.086 -0.2970  0.2975 -0.2034
15488TIP3    H267956   5.082   4.905   4.968  2.7607  4.8066  0.8600
15489TIP3   OH267957   3.650   4.224  16.538 -0.2469 -0.5530 -0.1891
15489TIP3    H167958   3.573   4.191  16.582  0.4238 -1.9416 -0.0229
15489TIP3    H267959   3.635   4.207  16.445  0.4674 -2.2013 -0.0351
15490TIP3   OH267960   3.673   5.736  14.498  0.7232 -0.2628 -0.1970
15490TIP3    H167961   3.705   5.646  14.506  1.0497 -0.1510 -0.1962
15490TIP3    H267962   3.599   5.741  14.557  1.6997 -0.0827  1.0566
15491TIP3   OH267963   5.764   3.700   4.978 -0.0895  0.8735  0.0688
15491TIP3    H167964   5.737   3.674   4.890  0.9975  1.1143 -0.3500
15491TIP3    H267965   5.681   3.712   5.026 -0.6825 -0.6298 -0.4985
15492TIP3   OH267966   3.344   1.359  13.376 -0.1056 -0.2454 -0.4088
15492TIP3    H167967   3.259   1.395  13.398 -0.0088  0.2264 -0.8070
15492TIP3    H267968   3.360   1.293  13.445 -0.7271 -0.2521 -0.2626
15493TIP3   OH267969   1.422   2.179  17.130  0.4360 -0.2525 -0.2352
15493TIP3    H167970   1.347   2.148  17.181  1.4153 -0.5999  1.0440
15493TIP3    H267971   1.437   2.268  17.161  0.4029 -0.0911 -0.6746
15494TIP3   OH267972   0.886   3.381  12.717  0.4827 -0.0752 -0.6209
15494TIP3    H167973   0.822   3.408  12.783 -0.6554 -0.7519 -1.4134
15494TIP3    H267974   0.960   3.441  12.730 -0.8285  1.6159 -0.5154
15495TIP3   OH267975   4.586   5.724  14.307 -0.0629  0.4959 -0.7679
15495TIP3    H167976   4.636   5.642  14.306  1.4120  1.3575 -0.0249
15495TIP3    H267977   4.600   5.759  14.395 -0.3106  1.7683 -1.2190
15496TIP3   OH267978   5.876   2.540  14.966 -0.1289  0.2920 -0.1401
15496TIP3    H167979   5.845   2.604  14.903 -0.4710 -2.0971 -2.5869
15496TIP3    H267980   5.971   2.535  14.951 -0.2013 -0.2355 -0.4637
15497TIP3   OH267981   2.607   2.602   4.178  0.6807  0.7802 -0.0051
15497TIP3    H167982   2.554   2.681   4.181 -0.3431  0.1902 -1.3358
15497TIP3    H267983   2.630   2.584   4.269 -1.4495  1.0571  0.6299
15498TIP3   OH267984   1.010   6.577   5.350 -0.1817  0.1935  0.3759
15498TIP3    H167985   0.985   6.663   5.383  1.7216  0.6667  0.6737
15498TIP3    H267986   1.105   6.582   5.339  0.1352 -2.2162  1.4593
15499TIP3   OH267987   3.552   1.878   0.096 -0.5447  0.0668  0.0853
15499TIP3    H167988   3.557   1.944   0.166 -3.7762 -1.9952  2.5847
15499TIP3    H267989   3.460   1.878   0.069 -0.1197 -1.7012 -1.6109
15500TIP3   OH267990   5.429   3.686   0.719 -1.0916 -0.3955  0.3895
15500TIP3    H167991   5.406   3.606   0.767  1.1377 -1.6203 -0.4119
15500TIP3    H267992   5.524   3.693   0.729 -0.8091  0.4101 -2.1447
15501TIP3   OH267993   0.979   1.445   1.956  0.0589 -0.2125  0.2718
15501TIP3    H167994   1.015   1.493   2.030  0.7132 -0.3735  0.0696
15501TIP3    H267995   1.027   1.477   1.880 -1.0926  0.4646 -0.2037
15502TIP3   OH267996   5.321   6.126  14.904  0.7859  0.2902  0.2240
15502TIP3    H167997   5.226   6.127  14.914  0.3525 -0.6099 -2.6625
15502TIP3    H267998   5.340   6.198  14.843  1.7915 -0.2241 -0.0993
15503TIP3   OH267999   0.568   2.059  15.399 -0.5210 -0.3494  0.5203
15503TIP3    H168000   0.549   2.019  15.314 -0.0577 -1.9594  1.1410
15503TIP3    H268001   0.632   2.128  15.379 -0.2732 -0.8337 -0.4110
15504TIP3   OH268002   5.306   5.954   0.424 -0.1304  0.2626 -0.0720
15504TIP3    H168003   5.401   5.964   0.432  0.1691 -1.1533 -1.3007
15504TIP3    H268004   5.287   5.871   0.468 -0.7789  0.4263 -0.0327
15505TIP3   OH268005   3.597   5.140  11.558 -0.1300 -0.2068  0.1502
15505TIP3    H168006   3.620   5.164  11.468 -1.2611 -0.8389 -0.3353
15505TIP3    H268007   3.576   5.046  11.553 -1.6632  0.0682  0.7415
15506TIP3   OH268008   6.228   1.726   2.087  0.6456 -0.2371  0.4086
15506TIP3    H168009   6.302   1.781   2.060  1.0829 -0.2874  1.4245
15506TIP3    H268010   6.156   1.788   2.101  0.9498  0.0107  0.9186
15507TIP3   OH268011   1.263   6.617  15.217  0.1256  0.4578 -0.1013
15507TIP3    H168012   1.212   6.613  15.136 -1.4886 -0.6232  0.9022
15507TIP3    H268013   1.347   6.578  15.194  0.1045  1.1979 -1.5211
15508TIP3   OH268014   0.908   4.568  15.969 -0.4305 -0.2012  0.3788
15508TIP3    H168015   0.887   4.632  15.901  2.5375 -1.7016 -2.2566
15508TIP3    H268016   0.880   4.484  15.931  2.4141 -1.2250  0.3627
15509TIP3   OH268017   1.339   5.714  13.839  0.3181  0.2488  0.3351
15509TIP3    H168018   1.404   5.748  13.900  0.6213 -0.3015  0.3253
15509TIP3    H268019   1.314   5.629  13.875 -0.6258  0.5907  0.4991
15510TIP3   OH268020   6.622   6.760   4.817  0.2284  0.5956 -0.7726
15510TIP3    H168021   6.663   6.674   4.825 -0.6148  0.2707  0.4272
15510TIP3    H268022   6.542   6.744   4.767 -1.2946  0.1292  1.6598
15511TIP3   OH268023   3.025   1.908   3.229 -0.1621 -0.0409 -0.0214
15511TIP3    H168024   3.046   1.817   3.208  0.5850 -1.3162  5.0173
15511TIP3    H268025   2.935   1.906   3.260 -0.6016  1.2685 -1.1181
15512TIP3   OH268026   1.829   5.282   0.517 -0.2936 -0.5512  0.1603
15512TIP3    H168027   1.765   5.335   0.471  0.2834 -1.1534 -1.3874
15512TIP3    H268028   1.813   5.300   0.610 -1.0962  1.1415 -0.2758
15513TIP3   OH268029   1.840   5.927  15.693 -0.0940  0.2936 -0.7356
15513TIP3    H168030   1.858   5.840  15.729  1.2882  0.0746 -1.8920
15513TIP3    H268031   1.925   5.962  15.668 -0.6280  1.9848 -0.3427
15514TIP3   OH268032   3.603   3.218  13.138 -0.5957 -0.1142  0.1182
15514TIP3    H168033   3.571   3.294  13.187 -0.9145 -0.1844  0.0259
15514TIP3    H268034   3.698   3.221  13.148 -0.6224  0.1613  0.3140
15515TIP3   OH268035   1.170   4.306  14.864  0.2132  0.7765  0.1232
15515TIP3    H168036   1.121   4.252  14.925 -0.4670  1.4348  0.1726
15515TIP3    H268037   1.236   4.350  14.918  1.1251 -0.3774 -0.0004
15516TIP3   OH268038   0.168   0.680  12.771  0.5344  0.0345 -0.1045
15516TIP3    H168039   0.184   0.620  12.698  1.3472  0.9420 -0.7044
15516TIP3    H268040   0.130   0.757  12.730 -1.1403 -0.3041  0.7437
15517TIP3   OH268041   1.595   3.731  11.813  0.0947  0.3204  0.1966
15517TIP3    H168042   1.616   3.789  11.886 -0.9504 -0.9386  1.5853
15517TIP3    H268043   1.632   3.773  11.736  2.2163  1.1647  1.6088
15518TIP3   OH268044   2.954   0.872   5.462  0.3934  0.1625  0.3554
15518TIP3    H168045   2.958   0.803   5.396 -1.0789 -0.4812  0.8953
15518TIP3    H268046   2.872   0.856   5.509 -0.3899  2.7239  0.0413
15519TIP3   OH268047   1.279   2.278   0.772 -0.2700 -0.4481  1.1898
15519TIP3    H168048   1.249   2.324   0.850 -0.2763 -1.3316  1.7204
15519TIP3    H268049   1.235   2.194   0.775  0.0102 -0.6356  0.4209
15520TIP3   OH268050   2.457   4.146   4.397 -0.3556 -0.7804 -0.1882
15520TIP3    H168051   2.386   4.102   4.444 -0.8443  0.4080  0.2257
15520TIP3    H268052   2.413   4.216   4.348  0.5239 -0.0869  0.0024
15521TIP3   OH268053   6.594   2.993   4.907 -0.1665  0.4838 -0.4341
15521TIP3    H168054   6.570   3.086   4.902  0.2033  0.5000 -2.7196
15521TIP3    H268055   6.690   2.994   4.914 -0.0180  0.2864 -2.1304
15522TIP3   OH268056   0.579   1.159  16.276 -0.0796  0.2935 -0.1194
15522TIP3    H168057   0.658   1.166  16.223  0.1847 -0.8922  0.0833
15522TIP3    H268058   0.508   1.177  16.215  0.2844  0.1356 -0.6037
15523TIP3   OH268059   0.840   1.120  16.212 -0.6347 -0.5953  0.0361
15523TIP3    H168060   0.829   1.194  16.271 -0.1038 -1.6972  1.5560
15523TIP3    H268061   0.885   1.053  16.263 -0.3609 -1.6909 -1.5372
15524TIP3   OH268062   4.255   3.726   0.250 -0.1879  0.6144  0.0125
15524TIP3    H168063   4.307   3.649   0.227  2.4137  2.2659 -0.0648
15524TIP3    H268064   4.251   3.724   0.346  2.1356  1.6576  0.1960
15525TIP3   OH268065   5.738   2.196   3.452 -0.8467  0.1356 -0.1675
15525TIP3    H168066   5.690   2.113   3.446 -1.3552  0.3814  0.4967
15525TIP3    H268067   5.688   2.257   3.398 -1.7155  0.5865  1.1081
15526TIP3   OH268068   4.093   2.506   1.754 -0.3018 -0.1123 -0.0249
15526TIP3    H168069   4.125   2.506   1.845  0.0537  1.0954 -0.1257
15526TIP3    H268070   4.142   2.437   1.711  0.1354 -0.1435  0.5094
15527TIP3   OH268071   0.512   2.109   3.583 -0.2938 -0.5327  0.0170
15527TIP3    H168072   0.421   2.137   3.574 -0.3663 -0.1048  1.6997
15527TIP3    H268073   0.563   2.181   3.545 -0.5873  0.5570  1.6028
15528TIP3   OH268074   1.461   1.543   4.450  0.5257 -0.1037  0.0526
15528TIP3    H168075   1.535   1.588   4.410  1.2345 -1.9828 -0.8697
15528TIP3    H268076   1.408   1.513   4.377  0.4714 -1.3689  0.5719
15529TIP3   OH268077   2.916   2.988  17.126  0.2386  0.0755  0.1671
15529TIP3    H168078   2.989   2.971  17.068  0.2130 -0.1592  0.2027
15529TIP3    H268079   2.889   3.077  17.105  0.3691  0.0695 -0.0253
15530TIP3   OH268080   2.092   3.557   0.193 -0.1306  0.4659  0.2904
15530TIP3    H168081   2.094   3.653   0.193 -0.1955  0.4778  1.2312
15530TIP3    H268082   2.127   3.533   0.279 -2.3748 -0.2711  1.0683
15531TIP3   OH268083   2.975   5.108   6.313  0.2282 -0.3065  0.3356
15531TIP3    H168084   2.899   5.062   6.348  1.8254 -2.2110  1.5624
15531TIP3    H268085   2.978   5.191   6.361 -0.5063 -0.6566  1.0044
15532TIP3   OH268086   1.156   4.968  11.714  0.1110 -0.1276  0.0688
15532TIP3    H168087   1.119   5.008  11.792  0.2709 -1.2726  0.7461
15532TIP3    H268088   1.207   5.038  11.673 -1.3800  1.0032  0.0122
15533TIP3   OH268089   1.699   3.686  11.046 -0.9407  0.2450  0.7578
15533TIP3    H168090   1.656   3.630  11.110 -0.7898 -2.1936 -1.1457
15533TIP3    H268091   1.792   3.682  11.068 -0.6834 -1.9400 -0.4971
15534TIP3   OH268092   3.328   4.333  15.367  0.2125  0.3283  0.0703
15534TIP3    H168093   3.303   4.343  15.275 -0.2549 -0.7687  0.0611
15534TIP3    H268094   3.384   4.255  15.368  0.9305  0.8427  0.5923
15535TIP3   OH268095   6.748   2.369  13.825 -0.1133  0.5240  0.1089
15535TIP3    H168096   6.725   2.365  13.732 -3.2199  0.5285  0.7662
15535TIP3    H268097   6.764   2.278  13.850 -1.9279  0.1612  0.0910
15536TIP3   OH268098   2.752   5.676   1.977 -0.5510 -0.0138 -1.1372
15536TIP3    H168099   2.781   5.586   1.968 -2.0195 -0.6619  0.1768
15536TIP3    H268100   2.659   5.670   2.000 -0.1464  1.7274  1.3103
15537TIP3   OH268101   2.846   6.176   4.733  0.0951  0.5149  0.1899
15537TIP3    H168102   2.775   6.123   4.698  0.0768  0.4452  0.3352
15537TIP3    H268103   2.900   6.115   4.783  1.6984  0.0067 -1.9906
15538TIP3   OH268104   1.957   1.963  13.848  0.2862 -0.1164  0.0921
15538TIP3    H168105   1.942   1.939  13.940 -1.6840 -0.6199 -0.3121
15538TIP3    H268106   2.039   1.919  13.824  0.9294  0.1791  1.6396
15539TIP3   OH268107   1.210   1.772  11.103 -0.5204 -0.1168  0.4342
15539TIP3    H168108   1.250   1.848  11.145 -0.1310 -0.4454  0.6632
15539TIP3    H268109   1.164   1.808  11.027 -0.0432  0.3015  0.3402
15540TIP3   OH268110   0.762   3.899  16.679  0.0417 -0.5025  0.6714
15540TIP3    H168111   0.848   3.897  16.637 -0.1823 -0.1831  0.1816
15540TIP3    H268112   0.700   3.898  16.606 -0.3826 -1.4283  1.0384
15541TIP3   OH268113   2.646   0.787   1.674 -0.3531 -0.4354  0.1711
15541TIP3    H168114   2.719   0.830   1.629  0.1132 -2.4219 -1.1187
15541TIP3    H268115   2.602   0.857   1.721  1.0148  1.2235 -0.8980
15542TIP3   OH268116   2.947   5.728  13.190  0.2940 -0.3868 -0.3992
15542TIP3    H168117   2.932   5.729  13.096 -1.3353 -1.6592 -0.1838
15542TIP3    H268118   3.005   5.653  13.205  1.6278  0.5741 -0.4790
15543TIP3   OH268119   6.738   1.422  15.147 -0.2983 -0.4027  0.5929
15543TIP3    H168120   6.782   1.504  15.170 -0.2207 -0.4335  0.5542
15543TIP3    H268121   6.809   1.358  15.141 -0.5791 -0.9924  2.8831
15544TIP3   OH268122   0.155   1.047  15.736 -0.3462  0.2158 -0.0836
15544TIP3    H168123   0.073   1.092  15.759  0.0235  1.0462 -0.3523
15544TIP3    H268124   0.174   1.077  15.647 -0.3663 -0.8956 -0.4715
15545TIP3   OH268125   1.549   2.204   2.241 -0.3296  0.0215 -0.6213
15545TIP3    H168126   1.611   2.256   2.191 -0.1288  0.8183  0.4273
15545TIP3    H268127   1.478   2.265   2.261 -0.3634 -0.2646  0.1334
15546TIP3   OH268128   0.729   4.830   4.623 -0.2629 -0.0036  0.4029
15546TIP3    H168129   0.746   4.736   4.623  1.5176  0.2400 -1.7950
15546TIP3    H268130   0.793   4.866   4.562 -1.8097  2.4952  0.1147
15547TIP3   OH268131   1.335   1.530   1.291  0.1496  0.4359 -0.0646
15547TIP3    H168132   1.413   1.556   1.241  0.5304 -1.2197 -0.3949
15547TIP3    H268133   1.369   1.469   1.357 -0.8041  0.0283  0.0605
15548TIP3   OH268134   3.794   5.169  12.297  0.6405  0.3934  0.0138
15548TIP3    H168135   3.819   5.167  12.205  0.6903  0.7351  0.0170
15548TIP3    H268136   3.703   5.140  12.298  0.5799  0.5775 -0.1645
15549TIP3   OH268137   0.197   4.324   1.799 -0.5069  0.2494  0.2451
15549TIP3    H168138   0.218   4.367   1.716 -1.3894 -0.3503 -0.3060
15549TIP3    H268139   0.179   4.396   1.860  0.4621  0.7042  0.0134
15550TIP3   OH268140   2.133   6.093   1.164  0.2903  0.3450 -0.2406
15550TIP3    H168141   2.177   6.130   1.088  1.2888 -0.7241 -0.2108
15550TIP3    H268142   2.169   6.005   1.172 -1.1568 -0.2284  0.3769
15551TIP3   OH268143   3.666   0.863   0.870  0.1215  0.2021 -0.0351
15551TIP3    H168144   3.662   0.783   0.816 -0.8444  0.5400 -0.4940
15551TIP3    H268145   3.672   0.934   0.806 -0.5217  0.5780  0.3162
15552TIP3   OH268146   5.271   6.164  16.203  0.2631  0.6115  0.3586
15552TIP3    H168147   5.323   6.218  16.143  0.4068 -0.4821 -0.5433
15552TIP3    H268148   5.217   6.226  16.251  0.7083  1.5817 -0.3652
15553TIP3   OH268149   5.007   5.275  14.245  0.0956  0.5743 -0.2136
15553TIP3    H168150   5.098   5.274  14.275 -0.1001 -0.2662  0.4090
15553TIP3    H268151   5.013   5.263  14.151  0.6056 -1.3680  0.0166
15554TIP3   OH268152   5.391   0.629   6.125 -0.1016  0.4765  1.0884
15554TIP3    H168153   5.311   0.579   6.137 -1.5903  2.5750  0.4823
15554TIP3    H268154   5.444   0.577   6.065 -1.5052 -0.4251  0.5953
15555TIP3   OH268155   3.781   5.338  15.623 -0.1579  0.2222  0.4242
15555TIP3    H168156   3.849   5.283  15.661  0.4016  0.7989  0.2827
15555TIP3    H268157   3.780   5.417  15.678  0.5129  0.9699 -0.6106
15556TIP3   OH268158   1.611   1.282  14.736 -0.1694  0.8067  0.5020
15556TIP3    H168159   1.681   1.221  14.713  0.6381  2.6584 -2.4708
15556TIP3    H268160   1.532   1.244  14.697 -0.2775  0.2684  1.2058
15557TIP3   OH268161   5.926   0.511   1.869 -0.1623  0.0957  0.0912
15557TIP3    H168162   5.867   0.561   1.926 -1.8523  0.6727 -2.0104
15557TIP3    H268163   6.003   0.567   1.859 -0.8905  1.0936 -0.0914
15558TIP3   OH268164   1.815   2.758   4.615  0.1930  0.1246  0.4135
15558TIP3    H168165   1.870   2.737   4.691  1.1918 -0.7869 -0.5316
15558TIP3    H268166   1.876   2.792   4.550 -0.4234 -0.4574 -0.4852
15559TIP3   OH268167   5.661   6.646  14.558 -0.1131 -0.2340 -0.0192
15559TIP3    H168168   5.598   6.600  14.503  2.0895 -2.0653 -1.2293
15559TIP3    H268169   5.628   6.636  14.648 -2.2162  0.1760 -0.7005
15560TIP3   OH268170   0.208   1.478   4.684  0.7417 -0.4711 -0.7631
15560TIP3    H168171   0.278   1.462   4.747 -1.2237 -0.5446  1.5422
15560TIP3    H268172   0.250   1.527   4.613  2.9644  0.0721  0.8180
15561TIP3   OH268173   2.332   0.460   5.644  0.2350 -0.2812 -0.1038
15561TIP3    H168174   2.351   0.368   5.628 -1.3535 -0.7174  0.2550
15561TIP3    H268175   2.268   0.484   5.577 -1.3398 -0.2216  1.3187
15562TIP3   OH268176   5.745   5.528  12.175  0.7016  0.1755  0.3688
15562TIP3    H168177   5.840   5.515  12.168  0.3829 -1.6934 -1.2319
15562TIP3    H268178   5.732   5.620  12.150  2.0095  0.2589 -0.1054
15563TIP3   OH268179   0.857   2.054   4.046 -0.0083  0.2308 -0.2571
15563TIP3    H168180   0.936   2.109   4.038  0.2753 -0.2490 -0.8479
15563TIP3    H268181   0.878   1.992   4.116  0.1759  0.0526 -0.4677
15564TIP3   OH268182   4.547   3.664  15.749  0.0556 -0.3722  0.0865
15564TIP3    H168183   4.486   3.719  15.701  1.2629  0.6390 -0.3595
15564TIP3    H268184   4.556   3.585  15.695  1.1463  0.6141 -1.2283
15565TIP3   OH268185   3.671   6.785  14.765  0.1018  0.1295 -0.1643
15565TIP3    H168186   3.662   6.863  14.820  0.7660  0.2429 -0.2138
15565TIP3    H268187   3.735   6.809  14.699  1.4035 -0.9212  0.6636
15566TIP3   OH268188   2.463   6.312   6.178 -0.1902 -0.0970  0.5618
15566TIP3    H168189   2.440   6.231   6.132  1.3003  1.6374 -3.7207
15566TIP3    H268190   2.554   6.299   6.206 -0.0591 -0.0197  0.1710
15567TIP3   OH268191   3.550   0.768  11.934  0.2860 -1.0613  0.1447
15567TIP3    H168192   3.585   0.851  11.968 -0.7043 -0.6249  0.1225
15567TIP3    H268193   3.536   0.785  11.841 -2.0463 -0.4705  0.5400
15568TIP3   OH268194   0.017   2.512  17.057 -0.0704 -0.4257 -0.0068
15568TIP3    H168195  -0.039   2.560  16.996  1.4204  1.0921 -0.2562
15568TIP3    H268196  -0.035   2.435  17.081 -1.2645 -0.3548 -2.0905
15569TIP3   OH268197   6.240   0.733   3.586 -0.0089 -0.1359  0.3115
15569TIP3    H168198   6.298   0.761   3.516  0.0572 -0.8728  0.0695
15569TIP3    H268199   6.242   0.637   3.583 -2.2086 -0.1966 -0.5184
15570TIP3   OH268200   6.261   2.073  10.785  0.4522  0.4500 -0.3376
15570TIP3    H168201   6.303   2.042  10.865  0.1672  0.6634 -0.1039
15570TIP3    H268202   6.281   2.005  10.720  1.1709  0.5617 -0.2354
15571TIP3   OH268203   4.066   2.953   3.941  0.0453 -0.1953  0.4509
15571TIP3    H168204   4.002   3.015   3.976 -0.7345 -0.4915 -0.3950
15571TIP3    H268205   4.094   2.991   3.858  0.4695 -0.3944  0.4983
15572TIP3   OH268206   4.989   1.752  13.414 -0.5825 -0.5183 -0.6543
15572TIP3    H168207   5.017   1.837  13.379  0.5484 -1.1043 -1.2308
15572TIP3    H268208   4.902   1.738  13.378  0.7240 -1.3741 -3.8420
15573TIP3   OH268209   1.579   0.977  13.706  0.2407 -0.3575 -0.3477
15573TIP3    H168210   1.553   0.885  13.708 -0.9619 -0.0220  0.5885
15573TIP3    H268211   1.564   1.008  13.796  2.6103  0.2358 -0.1045
15574TIP3   OH268212   0.970   3.137  11.800 -0.6334 -0.1129 -0.4606
15574TIP3    H168213   1.023   3.176  11.731 -0.4406  1.5743  0.5950
15574TIP3    H268214   1.031   3.085  11.851 -0.2970  0.5439 -0.1849
15575TIP3   OH268215   5.863   0.024  11.387  0.3599 -0.3182 -0.0569
15575TIP3    H168216   5.869  -0.062  11.344 -0.1494  0.2116 -1.2340
15575TIP3    H268217   5.823   0.006  11.471 -0.0953 -1.1976 -0.4448
15576TIP3   OH268218   3.540   0.412   2.535  0.3936  0.1609  0.0950
15576TIP3    H168219   3.451   0.387   2.560  0.4225  0.9655  1.0717
15576TIP3    H268220   3.535   0.426   2.440 -0.3009 -0.6274 -0.0043
15577TIP3   OH268221   3.529   3.723   3.257  0.0343 -0.3433 -0.4349
15577TIP3    H168222   3.447   3.692   3.217  1.4444  0.0403 -3.9631
15577TIP3    H268223   3.523   3.818   3.253  0.5614 -0.3113 -0.4901
15578TIP3   OH268224   0.835   5.475   5.632 -0.1731 -0.4574  0.0916
15578TIP3    H168225   0.797   5.432   5.708 -1.9315  0.0092 -0.4775
15578TIP3    H268226   0.804   5.566   5.638 -0.2653 -0.3917 -1.1191
15579TIP3   OH268227   5.870   5.317  15.278  0.1264  0.6736  0.0144
15579TIP3    H168228   5.820   5.313  15.359 -0.3443 -0.3745 -0.3034
15579TIP3    H268229   5.948   5.368  15.300 -0.5503  1.3982  0.8055
15580TIP3   OH268230   2.586   0.236  13.105 -0.3352 -0.2101  0.0678
15580TIP3    H168231   2.634   0.168  13.057  1.3635  0.4241  0.8146
15580TIP3    H268232   2.499   0.237  13.064  0.4604 -0.9677 -1.7341
15581TIP3   OH268233   1.328   3.332  13.611  0.6388 -0.1454 -0.7231
15581TIP3    H168234   1.303   3.240  13.610 -2.4803  0.5924 -1.1385
15581TIP3    H268235   1.364   3.347  13.699  1.5712 -1.8018 -0.7944
15582TIP3   OH268236   3.530   3.762  13.248  0.2389 -0.5016  0.0949
15582TIP3    H168237   3.493   3.686  13.203  0.1828 -0.8892  0.7903
15582TIP3    H268238   3.477   3.772  13.327 -1.5614  1.9083 -1.2578
15583TIP3   OH268239   1.271   3.600   5.724 -0.1509  0.3871 -0.0660
15583TIP3    H168240   1.216   3.585   5.801  0.7298  1.0613  0.7132
15583TIP3    H268241   1.317   3.681   5.743 -0.8362  1.2351 -1.8575
15584TIP3   OH268242   6.302   3.216   2.720  0.3611 -0.0370 -0.2257
15584TIP3    H168243   6.366   3.195   2.651  1.0229 -0.8524  0.6134
15584TIP3    H268244   6.353   3.263   2.786  0.1138 -0.7481  0.4834
15585TIP3   OH268245   6.313   6.520   0.343 -0.2541 -0.4726  0.6211
15585TIP3    H168246   6.309   6.432   0.305 -2.4030  1.0488 -3.1989
15585TIP3    H268247   6.403   6.548   0.328 -0.4562 -0.7911 -1.5680
15586TIP3   OH268248   0.623   2.843   0.057 -0.3615 -0.1614  0.1902
15586TIP3    H168249   0.598   2.752   0.072 -2.3400  0.0888 -1.1956
15586TIP3    H268250   0.601   2.859  -0.035  0.0631  1.6941  0.3790
15587TIP3   OH268251   5.009   3.186   5.718 -0.4457 -1.2628  0.4328
15587TIP3    H168252   4.923   3.144   5.716 -1.0527 -0.0692 -1.7517
15587TIP3    H268253   5.029   3.195   5.811 -2.5266 -1.8528  0.9937
15588TIP3   OH268254   6.244   2.624   3.535  0.1259 -0.5261 -0.0948
15588TIP3    H168255   6.256   2.689   3.604 -3.3395  1.1902 -0.8756
15588TIP3    H268256   6.214   2.546   3.583  2.9252 -1.1994  0.7133
15589TIP3   OH268257   2.735   4.680   2.703 -0.4002 -0.1600  0.2364
15589TIP3    H168258   2.644   4.711   2.699 -0.8588 -1.1850  1.8748
15589TIP3    H268259   2.733   4.593   2.662  0.1649  0.3909 -1.0322
15590TIP3   OH268260   0.158   0.198   5.440 -0.4564 -0.1806  0.2755
15590TIP3    H168261   0.131   0.210   5.531 -1.0426 -2.2777  0.4325
15590TIP3    H268262   0.084   0.155   5.398  0.3416 -0.5347 -0.8256
15591TIP3   OH268263   6.685   2.549   4.337 -0.6955  0.4413  0.0020
15591TIP3    H168264   6.661   2.490   4.408 -0.1063 -0.0005 -0.1541
15591TIP3    H268265   6.776   2.528   4.318 -1.0130  0.1147 -1.2894
15592TIP3   OH268266   5.214   1.589   2.332  0.3580 -0.7740  0.7238
15592TIP3    H168267   5.212   1.585   2.237  0.0068 -0.3758  0.7142
15592TIP3    H268268   5.285   1.651   2.352  0.0355 -0.4004  0.7100
15593TIP3   OH268269   6.469   0.188   4.553  0.0831 -0.1279  0.3806
15593TIP3    H168270   6.388   0.141   4.573 -0.1604 -0.4267 -1.2015
15593TIP3    H268271   6.464   0.268   4.606 -2.0341  0.6413 -0.8651
15594TIP3   OH268272   1.545   3.629  13.042  0.5471 -0.2908  0.6822
15594TIP3    H168273   1.557   3.535  13.050  2.3054 -0.1130  0.6017
15594TIP3    H268274   1.459   3.639  13.001  0.6821 -1.8780 -0.0615
15595TIP3   OH268275   1.195   4.635   5.738  0.0649  0.2994  0.3732
15595TIP3    H168276   1.145   4.575   5.683  2.7143  0.8614 -2.9906
15595TIP3    H268277   1.202   4.590   5.823 -0.4825 -2.8211 -1.0901
15596TIP3   OH268278   2.703   1.313   4.234  0.0887  0.0393  0.3374
15596TIP3    H168279   2.683   1.245   4.298 -0.5947  1.4848  1.7383
15596TIP3    H268280   2.635   1.305   4.168  1.2823 -2.0205 -0.7628
15597TIP3   OH268281   0.238   3.611  11.834  0.5364  0.0165  0.0344
15597TIP3    H168282   0.192   3.629  11.752 -0.5405 -0.3762  0.5327
15597TIP3    H268283   0.249   3.697  11.874  0.1035  0.1046 -0.0272
15598TIP3   OH268284   1.476   3.630   1.170  0.1562 -0.0798 -0.2114
15598TIP3    H168285   1.559   3.676   1.156 -0.1064  0.3805 -0.2564
15598TIP3    H268286   1.427   3.645   1.089  0.4386 -1.2397 -0.6280
15599TIP3   OH268287   4.179   3.758  15.788  0.0100 -0.1553  0.3246
15599TIP3    H168288   4.227   3.839  15.770  0.6288 -0.3710  0.9663
15599TIP3    H268289   4.090   3.777  15.759  0.1257  0.7794  0.5244
15600TIP3   OH268290   2.682   4.224   4.763 -0.0956 -0.0560 -1.0463
15600TIP3    H168291   2.667   4.148   4.706 -0.3187 -2.3177  1.8148
15600TIP3    H268292   2.755   4.198   4.819 -1.1639  1.1745  1.0394
15601TIP3   OH268293   6.115   3.522  10.496  0.0268 -0.2162 -0.2167
15601TIP3    H168294   6.210   3.513  10.501  0.1179 -0.6558 -2.0395
15601TIP3    H268295   6.082   3.433  10.485 -0.6105 -0.0615  0.3110
15602TIP3   OH268296   4.612   3.848  14.578 -0.5216 -0.3609 -0.9369
15602TIP3    H168297   4.668   3.913  14.621  0.5807 -1.1795 -1.1089
15602TIP3    H268298   4.614   3.871  14.485 -1.9923  0.7210 -0.7404
15603TIP3   OH268299   3.711   6.443   2.172 -0.2954  0.1562  0.3690
15603TIP3    H168300   3.629   6.396   2.162  0.4951 -0.9194 -1.5532
15603TIP3    H268301   3.717   6.461   2.266 -1.2780 -2.4224  1.0153
15604TIP3   OH268302   6.216   3.704   0.117 -0.0549  0.6671 -0.0129
15604TIP3    H168303   6.197   3.760   0.192  0.7604  3.0324 -1.4480
15604TIP3    H268304   6.138   3.649   0.107 -0.3360  0.5616  2.2826
15605TIP3   OH268305   1.424   5.574   1.953  0.3922 -0.1201 -0.1325
15605TIP3    H168306   1.415   5.669   1.965 -0.6029 -0.0964 -0.9672
15605TIP3    H268307   1.496   5.550   2.011  0.7162  1.1583  0.0321
15606TIP3   OH268308   3.675   0.219   5.927  0.0742  0.2304  0.7878
15606TIP3    H168309   3.715   0.132   5.932  0.7619  0.6189  2.3422
15606TIP3    H268310   3.748   0.280   5.928 -0.1722  0.8838 -3.1028
15607TIP3   OH268311   4.539   0.528  11.544  0.2060 -0.4888  0.5073
15607TIP3    H168312   4.583   0.478  11.613  0.1352  1.7580  2.3305
15607TIP3    H268313   4.456   0.555  11.584 -1.0006 -1.2035 -1.4048
15608TIP3   OH268314   5.011   1.229  16.973  0.0150  0.1110  0.2670
15608TIP3    H168315   4.967   1.198  16.894 -0.5278 -0.2060  0.6863
15608TIP3    H268316   5.073   1.159  16.996  0.4726  0.3873 -0.1069
15609TIP3   OH268317   1.755   4.394  12.976 -0.2774 -0.8327 -0.1114
15609TIP3    H168318   1.698   4.406  12.900 -1.4266  0.5695  0.9493
15609TIP3    H268319   1.809   4.473  12.978 -0.4709 -0.7220  0.7231
15610TIP3   OH268320   1.612   0.376  14.194 -0.7697  0.7850 -0.4585
15610TIP3    H168321   1.573   0.444  14.248  1.1344  1.3277  0.3342
15610TIP3    H268322   1.702   0.406  14.178 -0.5987 -0.4116 -2.1160
15611TIP3   OH268323   2.082   3.132  14.340  0.6717  0.1452 -0.6813
15611TIP3    H168324   2.022   3.173  14.403 -0.4191  0.8244 -2.1171
15611TIP3    H268325   2.024   3.085  14.280  1.7639 -1.5379 -0.4845
15612TIP3   OH268326   2.198   4.684   2.660  0.2906 -0.3007 -0.3069
15612TIP3    H168327   2.191   4.779   2.660  2.4351 -0.0542  1.4084
15612TIP3    H268328   2.189   4.660   2.752  1.4142 -1.5580 -0.4909
15613TIP3   OH268329   4.684   2.017   1.486 -0.3628  0.6858 -0.0196
15613TIP3    H168330   4.669   1.925   1.466  0.4679  0.5328  0.0274
15613TIP3    H268331   4.697   2.059   1.401 -1.4575  0.9038 -0.0931
15614TIP3   OH268332   4.395   3.726  15.036 -0.1891 -0.5514  0.5059
15614TIP3    H168333   4.302   3.734  15.055 -0.0103  0.1097  1.1410
15614TIP3    H268334   4.400   3.655  14.972 -0.9291 -2.1495  2.1254
15615TIP3   OH268335   2.003   2.212   1.351 -0.4990  0.1530 -0.4466
15615TIP3    H168336   2.098   2.217   1.349 -0.4581 -0.6314 -1.9528
15615TIP3    H268337   1.982   2.168   1.433  0.4271  0.3225 -0.1130
15616TIP3   OH268338   2.761   2.085   2.675 -0.1140  0.0921 -0.2281
15616TIP3    H168339   2.679   2.133   2.664 -0.7407 -1.0585 -0.7418
15616TIP3    H268340   2.776   2.044   2.590  1.2241  0.6220 -0.2645
15617TIP3   OH268341   3.822   2.123   5.471  0.1218  0.2247 -0.4906
15617TIP3    H168342   3.855   2.049   5.420  1.0133  1.1537 -1.3171
15617TIP3    H268343   3.785   2.183   5.406  1.2103  1.3923 -0.0784
15618TIP3   OH268344   6.743   6.786   2.417  0.3774 -0.3468 -0.2307
15618TIP3    H168345   6.717   6.727   2.487  1.1952  0.8005  1.1033
15618TIP3    H268346   6.721   6.874   2.450  1.8402  0.3052 -0.8940
15619TIP3   OH268347   2.592   2.758   2.066 -0.4267  0.2217 -0.1675
15619TIP3    H168348   2.522   2.809   2.107  2.1971  3.1018  1.0565
15619TIP3    H268349   2.621   2.811   1.992  1.1873 -0.3470  0.0088
15620TIP3   OH268350   6.124   0.951  15.875  0.1954 -0.0249 -0.6199
15620TIP3    H168351   6.185   1.024  15.887  0.3905 -0.0265 -1.5223
15620TIP3    H268352   6.047   0.990  15.832  0.3738 -0.3679 -1.2722
15621TIP3   OH268353   5.059   3.753   1.256  0.2602 -0.2383 -0.6329
15621TIP3    H168354   5.115   3.771   1.181  0.4114  0.2706 -0.4019
15621TIP3    H268355   4.971   3.772   1.226  0.3121 -0.1181 -0.7082
15622TIP3   OH268356   1.077   1.544   3.142 -0.0283 -0.0573 -0.3863
15622TIP3    H168357   0.995   1.593   3.155  0.3822  0.4002  0.6073
15622TIP3    H268358   1.084   1.489   3.220 -0.8534 -2.3198 -1.8024
15623TIP3   OH268359   5.005   6.587   2.623  0.1622 -0.4230 -0.0036
15623TIP3    H168360   4.958   6.659   2.665 -0.5972 -0.9304  0.0418
15623TIP3    H268361   5.055   6.629   2.553  0.4381  0.2608  0.5882
15624TIP3   OH268362   6.378   3.477   4.881 -0.3284 -0.2217 -0.6217
15624TIP3    H168363   6.365   3.572   4.881 -2.1827 -0.4397 -0.3300
15624TIP3    H268364   6.290   3.441   4.870  0.2479 -1.9196  0.0511
15625TIP3   OH268365   2.250   6.287   4.904 -0.3973  0.1488  0.6891
15625TIP3    H168366   2.335   6.286   4.861 -1.3667 -1.0740 -1.3960
15625TIP3    H268367   2.259   6.226   4.977  0.2422 -0.8230 -0.1635
15626TIP3   OH268368   2.964   2.126   3.651  0.5589  0.1813 -0.6862
15626TIP3    H168369   2.943   2.037   3.623 -0.8413  0.7858 -1.7306
15626TIP3    H268370   2.994   2.169   3.571  0.6668  0.8049 -0.3130
15627TIP3   OH268371   1.658   1.812  16.468  0.6159 -0.1512 -0.1139
15627TIP3    H168372   1.645   1.765  16.550  1.0871 -0.9212 -0.4711
15627TIP3    H268373   1.719   1.758  16.418  1.7432  1.1726 -0.2532
15628TIP3   OH268374   1.349   3.672   5.133 -0.2756 -0.2294  0.2455
15628TIP3    H168375   1.324   3.715   5.214  0.9126 -0.9423  1.0301
15628TIP3    H268376   1.333   3.737   5.065 -1.8143  0.1923  0.9629
15629TIP3   OH268377   4.315   6.655   3.502  0.5991 -0.2650  0.3860
15629TIP3    H168378   4.278   6.599   3.433 -0.2721  0.4051  0.3034
15629TIP3    H268379   4.324   6.741   3.460 -0.6797  0.3560  1.3248
15630TIP3   OH268380   5.330   5.521  12.171  0.3353  0.1602  1.0878
15630TIP3    H168381   5.266   5.582  12.134 -1.7024  0.3005  4.4227
15630TIP3    H268382   5.319   5.441  12.120 -1.1118  0.8218  0.3000
15631TIP3   OH268383   2.869   0.839   2.441  0.1887  0.2440 -0.2599
15631TIP3    H168384   2.807   0.821   2.511  0.9680 -1.7402 -0.0377
15631TIP3    H268385   2.815   0.847   2.362 -0.5588  1.1532  0.3189
15632TIP3   OH268386   6.158   0.433  12.785 -0.3930 -0.4402  0.0250
15632TIP3    H168387   6.244   0.467  12.763 -0.5716  0.2886  0.4151
15632TIP3    H268388   6.099   0.507  12.772 -0.9462 -0.9042 -0.1428
15633TIP3   OH268389   2.584   5.953   3.755 -0.0721  0.4620 -0.9551
15633TIP3    H168390   2.655   5.912   3.804  1.2643  1.0865 -2.2854
15633TIP3    H268391   2.537   6.005   3.820  0.0776 -0.7050  0.1398
15634TIP3   OH268392   2.433   4.157  13.228 -0.1914 -0.2581  0.0255
15634TIP3    H168393   2.482   4.197  13.299  1.7148  0.2415 -1.4943
15634TIP3    H268394   2.465   4.067  13.225 -0.5245 -0.3788 -0.0111
15635TIP3   OH268395   2.629   6.497  16.343  0.5563  0.4140  0.2544
15635TIP3    H168396   2.673   6.558  16.402 -0.4133  2.7673 -1.3101
15635TIP3    H268397   2.664   6.517  16.257 -1.9007  0.8887 -0.7304
15636TIP3   OH268398   2.841   5.435   6.803  0.4267 -0.6908  0.1273
15636TIP3    H168399   2.919   5.382   6.786 -0.9815 -2.9531  0.2778
15636TIP3    H268400   2.852   5.513   6.748  1.6688 -2.0958 -1.7503
15637TIP3   OH268401   0.879   6.719   0.569 -0.3966  0.8150 -0.3413
15637TIP3    H168402   0.901   6.641   0.620 -1.9172 -0.6889 -1.8344
15637TIP3    H268403   0.951   6.780   0.585  1.1206 -1.0845  0.4745
15638TIP3   OH268404   4.052   6.398   2.571  0.5503  0.7744 -0.0225
15638TIP3    H168405   4.106   6.331   2.529 -0.8239 -1.1270  1.1003
15638TIP3    H268406   4.092   6.409   2.658  0.5877  1.2048 -0.0917
15639TIP3   OH268407   6.216   2.821  10.845  0.3338 -0.2734  0.5560
15639TIP3    H168408   6.167   2.746  10.812 -0.4497  0.2310  0.5395
15639TIP3    H268409   6.246   2.866  10.765  2.2926 -1.4755  0.5441
15640TIP3   OH268410   5.789   0.530  11.484 -0.2715 -0.3528  0.4210
15640TIP3    H168411   5.795   0.457  11.422  3.0759 -1.3478  1.6511
15640TIP3    H268412   5.770   0.488  11.568  2.1835 -0.0158  1.2378
15641TIP3   OH268413   3.055   0.503   0.053 -0.1511 -0.5739  0.6380
15641TIP3    H168414   3.024   0.587   0.018  0.8982 -1.4915 -2.9630
15641TIP3    H268415   3.102   0.527   0.134 -0.6241  2.1849  0.2063
15642TIP3   OH268416   3.507   4.989   1.574  0.1628  0.3170 -0.5108
15642TIP3    H168417   3.434   5.028   1.526  0.3144  0.8655 -0.2992
15642TIP3    H268418   3.579   5.051   1.562  0.6256 -0.2623 -0.7980
15643TIP3   OH268419   3.969   0.992  16.261  0.2733 -0.2975 -0.1874
15643TIP3    H168420   3.915   1.063  16.294 -0.0426  0.0833 -1.4645
15643TIP3    H268421   3.914   0.914  16.268  0.4262 -0.3398  0.7053
15644TIP3   OH268422   4.004   5.160   2.971 -0.6444 -0.1402  0.1046
15644TIP3    H168423   3.984   5.244   3.010 -0.5620  0.6515 -1.4625
15644TIP3    H268424   3.931   5.143   2.911 -0.4559 -0.9817  0.0878
15645TIP3   OH268425   6.585   1.543   4.269 -0.4715  0.2393 -0.0882
15645TIP3    H168426   6.658   1.482   4.275 -0.2464  0.5189  0.0075
15645TIP3    H268427   6.515   1.492   4.229  0.1677  0.3273 -1.3725
15646TIP3   OH268428   4.396   3.757   4.492 -0.2047 -0.2326 -0.3908
15646TIP3    H168429   4.455   3.832   4.499  0.0966 -0.4938 -0.0449
15646TIP3    H268430   4.451   3.686   4.459 -0.0283 -0.7831  1.0008
15647TIP3   OH268431   3.273   5.622   5.519  0.0362 -0.6662  0.7098
15647TIP3    H168432   3.291   5.715   5.503 -3.9523  0.4828  1.7245
15647TIP3    H268433   3.292   5.610   5.612 -3.8591  0.6672  1.8998
15648TIP3   OH268434   2.036   0.906  16.489 -0.6884  0.5067  0.5446
15648TIP3    H168435   1.954   0.954  16.501 -1.0495  0.3413 -1.1473
15648TIP3    H268436   2.101   0.974  16.474 -1.0016  0.5554 -0.7187
15649TIP3   OH268437   6.023   3.754   1.722 -0.2525  0.4431 -0.3488
15649TIP3    H168438   6.053   3.842   1.742 -0.6881  0.5286 -0.0613
15649TIP3    H268439   5.953   3.766   1.657  0.3469  0.2444 -1.0427
15650TIP3   OH268440   1.715   1.297   1.452 -0.2697  0.0819 -0.0330
15650TIP3    H168441   1.637   1.278   1.401 -0.1680  0.2587 -0.2548
15650TIP3    H268442   1.683   1.311   1.541 -0.6818  1.6180 -0.3863
15651TIP3   OH268443   5.432   5.449   4.716 -0.1258  0.5073  0.0795
15651TIP3    H168444   5.350   5.401   4.715 -0.5554  1.0790  2.1713
15651TIP3    H268445   5.407   5.539   4.739  1.1829  0.2505  2.9241
15652TIP3   OH268446   2.844   5.989  14.718 -0.4094 -0.4981 -0.0241
15652TIP3    H168447   2.837   5.912  14.661 -2.3184 -1.0563  0.9060
15652TIP3    H268448   2.918   5.970  14.776  0.4437 -0.6806 -1.1271
15653TIP3   OH268449   5.495   4.109   4.427 -0.1534  0.4685 -0.8990
15653TIP3    H168450   5.406   4.098   4.395 -0.1595 -0.6337 -0.5554
15653TIP3    H268451   5.488   4.097   4.522  0.1797  1.6198 -0.7140
15654TIP3   OH268452   4.874   2.553   0.563  0.0827  0.1938 -0.3980
15654TIP3    H168453   4.923   2.633   0.577 -0.3871  0.5636 -0.8155
15654TIP3    H268454   4.815   2.547   0.638  1.3794 -0.7462  0.6025
15655TIP3   OH268455   1.092   0.163   1.333 -0.4519  0.4526 -0.2779
15655TIP3    H168456   1.111   0.202   1.247 -0.8116  0.6277 -0.2792
15655TIP3    H268457   1.087   0.237   1.393 -1.7625  0.4756 -0.3937
15656TIP3   OH268458   5.322   6.227  16.999 -0.5628  0.3837  0.0285
15656TIP3    H168459   5.328   6.284  17.076  2.2794  0.4977 -0.1585
15656TIP3    H268460   5.342   6.285  16.925  2.0823 -0.6863 -0.1887
15657TIP3   OH268461   2.881   2.933   4.212 -0.6192  0.5118 -0.5767
15657TIP3    H168462   2.963   2.914   4.259  0.3473  1.5362 -1.7858
15657TIP3    H268463   2.816   2.944   4.282  0.3503  0.0710  0.4324
15658TIP3   OH268464   1.725   4.633  13.965 -0.4507 -0.0903  0.6774
15658TIP3    H168465   1.747   4.562  13.905  1.9609  1.0202  0.1483
15658TIP3    H268466   1.635   4.656  13.943  0.0946 -0.2214 -2.0388
15659TIP3   OH268467   4.431   6.096  12.317 -0.2649  0.1129 -0.2100
15659TIP3    H168468   4.396   6.179  12.283  0.1564  0.0510 -0.8123
15659TIP3    H268469   4.452   6.045  12.239 -0.4572 -0.5423  0.1578
15660TIP3   OH268470   2.423   4.356   4.220 -0.3081 -0.5807  0.4049
15660TIP3    H168471   2.371   4.432   4.246  0.4112  0.1682 -0.2868
15660TIP3    H268472   2.514   4.383   4.234 -0.0429 -1.3068  0.1400
15661TIP3   OH268473   3.195   3.739   2.932 -0.0115  0.0594  0.0526
15661TIP3    H168474   3.227   3.701   3.014  1.3344 -0.7109 -0.7820
15661TIP3    H268475   3.272   3.741   2.875 -0.3507  2.7625 -0.4465
15662TIP3   OH268476   2.025   2.253   0.311 -0.0420  0.1414  0.0745
15662TIP3    H168477   2.099   2.201   0.279  0.9752  1.9766 -0.6946
15662TIP3    H268478   1.954   2.189   0.322  0.9051 -1.2737 -1.5646
15663TIP3   OH268479   3.519   2.648  13.722 -0.2795 -0.5914 -0.5334
15663TIP3    H168480   3.587   2.645  13.789 -1.7954  0.5917  1.1487
15663TIP3    H268481   3.492   2.557  13.711  1.8500 -1.1615 -1.6195
15664TIP3   OH268482   4.834   2.483  17.127 -0.3263 -0.8152  0.0595
15664TIP3    H168483   4.815   2.471  17.220  0.7407 -0.7974  0.2933
15664TIP3    H268484   4.870   2.399  17.098 -0.5112 -0.7739 -0.3065
15665TIP3   OH268485   4.911   0.254   4.548 -1.0955  0.6694  0.6050
15665TIP3    H168486   4.991   0.224   4.592 -0.1003 -0.0735 -1.5582
15665TIP3    H268487   4.841   0.235   4.610 -0.0369 -2.4154  1.0125
15666TIP3   OH268488   4.346   1.724  14.952  0.1231  0.1781 -0.5446
15666TIP3    H168489   4.256   1.708  14.980  0.9293 -1.7168  1.2661
15666TIP3    H268490   4.359   1.818  14.967 -1.3462  0.3648 -0.2403
15667TIP3   OH268491   5.946   5.730   5.525  0.0446  0.4480 -0.0657
15667TIP3    H168492   5.949   5.706   5.433 -0.9081  0.6361 -0.1598
15667TIP3    H268493   5.867   5.689   5.558 -1.1751  2.6402 -0.0305
15668TIP3   OH268494   4.789   2.125   0.377  0.0473  0.5495 -0.8034
15668TIP3    H168495   4.832   2.109   0.293 -0.7912 -2.3785 -0.7738
15668TIP3    H268496   4.763   2.039   0.408 -0.6058  1.6474  2.0071
15669TIP3   OH268497   5.112   0.338   1.408  0.8243  0.0916 -0.6095
15669TIP3    H168498   5.186   0.384   1.447  0.4716 -0.0753  0.2605
15669TIP3    H268499   5.153   0.271   1.353  1.3504 -1.1742  1.2400
15670TIP3   OH268500   6.173   3.073  13.298 -0.5086 -0.3972 -0.2065
15670TIP3    H168501   6.227   3.074  13.219 -0.3516  0.6008 -0.0934
15670TIP3    H268502   6.215   3.008  13.355  0.7783  0.5917  0.0161
15671TIP3   OH268503   3.205   1.023  15.430 -0.0775  0.0672  0.1133
15671TIP3    H168504   3.265   1.095  15.452 -1.6375  1.3777  0.2883
15671TIP3    H268505   3.192   0.976  15.512  0.4339 -0.0257  0.1462
15672TIP3   OH268506   6.174   3.040  11.211 -0.0516 -0.0594 -0.0345
15672TIP3    H168507   6.155   3.133  11.223 -0.8732 -0.3400  0.9501
15672TIP3    H268508   6.246   3.038  11.148  1.5405  1.3622  1.6210
15673TIP3   OH268509   6.600   6.807   1.297 -0.3267 -0.1701  0.0983
15673TIP3    H168510   6.658   6.814   1.221 -0.0205  1.0125  0.4220
15673TIP3    H268511   6.652   6.840   1.370 -0.4294 -1.8030  0.9492
15674TIP3   OH268512   3.374   5.852   3.527  0.6849  0.5679  0.2514
15674TIP3    H168513   3.279   5.855   3.520  0.6307 -1.2338 -0.3887
15674TIP3    H268514   3.397   5.927   3.582 -0.9368  2.0110 -0.9492
15675TIP3   OH268515   1.427   4.778  12.114  0.3586 -0.1884 -0.5642
15675TIP3    H168516   1.419   4.873  12.117  0.9690 -0.1101 -1.0204
15675TIP3    H268517   1.444   4.752  12.204  0.9910  0.2241 -0.5568
15676TIP3   OH268518   1.140   3.509  12.733 -0.2895 -0.2477  0.0813
15676TIP3    H168519   1.115   3.555  12.814 -0.2157 -0.9448  0.5051
15676TIP3    H268520   1.229   3.541  12.714 -1.0861  1.5314 -0.9178
15677TIP3   OH268521   5.076   0.206  16.642  0.0389  0.1351 -0.5570
15677TIP3    H168522   5.085   0.112  16.626  1.0947  0.2239 -0.5577
15677TIP3    H268523   5.026   0.212  16.723  1.6348 -0.4891  0.5244
15678TIP3   OH268524   4.510   3.992  14.932  0.2300 -0.2764 -0.1085
15678TIP3    H168525   4.491   4.004  15.026 -0.9500  1.3297 -0.5160
15678TIP3    H268526   4.470   3.908  14.911  0.1203 -0.4467  0.7361
15679TIP3   OH268527   1.601   4.091   1.501 -0.4593 -0.5823  0.2152
15679TIP3    H168528   1.602   4.138   1.418  0.2171  0.9698  1.0530
15679TIP3    H268529   1.594   3.999   1.476  0.4280 -0.2209 -1.5863
15680TIP3   OH268530   2.881   6.436   5.166  0.5258  0.1435 -0.2516
15680TIP3    H168531   2.886   6.430   5.071  1.6073  0.7085 -0.2469
15680TIP3    H268532   2.788   6.422   5.186  0.2243  0.3860 -1.4062
15681TIP3   OH268533   0.058   4.340   3.383  0.2042 -0.0656  0.0920
15681TIP3    H168534   0.091   4.409   3.440 -0.7284  0.0080  0.5628
15681TIP3    H268535   0.007   4.284   3.441  0.8985 -1.1257 -0.2974
15682TIP3   OH268536   4.724   0.135  11.770 -0.3458  0.3241  0.0574
15682TIP3    H168537   4.737   0.059  11.713 -1.5945 -1.5531  2.1240
15682TIP3    H268538   4.766   0.111  11.853 -1.4235  1.5460  1.0002
15683TIP3   OH268539   0.948   4.488  13.953 -0.7418 -0.1170  0.2204
15683TIP3    H168540   0.966   4.444  14.037  0.7702  0.6971  0.3489
15683TIP3    H268541   1.017   4.554  13.945 -1.0294  0.0086 -1.5497
15684TIP3   OH268542   5.174   1.670   1.441 -0.0198  0.0877  0.1230
15684TIP3    H168543   5.197   1.759   1.416  1.7597  0.2215  1.9437
15684TIP3    H268544   5.099   1.681   1.500  1.4637  0.6697  2.0219
15685TIP3   OH268545   4.628   3.853   0.055 -0.1689 -0.4507 -0.2610
15685TIP3    H168546   4.581   3.803  -0.012 -1.1208  0.6392 -0.4481
15685TIP3    H268547   4.702   3.893   0.008 -1.4333  1.1860 -0.9784
15686TIP3   OH268548   4.815   0.490  12.343 -0.0492 -0.2309 -0.1924
15686TIP3    H168549   4.806   0.504  12.438  0.0557  0.2033 -0.2403
15686TIP3    H268550   4.738   0.439  12.319 -0.3109  0.0398  0.0556
15687TIP3   OH268551   1.306   4.876   1.174  0.1751  0.1310 -0.2404
15687TIP3    H168552   1.319   4.898   1.081  1.0699  0.2805 -0.0935
15687TIP3    H268553   1.281   4.784   1.172 -0.5044  0.3197 -0.6721
15688TIP3   OH268554   6.604   0.387  14.124 -0.2345 -0.3137 -0.2200
15688TIP3    H168555   6.666   0.327  14.082  0.2132  0.8712 -1.3076
15688TIP3    H268556   6.524   0.335  14.135 -0.7446 -0.4509 -3.5307
15689TIP3   OH268557   3.600   5.740   0.705  0.0346  0.0562 -0.0411
15689TIP3    H168558   3.607   5.827   0.665 -1.4775 -0.4568 -1.5238
15689TIP3    H268559   3.575   5.758   0.796 -2.1355  1.2077 -0.7830
15690TIP3   OH268560   5.358   2.369   5.166  0.3699 -0.1712  0.3765
15690TIP3    H168561   5.326   2.455   5.140  0.9881 -0.5059 -1.7252
15690TIP3    H268562   5.412   2.385   5.243  0.6832  1.3834 -0.1309
15691TIP3   OH268563   0.121   0.444  12.607  0.6040  0.2369 -0.0309
15691TIP3    H168564   0.169   0.362  12.609  1.0334  0.5018  0.9842
15691TIP3    H268565   0.051   0.429  12.543  1.2025 -0.6099 -0.5070
15692TIP3   OH268566   3.429   0.381   6.774 -0.3579 -0.4001 -0.3426
15692TIP3    H168567   3.383   0.409   6.695  0.9313  2.2901 -0.2632
15692TIP3    H268568   3.508   0.435   6.776 -0.2050 -0.5499  2.6345
15693TIP3   OH268569   6.702   5.379   3.745  0.2551  0.4700  0.0838
15693TIP3    H168570   6.684   5.419   3.660 -0.7202  0.5578  0.3200
15693TIP3    H268571   6.794   5.400   3.762  0.6815 -0.1863 -1.2712
15694TIP3   OH268572   0.156   2.189   4.230 -0.7210  0.1969 -0.1315
15694TIP3    H168573   0.104   2.141   4.294 -1.4285  0.7954 -0.2485
15694TIP3    H268574   0.246   2.160   4.245 -1.0372 -0.5592  0.3297
15695TIP3   OH268575   5.458   2.059   2.702  0.0315 -0.1479 -0.3086
15695TIP3    H168576   5.400   2.094   2.770 -1.5120 -0.7729 -1.2518
15695TIP3    H268577   5.461   1.965   2.719 -1.3483 -0.5036 -1.7396
15696TIP3   OH268578   5.598   1.078   1.138 -0.1355 -0.3838 -0.4429
15696TIP3    H168579   5.554   1.135   1.200  1.1034  0.4567 -0.2993
15696TIP3    H268580   5.635   1.137   1.072 -1.2383 -1.2397 -1.8931
15697TIP3   OH268581   5.984   6.289  16.905 -0.6859 -0.3020  0.1062
15697TIP3    H168582   5.993   6.345  16.828  2.0947  0.9050  1.1593
15697TIP3    H268583   6.011   6.202  16.876 -0.2892  0.0015 -0.4416
15698TIP3   OH268584   0.006   6.565  14.289 -0.0802  0.0426 -0.3275
15698TIP3    H168585   0.036   6.608  14.369 -4.1436 -0.2685  1.6637
15698TIP3    H268586   0.057   6.485  14.284  0.8322  0.4511  1.5271
15699TIP3   OH268587   2.419   2.427  10.819  0.2586 -0.2982 -0.0779
15699TIP3    H168588   2.458   2.449  10.904 -1.1838  1.0240  0.2876
15699TIP3    H268589   2.363   2.352  10.837 -1.9526  1.4259  0.7713
15700TIP3   OH268590   2.846   3.354   6.083  0.1283 -0.7009 -0.4732
15700TIP3    H168591   2.899   3.412   6.028 -0.7296  0.7164  0.1455
15700TIP3    H268592   2.897   3.274   6.089  1.7985  0.3087 -0.5880
15701TIP3   OH268593   1.755   3.970  14.801  0.1700 -0.0551 -0.2028
15701TIP3    H168594   1.725   4.059  14.785  0.7210  0.1298 -0.2392
15701TIP3    H268595   1.848   3.980  14.821  0.0335 -0.5249  0.7146
15702TIP3   OH268596   5.821   2.708   4.391 -0.2757 -0.3279 -0.2149
15702TIP3    H168597   5.788   2.636   4.337 -1.4619  0.9308 -1.2607
15702TIP3    H268598   5.743   2.762   4.408  0.2795 -0.1099  1.8751
15703TIP3   OH268599   3.877   5.189  13.705  0.0029 -0.1718  0.3512
15703TIP3    H168600   3.833   5.154  13.783  0.2121 -0.9094  0.1488
15703TIP3    H268601   3.860   5.123  13.638  0.0321  0.3437 -0.1601
15704TIP3   OH268602   3.132   5.207  15.637  0.1873 -0.4114  0.4213
15704TIP3    H168603   3.076   5.237  15.565  1.5446  0.6989 -0.2265
15704TIP3    H268604   3.071   5.185  15.707 -1.0949  0.0515 -0.5117
15705TIP3   OH268605   4.488   2.552   4.313 -0.1226 -0.5015 -0.1061
15705TIP3    H168606   4.394   2.563   4.331 -0.3847 -3.8749  1.1426
15705TIP3    H268607   4.491   2.514   4.225  0.1218 -0.1312 -0.2617
15706TIP3   OH268608   3.479   1.046  16.792 -0.4993  0.5712 -0.2685
15706TIP3    H168609   3.523   1.044  16.877  1.6535  0.5758 -1.3123
15706TIP3    H268610   3.485   1.137  16.764 -1.6062  0.6638 -0.2576
15707TIP3   OH268611   4.709   0.510   1.597  0.8902 -0.0384 -0.0871
15707TIP3    H168612   4.718   0.453   1.521 -0.9207 -1.6657  0.8269
15707TIP3    H268613   4.733   0.597   1.566  0.2013 -0.6558 -2.5034
15708TIP3   OH268614   5.177   4.525  14.056 -0.0934  0.4090  0.1481
15708TIP3    H168615   5.149   4.563  13.972  3.7602  0.0278 -1.5005
15708TIP3    H268616   5.173   4.430  14.042  1.5902  0.3443 -0.0510
15709TIP3   OH268617   3.422   5.239  16.810  0.2369  0.3748  0.4097
15709TIP3    H168618   3.492   5.301  16.831  0.2256  0.7802 -0.7146
15709TIP3    H268619   3.468   5.160  16.781  0.2744 -0.4660  2.5370
15710TIP3   OH268620   6.257   1.171  12.477 -0.8083  0.2394  0.4320
15710TIP3    H168621   6.184   1.198  12.531 -1.1377  0.0468  0.0875
15710TIP3    H268622   6.320   1.243  12.484 -1.5324  0.9554 -0.2163
15711TIP3   OH268623   0.406   5.729   0.983 -0.0945 -0.1225  0.5723
15711TIP3    H168624   0.425   5.712   1.076 -0.7588  2.8235  1.3546
15711TIP3    H268625   0.320   5.769   0.984 -0.1681 -0.1716 -1.3752
15712TIP3   OH268626   3.618   3.349  11.857  0.4753 -0.0102  0.2990
15712TIP3    H168627   3.547   3.393  11.809  0.7935 -1.1515 -1.3139
15712TIP3    H268628   3.694   3.358  11.800  0.7141 -1.9937  0.2463
15713TIP3   OH268629   6.544   4.869   0.013 -0.8300 -0.3612  0.3693
15713TIP3    H168630   6.626   4.914   0.034 -0.8499 -0.0114 -0.2623
15713TIP3    H268631   6.482   4.901   0.078 -0.6579 -0.0364  0.3768
15714TIP3   OH268632   3.402   5.111  13.949 -0.0738 -0.2232  0.5354
15714TIP3    H168633   3.426   5.081  13.861 -1.9477 -2.7008  0.7410
15714TIP3    H268634   3.311   5.140  13.940 -0.8519 -2.0436  1.8845
15715TIP3   OH268635   5.652   6.578  16.978  0.2584 -0.0669  0.2189
15715TIP3    H168636   5.623   6.514  16.913 -0.8183  1.1755 -0.5616
15715TIP3    H268637   5.717   6.530  17.030  0.0909 -1.5379 -0.8404
15716TIP3   OH268638   0.762   4.373  16.169  0.0498  0.1159  0.3480
15716TIP3    H168639   0.817   4.303  16.203 -0.6143  0.0825  1.3958
15716TIP3    H268640   0.729   4.338  16.086  0.1395 -0.6154  0.6098
15717TIP3   OH268641   1.335   2.281   1.095  0.0789  0.1574  0.9231
15717TIP3    H168642   1.377   2.335   1.162  0.8998 -0.6674  1.0871
15717TIP3    H268643   1.307   2.344   1.028  0.6867  0.8225  1.2779
15718TIP3   OH268644   6.797   1.329   4.362  0.3715  0.3894  0.3999
15718TIP3    H168645   6.870   1.306   4.305 -0.4038 -0.2601 -0.3576
15718TIP3    H268646   6.831   1.319   4.451  0.7174 -1.6066  0.0825
15719TIP3   OH268647   4.847   2.808  15.680  0.2719  0.2313  0.2831
15719TIP3    H168648   4.830   2.902  15.680  1.2361  0.4717  2.7565
15719TIP3    H268649   4.840   2.782  15.771  0.0366 -2.1234 -0.3490
15720TIP3   OH268650   4.215   1.546  14.551  0.4428  0.3888  0.1637
15720TIP3    H168651   4.169   1.480  14.603 -0.2749  1.3303  0.7816
15720TIP3    H268652   4.291   1.569  14.605 -0.2639  1.3144  0.8073
15721TIP3   OH268653   4.370   2.228   3.454 -0.3842 -0.4014 -0.4680
15721TIP3    H168654   4.351   2.135   3.439 -1.4261 -0.1340 -0.8809
15721TIP3    H268655   4.417   2.255   3.375  0.2290 -0.6459 -0.1986
15722TIP3   OH268656   6.139   2.555  14.881 -0.2481 -0.4066  0.2365
15722TIP3    H168657   6.162   2.644  14.906 -0.2804  0.4847 -2.6357
15722TIP3    H268658   6.197   2.500  14.935  3.0447  1.5209 -1.0435
15723TIP3   OH268659   1.965   4.093  16.798 -0.5626  0.5182 -0.1088
15723TIP3    H168660   2.000   4.110  16.886 -0.4823 -0.3284  0.0341
15723TIP3    H268661   2.042   4.097  16.741 -0.8197  2.5208 -0.3772
15724TIP3   OH268662   1.829   6.646  12.775 -0.2337 -0.1552 -0.1430
15724TIP3    H168663   1.780   6.652  12.857 -1.3300 -0.6193 -0.7471
15724TIP3    H268664   1.800   6.564  12.735  1.4921 -0.7477 -0.2542
15725TIP3   OH268665   2.577   6.819  14.934 -0.2485 -0.5399 -0.1386
15725TIP3    H168666   2.619   6.733  14.927  0.5624 -0.0453 -1.6995
15725TIP3    H268667   2.517   6.823  14.859  0.9235  0.8655 -1.0583
15726TIP3   OH268668   4.682   0.201  11.251  0.2911  0.1542 -0.4723
15726TIP3    H168669   4.619   0.166  11.188  1.4708 -1.0015 -1.0733
15726TIP3    H268670   4.705   0.288  11.217  2.7275 -1.3527 -3.1606
15727TIP3   OH268671   2.199   0.518   1.594  0.8001  0.8508  0.1047
15727TIP3    H168672   2.256   0.450   1.559 -0.4174  0.1520 -0.6178
15727TIP3    H268673   2.162   0.561   1.516 -0.0790  0.9062  0.5408
15728TIP3   OH268674   5.765   6.806   3.382 -0.4445  0.5544 -0.0567
15728TIP3    H168675   5.768   6.744   3.309 -2.5293  0.7262 -0.3405
15728TIP3    H268676   5.856   6.831   3.395  0.0760 -0.0056 -2.1546
15729TIP3   OH268677   3.029   3.100   5.135 -0.0241  0.1019 -0.2410
15729TIP3    H168678   3.094   3.057   5.078 -1.0539 -0.4879 -0.9964
15729TIP3    H268679   3.080   3.165   5.183  1.4486 -1.4495  0.3957
15730TIP3   OH268680   3.625   1.533  15.451 -0.0961  0.1564  0.3889
15730TIP3    H168681   3.616   1.460  15.390 -1.6605 -0.3508  1.1838
15730TIP3    H268682   3.631   1.493  15.537  0.1916  0.9331  0.7435
15731TIP3   OH268683   4.204   1.281   1.100 -0.4476  0.0081 -0.1250
15731TIP3    H168684   4.167   1.280   1.188 -0.8378  0.6541 -0.2780
15731TIP3    H268685   4.176   1.197   1.062 -1.5431  0.3636 -0.1388
15732TIP3   OH268686   6.675   6.516  12.319 -0.0442 -0.7497  0.9851
15732TIP3    H168687   6.620   6.482  12.248 -0.4690  0.0746  0.9019
15732TIP3    H268688   6.728   6.583  12.277  0.5394 -1.0627  1.2182
15733TIP3   OH268689   6.516   5.363  10.295  0.1009 -0.1140 -0.0747
15733TIP3    H168690   6.494   5.274  10.322  0.2481 -0.6178 -1.5305
15733TIP3    H268691   6.431   5.405  10.280  0.0224  0.1403  1.0318
15734TIP3   OH268692   3.754   5.899   3.342 -0.3924  0.3032 -0.1189
15734TIP3    H168693   3.782   5.861   3.425  0.5143  0.4470 -0.3497
15734TIP3    H268694   3.663   5.870   3.331  0.5292 -2.6656 -0.7829
15735TIP3   OH268695   1.341   2.704  15.458 -0.0068 -0.0277 -0.1994
15735TIP3    H168696   1.406   2.678  15.393 -1.3718 -0.0556 -1.6180
15735TIP3    H268697   1.387   2.765  15.516  0.5196  2.5071 -3.0417
15736TIP3   OH268698   2.265   6.016  10.919  0.0140 -0.2429  0.0401
15736TIP3    H168699   2.196   6.005  10.853 -0.0710 -0.9013  0.2367
15736TIP3    H268700   2.330   5.949  10.897  0.2719 -0.0648  0.2623
15737TIP3   OH268701   3.549   3.276  10.961 -0.3464  0.3379 -0.5556
15737TIP3    H168702   3.468   3.230  10.941 -0.9543  1.4907 -0.8304
15737TIP3    H268703   3.553   3.277  11.057  0.1572 -1.0673 -0.5376
15738TIP3   OH268704   1.062   2.854  12.919 -0.2427 -0.0100  0.2386
15738TIP3    H168705   1.050   2.941  12.880 -1.8423  0.3780  1.5022
15738TIP3    H268706   0.992   2.801  12.881  0.0988 -0.4737  0.2496
15739TIP3   OH268707   6.546   1.570   0.584 -0.2419 -0.0519 -0.0635
15739TIP3    H168708   6.475   1.571   0.648  0.7508  1.9509  1.1132
15739TIP3    H268709   6.513   1.623   0.511 -0.9140 -1.3291 -0.7194
15740TIP3   OH268710   6.295   6.548  15.977 -0.1615  0.1603  0.5374
15740TIP3    H168711   6.354   6.499  16.034  1.6280  1.6392  0.0849
15740TIP3    H268712   6.256   6.615  16.035 -0.6167 -0.1791  0.6252
15741TIP3   OH268713   0.189   1.543  15.013 -0.1244 -0.2699 -0.2655
15741TIP3    H168714   0.105   1.522  14.972  0.6671 -1.1753 -1.5045
15741TIP3    H268715   0.170   1.550  15.106 -1.7499  0.5264 -0.6251
15742TIP3   OH268716   5.169   2.921  16.402  0.3297 -0.4476  0.0012
15742TIP3    H168717   5.190   2.828  16.411 -1.9832 -1.1042 -0.7330
15742TIP3    H268718   5.150   2.950  16.491  1.3609 -0.5788  0.2748
15743TIP3   OH268719   4.134   6.792   0.300 -0.2902 -0.0878  0.1139
15743TIP3    H168720   4.172   6.704   0.309 -2.3369 -0.9159  1.1442
15743TIP3    H268721   4.076   6.802   0.375 -0.0388  2.2251  0.0869
15744TIP3   OH268722   1.598   0.302  16.991 -0.0836  0.4487  0.4613
15744TIP3    H168723   1.656   0.295  16.916 -0.3067  0.3553  0.2976
15744TIP3    H268724   1.587   0.211  17.021  0.4671  0.5400  0.9622
15745TIP3   OH268725   6.496   5.091   0.973 -0.1969 -0.2672 -0.2618
15745TIP3    H168726   6.540   5.081   1.058  0.7815  1.5310 -0.5184
15745TIP3    H268727   6.556   5.050   0.911  1.4542  2.4939 -0.6613
15746TIP3   OH268728   1.134   5.509   0.109 -0.2173 -0.1609  0.1140
15746TIP3    H168729   1.172   5.563   0.040  2.6767 -1.2382  0.7193
15746TIP3    H268730   1.118   5.424   0.067 -0.7378 -0.1065  0.1953
15747TIP3   OH268731   6.631   2.520  14.046  0.3278 -0.3436  0.2995
15747TIP3    H168732   6.688   2.486  13.976 -1.4137  1.4425 -2.1395
15747TIP3    H268733   6.546   2.479  14.030  0.0978 -0.5774  1.9656
15748TIP3   OH268734   1.367   0.099  13.581 -0.4176  0.3232  0.0312
15748TIP3    H168735   1.447   0.060  13.617 -0.8023 -1.2284 -0.7192
15748TIP3    H268736   1.358   0.182  13.628  0.1489 -0.7078  2.0830
15749TIP3   OH268737   4.090   5.407   3.283 -0.0624  0.3088  0.4032
15749TIP3    H168738   4.021   5.417   3.348 -0.7418  0.3728 -0.3208
15749TIP3    H268739   4.044   5.404   3.199  0.7842 -0.0180 -0.0601
15750TIP3   OH268740   3.382   0.870   3.442 -0.0857 -0.2409 -0.3864
15750TIP3    H168741   3.464   0.903   3.403 -0.2081 -0.3067 -0.7060
15750TIP3    H268742   3.346   0.945   3.489  0.1975 -0.2324 -0.1822
15751TIP3   OH268743   5.255   1.719   0.412 -0.1905  0.4050 -0.4655
15751TIP3    H168744   5.176   1.678   0.448  0.3281 -1.1547 -1.0634
15751TIP3    H268745   5.318   1.716   0.483  0.5810 -1.9691 -1.1754
15752TIP3   OH268746   0.200   3.734   1.439 -0.0732  0.0200 -0.4054
15752TIP3    H168747   0.114   3.728   1.481 -0.6572  1.9120 -1.2325
15752TIP3    H268748   0.201   3.663   1.376 -1.1262  0.0994 -0.5287
15753TIP3   OH268749   0.473   1.295   3.794  0.9603 -0.3220  0.2195
15753TIP3    H168750   0.483   1.285   3.699  0.1386 -1.7468  0.2433
15753TIP3    H268751   0.432   1.213   3.822  0.3330  0.4548  1.6809
15754TIP3   OH268752   3.146   3.610  10.719  0.4514 -0.6474 -0.6480
15754TIP3    H168753   3.156   3.705  10.730 -1.7803 -0.6224  2.6583
15754TIP3    H268754   3.213   3.572  10.775 -0.8696 -0.8904  0.8258
15755TIP3   OH268755   1.372   5.564   2.547 -0.1495 -0.0972 -0.4350
15755TIP3    H168756   1.418   5.505   2.487  0.4457  0.1008 -0.1782
15755TIP3    H268757   1.397   5.652   2.518 -0.9477  0.0371 -0.7466
15756TIP3   OH268758   0.679   2.486  12.596  0.0457  0.0999 -0.6060
15756TIP3    H168759   0.649   2.575  12.574  1.6009  0.6260 -0.7464
15756TIP3    H268760   0.600   2.440  12.623 -1.1961  0.8582 -2.6889
15757TIP3   OH268761   2.938   2.961  12.852  0.4899 -0.2814  0.0310
15757TIP3    H168762   2.988   3.033  12.812  0.4602 -1.1419 -1.6652
15757TIP3    H268763   2.984   2.942  12.933 -0.4818  2.7551  1.4561
15758TIP3   OH268764   4.638   4.660  15.031 -0.5504  0.2862 -0.0833
15758TIP3    H168765   4.621   4.617  14.947 -0.4501  1.5623 -0.7851
15758TIP3    H268766   4.566   4.632  15.088 -1.0144 -0.0232 -0.8151
15759TIP3   OH268767   3.782   3.574   0.011 -0.2012 -0.2391  0.0238
15759TIP3    H168768   3.860   3.626  -0.006 -0.6242  0.1587 -0.7780
15759TIP3    H268769   3.709   3.636   0.000 -0.5687  0.3177  4.1475
15760TIP3   OH268770   2.384   6.170  14.115 -0.1252 -0.7347 -0.4840
15760TIP3    H168771   2.472   6.142  14.091 -0.0301 -0.4422 -0.4800
15760TIP3    H268772   2.372   6.253  14.070 -0.2077 -0.5211 -0.0756
15761TIP3   OH268773   2.715   0.021   3.231  0.1669 -0.3113  0.1381
15761TIP3    H168774   2.749  -0.021   3.153  2.2900  1.8328 -0.2110
15761TIP3    H268775   2.711  -0.048   3.297 -0.2090 -1.8179 -1.3985
15762TIP3   OH268776   0.017   2.381  10.139 -0.3183 -0.1627 -0.1990
15762TIP3    H168777   0.105   2.410  10.162 -0.7025  0.5074  0.4718
15762TIP3    H268778   0.029   2.292  10.106  0.9408  0.8469 -2.7174
15763TIP3   OH268779   6.611   0.013  14.994  0.3683  0.1768 -0.0267
15763TIP3    H168780   6.590   0.076  14.925  1.6278 -0.6520 -1.2234
15763TIP3    H268781   6.603   0.063  15.076 -1.1904  1.1732 -0.7423
15764TIP3   OH268782   0.567   4.989   2.721  0.5213 -0.7320 -0.2812
15764TIP3    H168783   0.522   4.915   2.681 -3.8136  0.7200  1.3249
15764TIP3    H268784   0.559   4.974   2.815 -2.4857  2.5888  0.1816
15765TIP3   OH268785   5.984   0.017   0.515  0.1831  0.2262  0.2285
15765TIP3    H168786   6.000   0.108   0.491 -0.3277  0.2270 -0.1181
15765TIP3    H268787   6.011  -0.033   0.438  0.0892  0.1117  0.2697
15766TIP3   OH268788   5.987   1.865   0.122  0.2860 -0.1805 -0.8860
15766TIP3    H168789   5.895   1.857   0.148  0.7303 -1.6295  0.4088
15766TIP3    H268790   6.007   1.958   0.133 -0.6799 -0.0592  0.0632
15767TIP3   OH268791   2.434   2.958  12.348  0.0047  0.3918 -0.1628
15767TIP3    H168792   2.381   3.037  12.349 -0.2406  0.3282 -2.3004
15767TIP3    H268793   2.390   2.901  12.284  1.2874 -0.6402 -0.1715
15768TIP3   OH268794   1.843   6.816  12.221  0.1693 -0.1562  0.4359
15768TIP3    H168795   1.825   6.903  12.256  1.0260  0.8827 -1.5441
15768TIP3    H268796   1.886   6.769  12.292  0.8361  1.4764  1.1463
15769TIP3   OH268797   0.186   3.162  17.123  0.1816 -0.2522  0.1534
15769TIP3    H168798   0.151   3.251  17.127  1.3675  0.2732 -0.5221
15769TIP3    H268799   0.111   3.106  17.142 -0.8338  0.8525 -0.4207
15770TIP3   OH268800   4.772   3.109  16.193  0.2619 -0.1728  0.4850
15770TIP3    H168801   4.823   3.095  16.113  1.2682 -1.3923  1.3129
15770TIP3    H268802   4.793   3.035  16.249 -0.1756  0.8074  2.0195
15771TIP3   OH268803   0.203   3.311   3.995 -0.2432  0.3479  0.2387
15771TIP3    H168804   0.218   3.398   3.957 -0.0885 -0.1230 -0.7898
15771TIP3    H268805   0.145   3.327   4.069 -1.3615  1.1614 -0.7853
15772TIP3   OH268806   1.496   1.841  17.154 -0.3082 -0.7412 -0.1722
15772TIP3    H168807   1.521   1.845  17.061 -1.4571 -0.1246 -0.4723
15772TIP3    H268808   1.554   1.903  17.197 -1.1622  0.5683 -0.8324
15773TIP3   OH268809   0.749   0.211   0.019  0.4591  0.5537 -0.4103
15773TIP3    H168810   0.665   0.174   0.046 -1.1241  2.4719 -2.4027
15773TIP3    H268811   0.791   0.141  -0.030 -0.1283 -0.3098  0.2835
15774TIP3   OH268812   5.207   1.196  16.132  0.0089  0.1312  0.3309
15774TIP3    H168813   5.120   1.157  16.139 -0.1660  0.8220  2.7146
15774TIP3    H268814   5.264   1.123  16.109 -0.8238 -0.8904  1.3848
15775TIP3   OH268815   0.744   5.535   4.859  0.0772  0.0835  0.7489
15775TIP3    H168816   0.737   5.491   4.944  0.6800 -0.2992  0.5981
15775TIP3    H268817   0.807   5.483   4.809  0.8449  1.1298  0.5888
15776TIP3   OH268818   4.871   0.907  13.799  0.5185  0.5239 -0.2465
15776TIP3    H168819   4.869   1.002  13.788  0.2549  0.4785 -0.6135
15776TIP3    H268820   4.791   0.887  13.846 -1.1622  0.1492 -3.0466
15777TIP3   OH268821   3.305   1.765  12.248  0.1991  0.5016 -0.4677
15777TIP3    H168822   3.259   1.724  12.322  0.9168 -1.1619 -0.8863
15777TIP3    H268823   3.312   1.857  12.272 -0.1789  0.1320  1.2204
15778TIP3   OH268824   4.358   2.219  10.611  0.1379 -0.0886  0.2985
15778TIP3    H168825   4.328   2.145  10.559  0.5465 -0.5112  0.6599
15778TIP3    H268826   4.303   2.217  10.689  0.8456 -0.6503  0.7967
15779TIP3   OH268827   3.372   5.989   5.704  0.2329 -0.6179 -0.6100
15779TIP3    H168828   3.369   5.895   5.720 -1.5780 -1.0109 -2.7417
15779TIP3    H268829   3.287   6.010   5.665  1.2838  1.5369 -1.9532
15780TIP3   OH268830   4.482   0.043  10.541  0.3175  0.0069 -0.7592
15780TIP3    H168831   4.402   0.046  10.488 -0.7363  1.1564  0.7833
15780TIP3    H268832   4.506   0.135  10.553  0.9297 -0.2519  0.1346
15781TIP3   OH268833   2.926   4.229   2.544  0.4398  0.4750  0.1494
15781TIP3    H168834   2.986   4.199   2.613 -0.0549 -0.5321  0.1648
15781TIP3    H268835   2.942   4.167   2.472  0.6881  1.2925 -0.5128
15782TIP3   OH268836   4.869   2.982  15.374 -0.1230  0.1461  0.2486
15782TIP3    H168837   4.784   3.023  15.388  0.8941  2.3053  0.5486
15782TIP3    H268838   4.930   3.056  15.367  1.5035 -1.2587 -1.6365
15783TIP3   OH268839   5.932   3.447  11.503 -0.1803  0.2539 -0.3273
15783TIP3    H168840   5.874   3.416  11.572  0.1302  1.6516  0.5930
15783TIP3    H268841   5.882   3.434  11.422 -0.6615 -1.1343  0.1562
15784TIP3   OH268842   0.162   6.338   4.841 -0.2919 -0.6437  0.4938
15784TIP3    H168843   0.250   6.371   4.823 -1.3912  0.9559 -2.7844
15784TIP3    H268844   0.147   6.270   4.775 -1.6687 -0.6356  0.7545
15785TIP3   OH268845   0.149   1.823  15.643  0.3819 -0.3937 -0.1343
15785TIP3    H168846   0.172   1.742  15.690  1.1120  0.2013  0.5451
15785TIP3    H268847   0.231   1.852  15.603  0.2664  0.3544  0.1571
15786TIP3   OH268848   5.106   3.529  10.170  0.2568 -0.0568 -0.0014
15786TIP3    H168849   5.142   3.617  10.169 -0.9115  0.4351 -0.8157
15786TIP3    H268850   5.053   3.526  10.249  1.2788 -0.4649  0.6902
15787TIP3   OH268851   1.822   0.171  13.466  0.6358  0.1950  0.4026
15787TIP3    H168852   1.879   0.118  13.523 -0.1908 -0.7315  0.3972
15787TIP3    H268853   1.787   0.239  13.524  1.6082  0.6831  0.4412
15788TIP3   OH268854   2.211   0.763  12.111  0.3694  0.0900 -0.2856
15788TIP3    H168855   2.178   0.685  12.155  1.0046  0.3212  0.6250
15788TIP3    H268856   2.137   0.795  12.059  0.0821 -1.0761 -0.6344
15789TIP3   OH268857   5.764   3.304  11.663 -0.1129 -0.4806  0.2020
15789TIP3    H168858   5.744   3.316  11.756  0.4275  0.8256  0.1687
15789TIP3    H268859   5.679   3.285  11.623 -0.1515 -2.6123  1.1612
15790TIP3   OH268860   5.978   2.954  13.150 -0.1063  0.1905 -0.0524
15790TIP3    H168861   6.042   3.015  13.187  1.0067 -0.3224 -1.0875
15790TIP3    H268862   6.030   2.894  13.097 -1.4245 -0.3851 -0.7251
15791TIP3   OH268863   1.718   5.094   6.390 -0.9395 -0.3158 -0.6828
15791TIP3    H168864   1.755   5.161   6.332  0.7768 -0.0889  0.5952
15791TIP3    H268865   1.633   5.073   6.350 -1.2204  2.0692 -1.5435
15792TIP3   OH268866   5.040   3.539  15.651 -0.0166  0.6123  0.1282
15792TIP3    H168867   5.017   3.623  15.612  0.2011  0.1431 -1.0776
15792TIP3    H268868   5.128   3.521  15.619 -0.3123 -0.3649 -0.1838
15793TIP3   OH268869   5.729   5.429   6.449  0.1522 -0.2545 -0.4071
15793TIP3    H168870   5.689   5.516   6.451  0.1322 -0.2715  0.1602
15793TIP3    H268871   5.656   5.368   6.461  0.1203 -0.3710 -1.1402
15794TIP3   OH268872   4.350   1.328   0.201 -0.2456  0.0517  0.1415
15794TIP3    H168873   4.437   1.307   0.168  0.3792  2.7603 -0.1921
15794TIP3    H268874   4.340   1.275   0.280  2.1872  0.4969  0.8252
15795TIP3   OH268875   6.264   4.535   1.522 -0.3307  0.1767 -0.2072
15795TIP3    H168876   6.341   4.489   1.487  1.0702  2.3226 -0.1044
15795TIP3    H268877   6.190   4.488   1.484  0.9773 -2.0360 -0.2403
15796TIP3   OH268878   4.461   4.558  12.542  0.3807 -0.1174  1.0479
15796TIP3    H168879   4.488   4.647  12.519 -0.5339  0.6208  2.7055
15796TIP3    H268880   4.534   4.522  12.592  1.2009 -0.7322 -0.5081
15797TIP3   OH268881   3.975   3.961   1.885 -0.9542  0.4526  0.5048
15797TIP3    H168882   4.050   3.960   1.944 -1.0571  0.3493  0.6340
15797TIP3    H268883   3.997   3.897   1.817 -1.1893 -0.0213  0.8705
15798TIP3   OH268884   3.780   0.393   3.949  0.4034 -0.2351  0.1407
15798TIP3    H168885   3.737   0.337   3.885  0.2856  1.1329 -1.0269
15798TIP3    H268886   3.843   0.335   3.993 -0.8588 -1.6577  0.1568
15799TIP3   OH268887   1.654   6.602   1.332 -0.0737  0.1522  0.1984
15799TIP3    H168888   1.585   6.660   1.303 -0.5749 -0.4681  0.1293
15799TIP3    H268889   1.695   6.571   1.252 -0.1330  0.0220  0.2181
15800TIP3   OH268890   2.440   2.272  11.527  0.1786  0.1323 -0.1768
15800TIP3    H168891   2.415   2.220  11.450  1.6950 -1.1637  0.1381
15800TIP3    H268892   2.460   2.358  11.492 -0.7239  0.0309 -0.9823
15801TIP3   OH268893   5.085   2.272   4.942  0.0406 -0.6651 -0.0213
15801TIP3    H168894   5.104   2.179   4.944  0.2601 -0.6191  0.0668
15801TIP3    H268895   5.039   2.289   5.025 -1.7124 -1.0529 -0.8812
15802TIP3   OH268896   5.685   4.644   0.088 -0.2302 -0.7143  0.7616
15802TIP3    H168897   5.686   4.567   0.031 -1.1220  0.3082 -0.7231
15802TIP3    H268898   5.610   4.630   0.146 -0.6582 -0.7830  0.2026
15803TIP3   OH268899   1.705   0.997  14.977 -0.1987  0.0916 -0.5099
15803TIP3    H168900   1.748   1.045  14.906  0.3045  0.5945  0.1207
15803TIP3    H268901   1.763   0.923  14.995 -0.8381 -0.6232 -1.2980
15804TIP3   OH268902   2.495   3.341  15.733  0.0352  0.2635  0.3653
15804TIP3    H168903   2.589   3.358  15.739 -0.0404  0.5859  0.6992
15804TIP3    H268904   2.463   3.352  15.822 -0.3887  0.5895  0.1785
15805TIP3   OH268905   0.776   3.888   0.342 -0.1286 -0.6147 -0.6051
15805TIP3    H168906   0.726   3.894   0.261  0.2049 -1.9508 -0.9395
15805TIP3    H268907   0.843   3.822   0.324  2.0310  1.3636 -0.2999
15806TIP3   OH268908   6.440   5.233   6.275 -0.4900  0.1879 -0.0469
15806TIP3    H168909   6.389   5.170   6.326 -1.2455  0.0126 -1.0034
15806TIP3    H268910   6.527   5.232   6.316 -1.5097  1.3485  2.3543
15807TIP3   OH268911   1.371   3.851   5.732  0.0150  0.1352 -0.0526
15807TIP3    H168912   1.392   3.903   5.654 -2.0319 -0.8804 -1.3868
15807TIP3    H268913   1.376   3.913   5.804  2.3490  1.0344 -0.8886
15808TIP3   OH268914   1.108   3.651  15.071 -0.4820 -0.1064 -0.4451
15808TIP3    H168915   1.147   3.722  15.122  0.9156  0.2024 -1.8643
15808TIP3    H268916   1.128   3.572  15.120 -0.9244  0.3500  0.4939
15809TIP3   OH268917   5.711   4.269   6.477  0.2421 -0.0522  0.2802
15809TIP3    H168918   5.694   4.175   6.481 -0.9022  0.1590  1.4458
15809TIP3    H268919   5.792   4.278   6.427  1.1311 -1.7507  1.3437
15810TIP3   OH268920   0.331   5.050  16.814  0.3021  0.2322 -0.5334
15810TIP3    H168921   0.379   5.040  16.732 -1.1183  1.0845 -1.5240
15810TIP3    H268922   0.355   5.137  16.845 -1.1547  1.0116 -1.4680
15811TIP3   OH268923   1.376   2.158  11.038  0.4646  0.2979 -0.2360
15811TIP3    H168924   1.436   2.209  10.983 -0.3092  1.4428 -0.0431
15811TIP3    H268925   1.289   2.182  11.007  0.0597 -0.1194  0.5645
15812TIP3   OH268926   3.888   5.765  13.385  0.2238 -0.5873 -0.0440
15812TIP3    H168927   3.884   5.778  13.290  1.0548 -1.5037 -0.2215
15812TIP3    H268928   3.797   5.767  13.413 -0.2145 -2.3704 -1.1720
15813TIP3   OH268929   6.136   5.245  14.590  0.1351  0.4006  0.1064
15813TIP3    H168930   6.146   5.207  14.502  2.5716 -1.3966  1.0319
15813TIP3    H268931   6.223   5.281  14.610  0.0351 -0.4270  2.2700
15814TIP3   OH268932   1.047   6.379   5.046 -0.1626  0.5648  0.7995
15814TIP3    H168933   1.084   6.466   5.036 -2.4898  1.4554 -1.1343
15814TIP3    H268934   0.956   6.395   5.073 -0.7247 -1.2233  0.1140
15815TIP3   OH268935   6.044   5.484   4.966  0.2548 -0.1105  0.3534
15815TIP3    H168936   5.987   5.426   4.915 -0.5011  1.4348 -0.6342
15815TIP3    H268937   5.989   5.561   4.984  1.5050  0.6915  0.8199
15816TIP3   OH268938   2.110   2.048   3.250  0.2583 -0.2153  0.5108
15816TIP3    H168939   2.089   1.977   3.189 -0.8492  0.1317  0.4663
15816TIP3    H268940   2.182   2.094   3.208 -1.1524  0.6486 -1.1155
15817TIP3   OH268941   6.295   5.435  13.438 -0.3866 -0.5658  0.2227
15817TIP3    H168942   6.214   5.418  13.389  0.1737 -0.4366 -0.7732
15817TIP3    H268943   6.362   5.445  13.370  0.4532 -0.6001  1.0359
15818TIP3   OH268944   1.460   3.385  12.353 -0.0451 -0.3231  0.0751
15818TIP3    H168945   1.417   3.323  12.412  0.2287  0.4223  1.0795
15818TIP3    H268946   1.549   3.354  12.345  0.4667  0.6172  1.6279
15819TIP3   OH268947   0.720   5.385  15.254 -0.6566  0.2248 -0.0682
15819TIP3    H168948   0.710   5.419  15.343  0.8845  2.5279 -0.6656
15819TIP3    H268949   0.723   5.464  15.199 -1.0953 -1.1146 -2.1295
15820TIP3   OH268950   3.318   0.661   4.761  0.1346 -0.3371 -0.0737
15820TIP3    H168951   3.397   0.710   4.782  0.0477 -0.2344  0.0165
15820TIP3    H268952   3.320   0.652   4.666  0.0967 -0.0676 -0.1005
15821TIP3   OH268953   3.273   4.645  14.610 -0.5664  0.0650 -0.3702
15821TIP3    H168954   3.293   4.738  14.617  0.5100 -0.2331  0.8265
15821TIP3    H268955   3.198   4.633  14.668 -1.6071  0.4017 -1.5855
15822TIP3   OH268956   0.892   1.635   3.508 -0.2049 -0.1760 -0.3655
15822TIP3    H168957   0.951   1.569   3.473 -1.5167 -1.6968  0.1945
15822TIP3    H268958   0.849   1.593   3.581  0.7049  2.1310  1.6449
15823TIP3   OH268959   6.344   5.982   5.012  0.3232 -0.0642  0.3929
15823TIP3    H168960   6.298   6.009   5.091  0.2136  1.2787 -0.1056
15823TIP3    H268961   6.321   5.890   5.001 -0.8376  0.1167  1.1164
15824TIP3   OH268962   2.042   2.254  15.986 -0.0439 -0.2104 -0.4140
15824TIP3    H168963   2.060   2.348  15.978  1.6066 -0.1908  2.1879
15824TIP3    H268964   2.091   2.214  15.913 -0.4581  0.8938 -1.3200
15825TIP3   OH268965   4.271   1.373   3.013 -0.1226 -0.1319  0.2286
15825TIP3    H168966   4.317   1.431   3.074  0.4764 -1.0639  0.6840
15825TIP3    H268967   4.327   1.371   2.935  0.9945 -1.7705  1.0205
15826TIP3   OH268968   4.184   1.951   6.420 -0.1018  0.4402  0.1484
15826TIP3    H168969   4.177   1.870   6.368  0.7747  0.9096 -0.7375
15826TIP3    H268970   4.104   1.999   6.401 -0.4866 -0.0597  0.4395
15827TIP3   OH268971   6.156   2.080  13.561  0.1781 -0.1321 -0.0188
15827TIP3    H168972   6.194   2.047  13.479  1.4434  2.3391 -0.5351
15827TIP3    H268973   6.084   2.136  13.533 -0.1305 -0.1845  0.6479
15828TIP3   OH268974   2.016   5.142  15.905  0.4846  0.0467 -0.2791
15828TIP3    H168975   2.062   5.137  15.821  0.4049 -0.1562 -0.3114
15828TIP3    H268976   2.086   5.150  15.970  0.7002 -2.2679 -0.1443
15829TIP3   OH268977   4.145   3.995   5.827  0.7602 -0.0589  0.1133
15829TIP3    H168978   4.104   4.044   5.899  1.9306 -0.6730  1.2507
15829TIP3    H268979   4.075   3.940   5.792  0.5911 -1.2147  2.1141
15830TIP3   OH268980   2.810   1.312  11.746  0.0513 -0.0591 -0.0113
15830TIP3    H168981   2.856   1.249  11.691  1.3510  0.4712  0.4078
15830TIP3    H268982   2.731   1.334  11.697  0.9396  0.0537 -1.4542
15831TIP3   OH268983   1.808   0.812  14.698  0.4018  0.5759 -0.2053
15831TIP3    H168984   1.800   0.720  14.674 -2.3588  0.3187  1.2642
15831TIP3    H268985   1.826   0.810  14.792  2.7779  1.5829 -0.5791
15832TIP3   OH268986   6.687   2.418   1.280 -0.5845  0.1139  0.2991
15832TIP3    H168987   6.708   2.351   1.345  0.5940 -1.1516 -1.3040
15832TIP3    H268988   6.606   2.459   1.313 -0.2858 -0.7657  2.2859
15833TIP3   OH268989   2.873   2.197   5.330  0.1117 -0.1097  0.7224
15833TIP3    H168990   2.876   2.121   5.388  1.0665 -0.8036 -0.2029
15833TIP3    H268991   2.937   2.178   5.262 -0.3428  1.0901 -0.0744
15834TIP3   OH268992   5.627   6.735   4.051 -0.1527 -0.4552  0.4101
15834TIP3    H168993   5.536   6.744   4.080  0.2926  1.3223  1.4221
15834TIP3    H268994   5.623   6.674   3.977 -2.6102  1.7282 -1.4839
15835TIP3   OH268995   6.257   5.562  12.646  0.5001  0.3994 -0.5197
15835TIP3    H168996   6.286   5.642  12.689 -0.0262 -0.0237  0.6566
15835TIP3    H268997   6.316   5.494  12.680 -1.1730 -0.2909  1.1346
15836TIP3   OH268998   3.589   3.352  15.675  0.4106 -0.5142 -0.4370
15836TIP3    H168999   3.639   3.403  15.610  1.9183  0.6065  1.5106
15836TIP3    H269000   3.621   3.263  15.665  1.7230 -0.0860 -0.2731
15837TIP3   OH269001   0.667   2.521  14.701  0.5800  0.1054 -0.6907
15837TIP3    H169002   0.763   2.525  14.696  0.7214 -0.8573  0.6289
15837TIP3    H269003   0.645   2.438  14.658  0.4834 -0.4123  0.3342
15838TIP3   OH269004   2.102   3.146  16.751  0.5010 -0.9411 -1.2401
15838TIP3    H169005   2.006   3.140  16.745  0.3811  0.0895 -0.5739
15838TIP3    H269006   2.120   3.155  16.844  1.2216 -0.7041 -1.3940
15839TIP3   OH269007   5.595   5.153  16.780 -0.3441 -0.6655  0.9935
15839TIP3    H169008   5.524   5.136  16.718 -0.0225  1.8199 -0.1888
15839TIP3    H269009   5.550   5.167  16.864 -1.0463 -1.2736  0.7335
15840TIP3   OH269010   3.943   3.191  12.038  0.3083  0.0706 -0.2002
15840TIP3    H169011   4.018   3.244  12.065 -0.2197  0.3481  0.7572
15840TIP3    H269012   3.867   3.247  12.057 -0.0880  0.5689 -2.9060
15841TIP3   OH269013   6.294   5.102   6.070 -0.1528  0.3550 -0.1106
15841TIP3    H169014   6.316   5.160   6.143 -0.1170  0.0930  0.0879
15841TIP3    H269015   6.358   5.031   6.075 -0.1403  0.3425 -0.4058
15842TIP3   OH269016   6.642   4.504   1.187  0.2731  0.4231 -0.4140
15842TIP3    H169017   6.632   4.415   1.222 -0.0903  0.0748 -1.3755
15842TIP3    H269018   6.618   4.497   1.095  0.6697  1.4388 -0.6117
15843TIP3   OH269019   5.066   3.122   5.406  0.2288 -0.0684 -0.2917
15843TIP3    H169020   5.082   3.214   5.388  0.8406  0.2077  1.4918
15843TIP3    H269021   4.979   3.119   5.446  0.0060 -0.3421 -0.7775
15844TIP3   OH269022   0.676   3.215   4.016  0.3506  0.1913 -0.5926
15844TIP3    H169023   0.595   3.220   4.068  1.1312  2.0273  0.5492
15844TIP3    H269024   0.745   3.201   4.081  1.1939  1.0039 -1.2861
15845TIP3   OH269025   6.787   2.030  16.735 -0.4218 -0.1454  0.2338
15845TIP3    H169026   6.699   2.019  16.698  0.8132 -1.3035 -2.6433
15845TIP3    H269027   6.785   2.118  16.773 -2.6237  0.1316 -0.3434
15846TIP3   OH269028   3.266   0.172  14.564  0.0622  0.6536 -0.2900
15846TIP3    H169029   3.179   0.156  14.528  0.5680 -1.2563 -0.7597
15846TIP3    H269030   3.250   0.213  14.649 -1.2348  1.7425 -1.0159
15847TIP3   OH269031   4.488   3.964  11.141 -0.3100  0.1445 -0.2693
15847TIP3    H169032   4.538   3.888  11.172 -1.2423 -1.1430 -1.7484
15847TIP3    H269033   4.517   3.975  11.050 -0.4502  1.3669 -0.1800
15848TIP3   OH269034   4.474   4.639  10.973 -0.3466 -0.4781  0.0387
15848TIP3    H169035   4.569   4.626  10.980 -0.1512 -0.3677 -1.9413
15848TIP3    H269036   4.439   4.553  10.951 -0.8245 -0.6833  1.5084
15849TIP3   OH269037   5.351   5.831  12.220 -0.4129 -0.6079 -0.2994
15849TIP3    H169038   5.412   5.853  12.149 -0.9038 -0.5096 -0.7045
15849TIP3    H269039   5.405   5.793  12.288  0.0613 -0.8056 -0.7783
15850TIP3   OH269040   4.134   4.211   0.133  0.2191  0.3026 -0.3846
15850TIP3    H169041   4.168   4.229   0.220 -0.7563  1.6283 -0.2447
15850TIP3    H269042   4.132   4.115   0.128  0.5987  0.2009  0.9130
15851TIP3   OH269043   2.435   5.823  15.001  0.1929  0.4202  0.0569
15851TIP3    H169044   2.498   5.874  14.950 -0.8493 -0.6722 -2.4875
15851TIP3    H269045   2.385   5.888  15.050 -1.2048  2.0025 -3.2055
15852TIP3   OH269046   2.951   4.276  12.094  0.3596  0.2998 -0.1408
15852TIP3    H169047   2.954   4.361  12.138 -0.9219 -1.1294  3.0183
15852TIP3    H269048   3.032   4.233  12.119  0.1385 -0.1126 -0.1313
15853TIP3   OH269049   5.777   6.035   0.702  0.2875  0.3655 -0.4956
15853TIP3    H169050   5.805   6.125   0.719  1.0123  0.0341  0.0722
15853TIP3    H269051   5.776   5.993   0.788  0.4143 -0.3061 -0.8203
15854TIP3   OH269052   4.411   2.992   3.485 -0.2189 -0.0561 -0.4389
15854TIP3    H169053   4.494   2.944   3.485 -0.9957 -1.4722 -0.1872
15854TIP3    H269054   4.424   3.063   3.422  1.4246  0.2188  0.1620
15855TIP3   OH269055   0.799   3.630  14.535  0.2622  0.4756  0.0066
15855TIP3    H169056   0.883   3.665  14.506  0.7630 -1.0196 -0.4236
15855TIP3    H269057   0.769   3.692  14.602  3.2938 -0.6389  2.6350
15856TIP3   OH269058   2.644   6.719  11.677  0.5653  0.6814  0.1027
15856TIP3    H169059   2.565   6.741  11.726  1.4275  0.6247  1.5702
15856TIP3    H269060   2.641   6.776  11.601  0.0003  1.9574  1.0357
15857TIP3   OH269061   6.115   5.104   1.685  0.2130 -0.3786 -0.0481
15857TIP3    H169062   6.050   5.106   1.615 -1.3041  3.3974  1.2046
15857TIP3    H269063   6.199   5.108   1.640 -0.5548 -1.4827 -1.6671
15858TIP3   OH269064   6.276   0.196   5.302  0.0272  0.4133  0.1770
15858TIP3    H169065   6.339   0.244   5.357 -0.0756  0.2305  0.4595
15858TIP3    H269066   6.303   0.105   5.308  1.5609  0.6504 -2.1297
15859TIP3   OH269067   5.239   5.046  14.436 -0.0966  0.1013 -0.3002
15859TIP3    H169068   5.260   5.095  14.356  1.4074 -0.3365 -0.2025
15859TIP3    H269069   5.260   4.955  14.415 -2.1830 -0.4395 -0.2416
15860TIP3   OH269070   0.424   6.346  11.845 -0.0863  0.3392  0.0047
15860TIP3    H169071   0.442   6.397  11.924  2.9777  0.2704 -0.5286
15860TIP3    H269072   0.396   6.410  11.780  0.6486  0.8874  0.2236
15861TIP3   OH269073   2.261   0.053   5.297  0.1379 -0.1613 -0.3537
15861TIP3    H169074   2.286  -0.040   5.295  0.5091 -0.0572 -2.2152
15861TIP3    H269075   2.167   0.051   5.313 -0.0278 -0.9284 -1.2975
15862TIP3   OH269076   2.977   4.592  12.458  0.0743  0.1984  0.2429
15862TIP3    H169077   3.006   4.505  12.487  0.2598 -0.2926 -1.2963
15862TIP3    H269078   2.980   4.646  12.536  1.2733 -0.8462  0.9543
15863TIP3   OH269079   1.714   0.932  15.745  0.2095  0.8487  0.0875
15863TIP3    H169080   1.747   0.853  15.703 -1.3300  0.7039 -0.9270
15863TIP3    H269081   1.792   0.974  15.783  1.1622 -0.6956 -0.0952
15864TIP3   OH269082   0.223   3.636  15.994 -0.1416  0.6014 -0.2319
15864TIP3    H169083   0.200   3.631  16.087  0.4502  0.5202 -0.0901
15864TIP3    H269084   0.230   3.545  15.966  1.7089  0.5922  0.1564
15865TIP3   OH269085   2.872   0.692  15.451 -0.0567 -0.3179  0.2871
15865TIP3    H169086   2.964   0.705  15.426 -0.6623  0.6081 -1.6434
15865TIP3    H269087   2.830   0.776  15.433 -1.0382 -0.2693  2.5263
15866TIP3   OH269088   2.046   4.972   6.312  0.4489  0.1987  0.2834
15866TIP3    H169089   2.022   4.879   6.312 -1.1477  0.5658 -0.6327
15866TIP3    H269090   2.083   4.987   6.225  0.2472  0.5191  0.2528
15867TIP3   OH269091   0.459   5.159  11.349  0.4404 -0.0038  0.6279
15867TIP3    H169092   0.444   5.123  11.262  1.0528  2.2151 -0.4749
15867TIP3    H269093   0.554   5.153  11.362  0.6614  1.7515  0.1023
15868TIP3   OH269094   1.001   2.632   4.382  0.1938  0.0337 -0.3531
15868TIP3    H169095   1.053   2.687   4.440  0.4921 -2.2680  1.7053
15868TIP3    H269096   1.062   2.608   4.312  0.6559  0.6506 -0.1736
15869TIP3   OH269097   1.129   3.031   1.725  0.1308  0.4484  0.3579
15869TIP3    H169098   1.104   2.959   1.666  1.1542  0.1955  0.2032
15869TIP3    H269099   1.224   3.023   1.732  0.3083  2.0585  0.0053
15870TIP3   OH269100   4.734   0.262   0.398  0.6528  0.3325 -0.0051
15870TIP3    H169101   4.650   0.216   0.394  0.0427  1.2433  1.4306
15870TIP3    H269102   4.779   0.237   0.318  0.7915 -3.5594  1.0527
15871TIP3   OH269103   2.660   6.553  14.940 -0.3586  0.3115 -0.0465
15871TIP3    H169104   2.585   6.494  14.938 -0.1405  0.0059  0.4997
15871TIP3    H269105   2.704   6.534  15.023  0.1865  0.6555 -0.2451
15872TIP3   OH269106   6.461   6.423  13.312  0.1354  0.5151  0.5094
15872TIP3    H169107   6.489   6.478  13.239 -1.9898  1.7910  0.5827
15872TIP3    H269108   6.378   6.385  13.283 -0.8057  1.1380  2.2757
15873TIP3   OH269109   5.699   5.075   1.257  0.2077  0.3097  0.0352
15873TIP3    H169110   5.778   5.065   1.309  0.4836 -0.2103 -0.4787
15873TIP3    H269111   5.717   5.151   1.201 -0.1481  0.9622  0.7889
15874TIP3   OH269112   4.301   6.222   5.671 -0.2283 -0.0548  0.1520
15874TIP3    H169113   4.228   6.254   5.724 -0.0995  0.2949  0.1215
15874TIP3    H269114   4.323   6.137   5.709 -2.0931 -1.2248 -1.1733
15875TIP3   OH269115   2.792   0.738  17.000  0.3691  0.6966  0.3006
15875TIP3    H169116   2.746   0.818  16.972  0.2834  0.7301  0.5309
15875TIP3    H269117   2.833   0.705  16.921 -1.7039 -0.4385 -0.3848
15876TIP3   OH269118   4.760   5.733  15.445 -0.2627 -0.3451  0.3765
15876TIP3    H169119   4.822   5.679  15.494 -0.5712  0.4660  1.7082
15876TIP3    H269120   4.793   5.731  15.355 -0.8276 -3.5536  0.1291
15877TIP3   OH269121   3.173   0.185   1.548 -0.0459 -0.3600  0.3531
15877TIP3    H169122   3.231   0.257   1.572  0.6038 -1.0064  0.7459
15877TIP3    H269123   3.088   0.208   1.586  0.2662 -0.0149  0.8432
15878TIP3   OH269124   6.739   6.102   5.299  0.3388 -0.1618  0.5756
15878TIP3    H169125   6.794   6.058   5.363  1.5507  0.7978  0.2449
15878TIP3    H269126   6.754   6.195   5.314  1.7501  0.1152 -1.9384
15879TIP3   OH269127   4.581   2.965   0.162 -0.3435 -0.1738 -0.2354
15879TIP3    H169128   4.539   2.906   0.100 -0.0564 -1.0261  0.3610
15879TIP3    H269129   4.604   2.910   0.237 -0.6465  0.8147  0.6215
15880TIP3   OH269130   0.911   0.480   3.818  0.1434  0.5500 -0.0335
15880TIP3    H169131   0.970   0.533   3.764 -0.3953  0.4316 -0.7575
15880TIP3    H269132   0.870   0.420   3.756  2.1358 -2.0637  0.9792
15881TIP3   OH269133   2.313   1.473  10.613 -0.3849  0.6535  0.5901
15881TIP3    H169134   2.264   1.468  10.531 -0.6999 -0.7852  0.8489
15881TIP3    H269135   2.275   1.406  10.669  1.5534 -0.2134  0.9673
15882TIP3   OH269136   2.809   0.259  12.029 -0.0135  0.2619  0.7416
15882TIP3    H169137   2.872   0.258  11.956 -0.6291 -0.7881  0.1902
15882TIP3    H269138   2.805   0.351  12.055 -0.4958  0.8596 -1.2117
15883TIP3   OH269139   4.451   3.243   4.409 -0.3291 -0.1796 -0.0971
15883TIP3    H169140   4.383   3.254   4.476 -0.1679 -0.6308  0.1492
15883TIP3    H269141   4.496   3.327   4.407  1.1848 -0.8619  2.0737
15884TIP3   OH269142   4.196   4.826  10.895  0.7172 -0.3636  0.3934
15884TIP3    H169143   4.247   4.899  10.931  0.2009  0.3928 -0.3666
15884TIP3    H269144   4.253   4.788  10.828  0.3601  0.4098 -0.3776
15885TIP3   OH269145   5.403   1.710  17.030 -0.1756 -0.4980 -0.0232
15885TIP3    H169146   5.420   1.705  17.124 -2.4627  0.5474  0.5178
15885TIP3    H269147   5.310   1.692  17.021  0.0229 -0.7367 -2.1328
15886TIP3   OH269148   3.888   6.690   3.483  0.0332 -0.5311 -0.3547
15886TIP3    H169149   3.821   6.656   3.423  0.3517  0.5478 -1.3454
15886TIP3    H269150   3.937   6.612   3.510 -1.5516 -1.3336  0.3333
15887TIP3   OH269151   5.669   4.027  13.827 -0.1285 -0.2767 -0.3786
15887TIP3    H169152   5.657   4.108  13.776  0.2171 -0.3818 -0.6297
15887TIP3    H269153   5.582   4.008  13.862 -0.1950  0.2629 -0.2284
15888TIP3   OH269154   2.799   4.426   2.990  0.3292  0.3352  0.6440
15888TIP3    H169155   2.797   4.499   2.929  1.9864  1.9575  2.3975
15888TIP3    H269156   2.708   4.413   3.017 -0.2880  0.2259 -1.3393
15889TIP3   OH269157   2.372   2.507  14.947  0.0236  0.5036  0.0397
15889TIP3    H169158   2.450   2.563  14.954  1.3988 -1.1531 -1.0565
15889TIP3    H269159   2.329   2.536  14.867 -2.0608  3.1829  1.9774
15890TIP3   OH269160   5.949   0.618  16.854 -0.7384 -0.3873  0.0238
15890TIP3    H169161   5.893   0.619  16.932  1.2866 -1.1373  1.5951
15890TIP3    H269162   6.030   0.660  16.882 -0.9597  2.1248 -2.6268
15891TIP3   OH269163   1.017   1.583   6.370 -0.1884  0.4923  0.1255
15891TIP3    H169164   0.956   1.594   6.444 -0.4529 -0.1898  0.0135
15891TIP3    H269165   1.083   1.522   6.403 -0.2408  0.2795 -0.1672
15892TIP3   OH269166   4.441   6.213   2.785 -0.0158 -0.0080  0.3062
15892TIP3    H169167   4.508   6.149   2.763 -1.8511 -1.8894 -0.1924
15892TIP3    H269168   4.422   6.198   2.877 -1.0416 -0.8181 -0.0184
15893TIP3   OH269169   6.676   2.107   4.299  0.2845 -0.3136 -0.5226
15893TIP3    H169170   6.741   2.130   4.366 -2.9869  0.8012  2.5707
15893TIP3    H269171   6.670   2.012   4.303 -1.0172 -0.2139  2.1985
15894TIP3   OH269172   4.086   2.396  16.662  0.6248  0.1890 -0.4220
15894TIP3    H169173   4.106   2.426  16.751  1.0923 -0.6781 -0.2347
15894TIP3    H269174   4.002   2.439  16.642  0.6742  0.6530  0.3032
15895TIP3   OH269175   1.461   1.178  11.202  0.1194 -0.2676 -0.2526
15895TIP3    H169176   1.377   1.169  11.155 -0.4751  1.1083  0.4925
15895TIP3    H269177   1.497   1.260  11.170  2.0274 -1.5802 -1.7542
15896TIP3   OH269178   0.407   4.863  14.674 -0.4338  0.1537 -0.4604
15896TIP3    H169179   0.478   4.923  14.652 -1.0663  0.9763 -0.2917
15896TIP3    H269180   0.395   4.810  14.595  1.0844 -0.7604 -0.1361
15897TIP3   OH269181   3.967   4.596   4.982  0.7730  0.1625 -0.0102
15897TIP3    H169182   3.909   4.618   4.909 -1.4905 -2.1561  0.9532
15897TIP3    H269183   3.932   4.646   5.055 -0.8906 -2.0851  0.8472
15898TIP3   OH269184   2.933   2.216   6.043 -0.2624  0.1281 -0.1091
15898TIP3    H169185   2.976   2.165   6.111  0.0348 -0.9682 -1.0708
15898TIP3    H269186   3.004   2.257   5.994 -0.5121  1.8703  0.9062
15899TIP3   OH269187   1.359   5.892   3.877  0.2862  0.1940 -0.7039
15899TIP3    H169188   1.444   5.855   3.851  0.5285  1.3533 -1.6877
15899TIP3    H269189   1.324   5.929   3.796 -1.6289 -1.1208 -0.5079
15900TIP3   OH269190   4.217   0.813  16.955 -0.1277  1.2204 -0.2998
15900TIP3    H169191   4.271   0.874  16.905 -0.3551  0.8945 -0.9552
15900TIP3    H269192   4.207   0.737  16.897 -2.0400  1.6422 -0.6020
15901TIP3   OH269193   4.719   0.606   1.129 -0.5137  0.3494  0.2746
15901TIP3    H169194   4.708   0.552   1.207 -1.1191  0.5035  0.2969
15901TIP3    H269195   4.734   0.543   1.058  0.1126  0.2130  0.5178
15902TIP3   OH269196   0.247   5.545   2.319  0.3769  0.1839 -0.1705
15902TIP3    H169197   0.339   5.530   2.340  0.5521 -0.8055 -1.5018
15902TIP3    H269198   0.235   5.639   2.330  1.4005  0.2576  0.5131
15903TIP3   OH269199   1.865   5.423   4.115  0.2864 -0.4976  0.2181
15903TIP3    H169200   1.811   5.491   4.155 -0.2652  0.1814 -1.5824
15903TIP3    H269201   1.803   5.356   4.088  0.8201 -1.7235  1.8775
15904TIP3   OH269202   5.293   3.265  13.704 -0.1869 -0.0410 -0.3089
15904TIP3    H169203   5.274   3.304  13.619  0.1423  1.2053  0.1676
15904TIP3    H269204   5.207   3.240  13.739 -0.5431  1.3543 -0.1281
15905TIP3   OH269205   5.045   1.868   0.980 -0.2140  0.2197 -0.1935
15905TIP3    H169206   4.995   1.941   0.945  0.7680  0.6430 -0.7751
15905TIP3    H269207   5.079   1.899   1.064  1.1020  0.8738 -0.9285
15906TIP3   OH269208   5.804   4.068  11.156  0.0737  0.0804 -0.7749
15906TIP3    H169209   5.880   4.099  11.109 -0.0778  0.3507 -0.8455
15906TIP3    H269210   5.743   4.039  11.088  0.4639 -0.9954 -0.6978
15907TIP3   OH269211   3.254   0.995   3.849  0.3811  0.2922 -0.3725
15907TIP3    H169212   3.269   1.089   3.842  1.8961  0.0509 -0.6356
15907TIP3    H269213   3.340   0.958   3.868 -0.1389 -1.0719 -0.5617
15908TIP3   OH269214   2.352   2.436   4.067 -0.4959 -0.1859 -0.5014
15908TIP3    H169215   2.334   2.499   4.137 -0.4707 -1.4758  0.7156
15908TIP3    H269216   2.438   2.461   4.033  0.7193 -1.0369  1.7208
15909TIP3   OH269217   6.738   1.048   3.481 -0.6553  0.8196 -0.0847
15909TIP3    H169218   6.768   0.960   3.458  0.4688  0.9818  0.6479
15909TIP3    H269219   6.676   1.072   3.413  0.3812  0.1660 -1.2889
15910TIP3   OH269220   2.511   2.514  11.446 -0.9515 -0.2546 -0.1094
15910TIP3    H169221   2.525   2.560  11.529 -2.3125 -0.9539  0.5517
15910TIP3    H269222   2.545   2.574  11.379  0.5260  0.1508  0.9706
15911TIP3   OH269223   6.639   2.244  12.751  0.1987  0.2015  0.1461
15911TIP3    H169224   6.639   2.190  12.830  2.8390 -0.8728 -0.4642
15911TIP3    H269225   6.566   2.210  12.699 -0.6744 -0.0343  1.4941
15912TIP3   OH269226   6.724   1.059   3.751 -0.3205 -0.4508 -0.6212
15912TIP3    H169227   6.629   1.047   3.759 -0.5450  1.0602 -0.6462
15912TIP3    H269228   6.742   1.043   3.659 -0.7739  0.4871 -0.8869
15913TIP3   OH269229   4.292   2.210   4.001 -0.2293  0.3994 -0.6316
15913TIP3    H169230   4.303   2.174   3.913 -0.8232 -1.3325 -0.0338
15913TIP3    H269231   4.245   2.292   3.987  0.4584  0.5970 -1.9820
15914TIP3   OH269232   6.136   3.665   4.757 -0.0326 -0.3721 -0.3456
15914TIP3    H169233   6.102   3.711   4.834 -1.1506 -1.7998  0.0392
15914TIP3    H269234   6.185   3.733   4.709 -2.7810  1.6470 -0.5616
15915TIP3   OH269235   1.606   4.317  17.148  0.4180 -0.0391  0.2583
15915TIP3    H169236   1.545   4.388  17.164 -0.4044 -0.0361 -2.4555
15915TIP3    H269237   1.686   4.361  17.117 -0.2885 -0.2422 -1.9925
15916TIP3   OH269238   3.592   6.641  11.946 -0.0422 -0.7194  0.4204
15916TIP3    H169239   3.539   6.610  11.873  0.3623 -0.9280  0.2079
15916TIP3    H269240   3.654   6.569  11.963  0.7468 -0.1287  0.0793
15917TIP3   OH269241   2.446   1.492   6.120 -0.2183  0.3978 -0.4455
15917TIP3    H169242   2.531   1.451   6.137  0.1021  1.0419 -0.4746
15917TIP3    H269243   2.465   1.586   6.116 -0.5282  0.4196 -2.7669
15918TIP3   OH269244   1.770   4.136  12.920 -0.0722  0.0928 -0.2089
15918TIP3    H169245   1.783   4.227  12.949 -0.9722  0.0573  0.3682
15918TIP3    H269246   1.690   4.140  12.867  0.2793 -0.2492 -0.7720
15919TIP3   OH269247   5.376   6.339   2.289 -0.1902 -0.2872 -0.2135
15919TIP3    H169248   5.354   6.381   2.205 -1.5876  1.2791  0.8530
15919TIP3    H269249   5.297   6.290   2.312 -0.4665  0.6673  0.9530
15920TIP3   OH269250   3.932   4.928  14.589 -0.1587  0.1977  0.2738
15920TIP3    H169251   4.015   4.969  14.614 -0.4402  1.1258 -0.2607
15920TIP3    H269252   3.957   4.842  14.557  1.0759  1.6316 -3.0956
15921TIP3   OH269253   4.264   6.361   6.610  0.2365 -0.2645 -0.1972
15921TIP3    H169254   4.196   6.313   6.659  0.1587  0.1465  0.1071
15921TIP3    H269255   4.325   6.293   6.581 -0.9184 -0.7776 -1.4874
15922TIP3   OH269256   2.416   5.208   5.669  0.0450  0.9287  0.7393
15922TIP3    H169257   2.394   5.129   5.619  1.5792  0.6885  0.3752
15922TIP3    H269258   2.332   5.242   5.699 -0.8520  0.5513 -1.2120
15923TIP3   OH269259   6.255   3.758   3.413  0.1625 -0.2172  0.5401
15923TIP3    H169260   6.326   3.730   3.355  0.1642  1.3411 -0.2526
15923TIP3    H269261   6.178   3.709   3.382 -0.4733  2.4629 -2.6148
15924TIP3   OH269262   1.258   4.189  13.609 -0.0756  0.7097  0.3736
15924TIP3    H169263   1.228   4.269  13.651  1.1250 -0.1191  3.0459
15924TIP3    H269264   1.278   4.130  13.682  2.1250 -0.8916 -1.3708
15925TIP3   OH269265   3.665   6.348  10.998  0.3389 -0.0130 -0.4523
15925TIP3    H169266   3.720   6.279  10.959  0.6725 -1.0433  1.6911
15925TIP3    H269267   3.708   6.429  10.973  0.3813 -0.5588 -2.3933
15926TIP3   OH269268   0.209   4.241   2.190  0.0874 -0.1880  1.1800
15926TIP3    H169269   0.147   4.172   2.168 -0.9443  0.8857  0.5556
15926TIP3    H269270   0.267   4.247   2.114 -0.7426  0.5947  0.5920
15927TIP3   OH269271   2.690   6.194   4.260 -0.1860  0.3337 -0.4034
15927TIP3    H169272   2.785   6.201   4.263  0.0530 -2.2053  0.1608
15927TIP3    H269273   2.673   6.121   4.201 -1.7402  0.1776  0.1813
15928TIP3   OH269274   4.548   4.897  11.037 -0.5119  0.4019  0.6994
15928TIP3    H169275   4.500   4.818  11.012  1.4688 -0.7270  0.3205
15928TIP3    H269276   4.602   4.918  10.961  2.3223 -0.5074  2.3310
15929TIP3   OH269277   2.189   5.434   6.298  0.1014 -0.2688  0.3123
15929TIP3    H169278   2.213   5.342   6.288  0.5965 -0.2333  1.0910
15929TIP3    H269279   2.223   5.477   6.219  1.0561 -0.5312  0.5682
15930TIP3   OH269280   6.524   3.245  11.702  0.4002  0.0917 -0.2365
15930TIP3    H169281   6.516   3.286  11.616  2.9264 -0.1634 -0.6672
15930TIP3    H269282   6.435   3.217  11.723 -0.3827  0.6218 -2.5096
15931TIP3   OH269283   6.358   2.934   4.267  0.5612  0.2709 -1.0079
15931TIP3    H169284   6.414   2.862   4.297  1.3948  1.3811  0.1957
15931TIP3    H269285   6.419   3.006   4.249 -0.5044  1.9940  1.6865
15932TIP3   OH269286   3.938   4.270   4.735  0.0086 -0.2039 -0.1839
15932TIP3    H169287   3.933   4.189   4.683 -0.3157  0.2828 -0.9264
15932TIP3    H269288   4.024   4.307   4.712  0.7901 -1.0336  1.2378
15933TIP3   OH269289   2.623   3.901   5.295  0.5903 -0.1034 -0.4508
15933TIP3    H169290   2.537   3.908   5.255  0.8611  2.7819 -0.7320
15933TIP3    H269291   2.606   3.879   5.387 -0.4567  0.6406 -0.4606
15934TIP3   OH269292   4.139   4.368   3.136 -0.3092  0.0051  0.1190
15934TIP3    H169293   4.102   4.437   3.081 -0.9934  0.3702  1.0186
15934TIP3    H269294   4.227   4.353   3.100 -0.0107  1.5788  0.1055
15935TIP3   OH269295   3.988   2.696  11.817  0.3577 -0.4384  0.6269
15935TIP3    H169296   4.023   2.642  11.747 -1.8022 -0.6159 -0.3939
15935TIP3    H269297   3.923   2.641  11.861 -0.6066  0.6993  0.6935
15936TIP3   OH269298   2.547   3.023   5.520 -0.3440  0.2890 -0.1388
15936TIP3    H169299   2.631   3.054   5.554 -0.2759  0.6940 -0.6545
15936TIP3    H269300   2.492   3.101   5.519 -0.4251  0.2253 -0.7072
15937TIP3   OH269301   5.329   2.389  15.451 -0.4575  0.0719  0.5514
15937TIP3    H169302   5.314   2.443  15.530 -1.0125  2.0100 -0.7954
15937TIP3    H269303   5.271   2.314  15.463 -0.9531  0.6070  1.7612
15938TIP3   OH269304   3.027   3.446   1.503  0.3543  1.0267  0.3314
15938TIP3    H169305   2.993   3.534   1.489 -2.0367  0.4545  2.0139
15938TIP3    H269306   2.968   3.406   1.567  3.0848 -0.8044  1.9503
15939TIP3   OH269307   2.812   1.757   3.059  0.0694 -0.0654  0.1352
15939TIP3    H169308   2.844   1.785   3.145 -1.1062 -1.0707  0.9321
15939TIP3    H269309   2.882   1.701   3.024  0.5107  0.2641  0.4741
15940TIP3   OH269310   0.918   2.886   4.228  0.0363  0.1137 -0.5319
15940TIP3    H169311   0.850   2.833   4.186  1.6256 -1.1764 -1.5955
15940TIP3    H269312   0.961   2.932   4.156  2.4597 -1.7274 -0.3746
15941TIP3   OH269313   6.415   1.857  15.048 -0.3153 -0.1388 -0.1159
15941TIP3    H169314   6.323   1.881  15.039 -1.3142 -1.6467  3.7525
15941TIP3    H269315   6.422   1.770  15.009 -0.5282 -0.0170 -0.4224
15942TIP3   OH269316   0.382   5.990   1.807 -0.2747 -0.2691  0.1342
15942TIP3    H169317   0.386   6.085   1.799 -1.0662 -0.3287 -1.2180
15942TIP3    H269318   0.460   5.959   1.761 -0.1993 -0.2973  0.2790
15943TIP3   OH269319   5.838   2.905   0.411  0.0927  1.0321 -0.4424
15943TIP3    H169320   5.877   2.979   0.456 -0.3608  0.6090  0.6688
15943TIP3    H269321   5.859   2.829   0.465 -2.9372  0.8839  0.7039
15944TIP3   OH269322   3.561   0.390  12.091  0.2298  0.2573  0.4471
15944TIP3    H169323   3.481   0.393  12.039  0.8475 -1.8502 -0.7890
15944TIP3    H269324   3.615   0.462  12.057  0.0825 -0.2612 -0.9705
15945TIP3   OH269325   5.923   3.311  11.958 -0.3387  0.5258  0.3283
15945TIP3    H169326   5.877   3.227  11.960 -1.0623  0.9040 -0.2481
15945TIP3    H269327   5.966   3.316  12.044 -2.6051  0.8479  1.5021
15946TIP3   OH269328   4.256   1.893  13.189  0.4169 -0.0703 -0.0093
15946TIP3    H169329   4.344   1.862  13.212  0.9949 -0.5052 -2.5409
15946TIP3    H269330   4.199   1.820  13.211  0.7849 -0.1134  0.8454
15947TIP3   OH269331   2.073   4.013   4.306 -0.2062 -0.8568  0.0935
15947TIP3    H169332   2.052   3.932   4.352 -1.1249 -0.4152  0.4893
15947TIP3    H269333   1.988   4.049   4.279  0.1315  0.2360  0.4057
15948TIP3   OH269334   5.777   2.166   1.525  0.0484  0.1134 -0.1734
15948TIP3    H169335   5.844   2.117   1.573  0.5637 -0.0017 -0.9961
15948TIP3    H269336   5.701   2.164   1.583  1.8042  3.5427  2.5993
15949TIP3   OH269337   0.433   4.647   2.965  0.3939 -0.5748 -0.2411
15949TIP3    H169338   0.496   4.639   2.893 -0.7522  0.5569 -1.4472
15949TIP3    H269339   0.438   4.564   3.012  1.9955 -0.9078 -0.9376
15950TIP3   OH269340   0.156   3.372  15.285 -0.2726  0.0236  0.0695
15950TIP3    H169341   0.212   3.383  15.362  0.8959 -0.2010 -0.7240
15950TIP3    H269342   0.156   3.278  15.269 -1.3433 -0.0403  0.3848
15951TIP3   OH269343   5.344   4.982   0.160 -0.1654  0.5310 -0.3736
15951TIP3    H169344   5.416   5.041   0.181 -0.7109 -0.2132  4.9515
15951TIP3    H269345   5.271   5.040   0.139  0.6311  1.4762 -0.6345
15952TIP3   OH269346   3.920   1.659   1.932 -0.1411 -0.2265 -0.0096
15952TIP3    H169347   3.875   1.716   1.870 -0.0593 -1.5302 -1.3162
15952TIP3    H269348   3.856   1.592   1.955  0.8651 -1.7387 -1.4041
15953TIP3   OH269349   4.799   3.318   3.903 -0.0478 -0.1803 -0.7937
15953TIP3    H169350   4.893   3.326   3.920 -0.3496 -0.5318  1.4263
15953TIP3    H269351   4.760   3.393   3.948 -0.9298 -0.7911 -0.5065
15954TIP3   OH269352   6.275   4.119  16.572  0.2658  0.1558  0.4050
15954TIP3    H169353   6.240   4.031  16.588 -0.2092  0.4275  0.9149
15954TIP3    H269354   6.302   4.118  16.480  2.3492 -1.2156  0.9698
15955TIP3   OH269355   6.381   2.982  16.319 -0.4120 -0.8680  0.3912
15955TIP3    H169356   6.316   2.943  16.377 -0.2507 -0.6648  0.7128
15955TIP3    H269357   6.456   2.999  16.376  0.2257 -1.8310 -0.1307
15956TIP3   OH269358   5.077   0.294  12.679  0.1413 -0.0810  0.4937
15956TIP3    H169359   5.066   0.355  12.753 -2.0362  0.8194 -0.4718
15956TIP3    H269360   5.080   0.350  12.602  0.0940 -1.1158 -0.2779
15957TIP3   OH269361   1.463   4.486  12.888 -0.4705  0.1167 -0.2381
15957TIP3    H169362   1.441   4.461  12.798  3.2467 -0.8365 -1.0600
15957TIP3    H269363   1.484   4.579  12.882 -0.1346  0.0326 -0.3827
15958TIP3   OH269364   2.305   2.389  12.618 -1.0473 -0.6146  0.3211
15958TIP3    H169365   2.260   2.391  12.703 -0.7245 -2.0072  0.5399
15958TIP3    H269366   2.289   2.301  12.584 -2.0241  0.2287 -1.5500
15959TIP3   OH269367   1.558   1.062  14.001 -0.4164 -0.0991  0.1506
15959TIP3    H169368   1.485   1.029  14.054  0.6305  0.2058  1.8447
15959TIP3    H269369   1.631   1.068  14.062  1.1045 -0.5854 -1.5536
15960TIP3   OH269370   3.217   2.548  14.529 -0.4411  0.0767 -0.0172
15960TIP3    H169371   3.243   2.639  14.514 -1.2957  0.0139 -2.2179
15960TIP3    H269372   3.292   2.496  14.498 -0.2591 -0.0081  0.5415
15961TIP3   OH269373   4.445   0.954   1.766 -0.0399  0.0237 -0.0019
15961TIP3    H169374   4.439   0.942   1.861  1.7616  0.0980  0.1565
15961TIP3    H269375   4.528   0.913   1.742 -0.2485  0.4198 -1.4824
15962TIP3   OH269376   5.326   0.706  15.041  0.2748  0.3680  0.3516
15962TIP3    H169377   5.417   0.689  15.017 -0.7016 -1.0845 -2.9103
15962TIP3    H269378   5.312   0.655  15.121  2.2051  0.3674  0.7367
15963TIP3   OH269379   0.689   5.491  15.498 -0.2773  0.0625  0.1895
15963TIP3    H169380   0.780   5.487  15.527 -0.1621 -2.6205 -0.2809
15963TIP3    H269381   0.672   5.584  15.485  2.2425  0.6763  0.7471
15964TIP3   OH269382   0.159   3.660  10.934  0.5249  0.3196  0.3485
15964TIP3    H169383   0.218   3.635  10.863 -1.7619 -0.6707 -1.3232
15964TIP3    H269384   0.105   3.730  10.897  0.6181  1.2356  1.8478
15965TIP3   OH269385   5.039   4.301   2.008  0.0209 -0.1262 -0.1034
15965TIP3    H169386   5.059   4.241   1.936  1.2492  1.2299 -0.9702
15965TIP3    H269387   5.044   4.247   2.086  0.4729 -1.2799 -0.8970
15966TIP3   OH269388   6.730   6.198  14.156  0.1876  0.1587  0.1385
15966TIP3    H169389   6.775   6.187  14.072  0.5168  1.8465  0.0661
15966TIP3    H269390   6.674   6.274  14.143  0.0053  0.2482  1.3669
15967TIP3   OH269391   5.421   0.699  16.821 -0.0788  0.3702 -0.0226
15967TIP3    H169392   5.477   0.718  16.746 -0.5422  0.2897 -0.3911
15967TIP3    H269393   5.447   0.764  16.887 -0.1461  0.8909 -0.4967
15968TIP3   OH269394   6.036   3.338  12.218  0.5396 -0.6270 -0.2519
15968TIP3    H169395   6.024   3.244  12.236  0.8929 -0.4845  0.8024
15968TIP3    H269396   5.967   3.381  12.270  0.1115 -0.3185 -1.0616
15969TIP3   OH269397   3.723   3.662   1.453 -0.5912  0.2211  0.1772
15969TIP3    H169398   3.753   3.737   1.505 -0.4034 -0.4952  1.1319
15969TIP3    H269399   3.662   3.700   1.389  0.9863  1.4654 -0.6660
15970TIP3   OH269400   2.396   5.349   4.277 -0.4792 -0.5037  0.8610
15970TIP3    H169401   2.300   5.354   4.272 -0.4010 -0.1892 -1.8985
15970TIP3    H269402   2.426   5.405   4.206  1.6995 -2.4906  0.1173
15971TIP3   OH269403   1.518   1.915   4.792 -0.0898  0.5435 -0.2107
15971TIP3    H169404   1.571   1.931   4.714 -1.6858  2.6825 -0.9456
15971TIP3    H269405   1.445   1.861   4.762  0.1571 -0.0146  0.1748
15972TIP3   OH269406   5.858   6.610   1.776  0.2031  0.0483  0.2675
15972TIP3    H169407   5.789   6.672   1.751  1.7443  2.1367  0.9111
15972TIP3    H269408   5.939   6.653   1.750  1.4426 -0.8322  2.4518
15973TIP3   OH269409   1.693   6.067   4.604 -0.1172  0.0180  0.2985
15973TIP3    H169410   1.649   6.143   4.641  1.8406  0.5138  1.7418
15973TIP3    H269411   1.682   5.998   4.669  1.3700  0.2280  0.8213
15974TIP3   OH269412   6.379   4.622  11.677  0.6593 -0.5244 -0.3417
15974TIP3    H169413   6.472   4.644  11.673  1.2408 -2.8273 -0.8367
15974TIP3    H269414   6.368   4.550  11.614 -1.8313  0.8291 -1.6250
15975TIP3   OH269415   2.306   1.535   5.534 -0.3525  0.0860  0.6164
15975TIP3    H169416   2.305   1.569   5.624 -0.8368  0.8335  0.3375
15975TIP3    H269417   2.327   1.611   5.480  0.2285 -0.4232  0.1139
15976TIP3   OH269418   5.621   1.545   0.766 -0.0258 -0.1393  0.6127
15976TIP3    H169419   5.603   1.528   0.859  0.5429 -1.8551  0.4513
15976TIP3    H269420   5.696   1.604   0.767 -0.2327  0.1222  1.2444
15977TIP3   OH269421   1.373   6.638   3.735 -0.4141 -0.1803 -0.0240
15977TIP3    H169422   1.381   6.560   3.680  0.3507 -0.0779 -0.0690
15977TIP3    H269423   1.316   6.611   3.807  0.0477 -0.8570  0.0975
15978TIP3   OH269424   4.911   6.077  12.233 -0.1609  0.3059 -0.3077
15978TIP3    H169425   4.874   6.006  12.286  0.0098 -0.5054 -1.2423
15978TIP3    H269426   4.999   6.090  12.269 -0.7088  1.0801  0.8208
15979TIP3   OH269427   0.249   3.512   1.267  0.0971  0.5882  0.0061
15979TIP3    H169428   0.218   3.460   1.341 -1.0472 -0.4494 -1.1496
15979TIP3    H269429   0.267   3.447   1.199  0.4173  1.5740 -0.8699
15980TIP3   OH269430   0.378   6.071  15.190 -0.1490  0.6296  0.5913
15980TIP3    H169431   0.348   5.984  15.217 -0.3651  0.9809  1.5079
15980TIP3    H269432   0.407   6.113  15.271  0.6289  1.1588  0.0574
15981TIP3   OH269433   6.511   3.002  12.407 -0.1200  0.2250 -0.3774
15981TIP3    H169434   6.561   3.061  12.463  0.5415 -0.3198 -0.3755
15981TIP3    H269435   6.491   3.053  12.329  1.3391  0.1368 -0.8212
15982TIP3   OH269436   0.936   5.304   4.361 -0.1615  0.1135  0.1199
15982TIP3    H169437   0.980   5.345   4.287  0.4204 -0.5468  0.0895
15982TIP3    H269438   0.845   5.331   4.352 -0.6107 -1.7077 -2.1588
15983TIP3   OH269439   4.089   4.092   4.943  0.4141  0.0785  0.0227
15983TIP3    H169440   4.166   4.095   4.998  0.0057 -2.5403  0.8830
15983TIP3    H269441   4.027   4.153   4.983  0.4158 -1.1910  2.0660
15984TIP3   OH269442   3.407   1.430   2.317  0.4354 -0.0929 -0.0813
15984TIP3    H169443   3.409   1.507   2.261 -0.3207 -0.1652 -0.2196
15984TIP3    H269444   3.350   1.369   2.272  0.0798 -0.2753  0.6034
15985TIP3   OH269445   4.426   6.103   4.964 -0.4546 -0.7461 -0.0014
15985TIP3    H169446   4.495   6.063   4.911 -1.2862 -0.3236 -1.4522
15985TIP3    H269447   4.469   6.178   5.006 -0.4475  0.7720 -2.5166
15986TIP3   OH269448   5.714   1.035  15.996 -0.2248 -0.2515  0.3279
15986TIP3    H169449   5.774   1.072  15.931  2.3705  0.6236  3.0051
15986TIP3    H269450   5.759   1.047  16.080 -4.1090  0.3308  2.5899
15987TIP3   OH269451   6.682   1.813  11.326 -0.7573  0.0011 -0.2177
15987TIP3    H169452   6.656   1.895  11.367  1.0083 -0.4083  1.8801
15987TIP3    H269453   6.777   1.816  11.323 -0.6617 -1.7931 -0.4794
15988TIP3   OH269454   5.038   4.611  13.832 -0.4072 -0.3167  0.0450
15988TIP3    H169455   4.961   4.645  13.876 -0.7176 -0.9814  0.0228
15988TIP3    H269456   5.006   4.537  13.781 -0.1606  0.7298 -1.7217
15989TIP3   OH269457   5.962   5.914  11.977 -0.2162 -0.1851 -0.2080
15989TIP3    H169458   5.895   5.862  12.021 -0.7325  1.8957  1.6599
15989TIP3    H269459   5.912   5.981  11.930  0.4494  1.7590  1.6932
15990TIP3   OH269460   1.379   5.330   1.074  0.1447 -0.1601 -0.5096
15990TIP3    H169461   1.398   5.301   1.163  2.1168  0.2636 -0.7558
15990TIP3    H269462   1.388   5.251   1.021  0.1239 -0.1805 -0.4833
15991TIP3   OH269463   6.184   6.433  14.929  0.2659 -0.4484 -0.0306
15991TIP3    H169464   6.254   6.485  14.890  1.8491 -0.7753  2.1976
15991TIP3    H269465   6.202   6.343  14.900 -0.1027 -0.3503 -0.5955
15992TIP3   OH269466   6.819   3.884  16.801 -0.2106 -0.1458 -0.3160
15992TIP3    H169467   6.911   3.895  16.776 -0.6133  1.2156 -1.3261
15992TIP3    H269468   6.793   3.801  16.761  0.2815  0.0027 -0.9519
15993TIP3   OH269469   5.776   3.552  12.745  0.2782 -0.6931  0.3445
15993TIP3    H169470   5.768   3.606  12.667 -0.4820 -0.3961  0.6153
15993TIP3    H269471   5.728   3.472  12.725  0.0281 -0.5905  0.5316
15994TIP3   OH269472   0.045   5.698  11.778 -0.0773  0.1166  0.7339
15994TIP3    H169473   0.089   5.700  11.863 -1.9397 -0.6337  1.7982
15994TIP3    H269474  -0.014   5.773  11.779 -0.4448 -0.1555  0.3162
15995TIP3   OH269475   4.659   3.601   5.425 -0.1226  0.7209 -0.3261
15995TIP3    H169476   4.719   3.676   5.425 -0.7647  1.3476  2.6204
15995TIP3    H269477   4.593   3.623   5.358  1.0035  1.6287 -1.1701
15996TIP3   OH269478   1.071   2.156   1.094  0.5116  0.2679 -0.1026
15996TIP3    H169479   1.144   2.113   1.049 -0.1247 -0.6377 -0.2895
15996TIP3    H269480   1.113   2.221   1.150  1.5787 -1.1518  0.8235
15997TIP3   OH269481   1.947   1.343  14.937 -0.1087  0.0870 -0.3281
15997TIP3    H169482   1.920   1.281  15.005  0.8392 -1.3478 -1.1881
15997TIP3    H269483   2.006   1.292  14.881 -0.8238  1.2184 -2.2069
15998TIP3   OH269484   1.055   0.935  15.186  0.2134 -0.4700 -0.4497
15998TIP3    H169485   1.120   0.871  15.214  1.0658  0.1058 -1.0563
15998TIP3    H269486   1.047   0.995  15.260 -0.6287 -1.2833  0.1404
15999TIP3   OH269487   5.442   5.231  13.740  0.0939  0.8231 -0.5598
15999TIP3    H169488   5.493   5.193  13.812 -0.5344 -0.1976 -0.6317
15999TIP3    H269489   5.455   5.326  13.749  0.3154  0.6947  0.6812
16000TIP3   OH269490   2.783   4.321   1.870 -0.0251  0.0464  0.0746
16000TIP3    H169491   2.836   4.360   1.940 -0.3059 -1.1961  1.0116
16000TIP3    H269492   2.812   4.366   1.791  2.5887 -0.6979  0.5103
16001TIP3   OH269493   6.558   0.333  15.959  0.3643  0.8154 -0.1994
16001TIP3    H169494   6.490   0.275  15.923  1.5521 -0.1281 -0.9938
16001TIP3    H269495   6.566   0.404  15.896  1.9456 -0.4680 -1.5315
16002TIP3   OH269496   6.555   1.203   2.968 -0.5175  0.1579 -0.2004
16002TIP3    H169497   6.644   1.187   3.000 -0.7648 -1.2415 -0.1331
16002TIP3    H269498   6.534   1.292   2.997  0.6575  0.3020  0.2442
16003TIP3   OH269499   0.844   0.054   5.069 -0.2291 -0.1558 -0.3112
16003TIP3    H169500   0.806  -0.013   5.012 -0.6044  0.9548 -1.4151
16003TIP3    H269501   0.769   0.093   5.113  0.1530 -2.0607  2.2647
16004TIP3   OH269502   5.956   4.443  15.402 -0.2870  0.0886  0.2550
16004TIP3    H169503   6.030   4.384  15.386 -1.0668 -0.8485  0.0283
16004TIP3    H269504   5.932   4.476  15.315 -0.6985 -0.3084  0.2149
16005TIP3   OH269505   4.404   6.809  12.306  0.4233  0.0615 -0.0234
16005TIP3    H169506   4.318   6.789  12.342  0.9748 -0.7080  0.9394
16005TIP3    H269507   4.416   6.748  12.234 -0.9463  2.0173 -2.0647
16006TIP3   OH269508   3.163   6.149   0.456  0.8296 -0.2857 -0.4076
16006TIP3    H169509   3.080   6.102   0.452  0.9340 -0.5301  0.1782
16006TIP3    H269510   3.208   6.112   0.533  1.0854  0.4889 -0.1767
16007TIP3   OH269511   2.262   5.105  11.695  0.2650  0.2463 -0.1912
16007TIP3    H169512   2.258   5.047  11.771  1.6510  0.3596 -0.0173
16007TIP3    H269513   2.354   5.130  11.688  0.7205 -1.7521 -3.3662
16008TIP3   OH269514   1.593   3.394   3.264 -0.6793 -0.1840  0.2035
16008TIP3    H169515   1.575   3.429   3.176 -0.9755  0.8873  0.6776
16008TIP3    H269516   1.682   3.422   3.283 -1.0521  0.6689  0.7408
16009TIP3   OH269517   6.784   1.802  14.262 -0.1769 -0.0852  0.8660
16009TIP3    H169518   6.769   1.894  14.242 -0.3192 -0.1165  0.8253
16009TIP3    H269519   6.879   1.794  14.269  0.1693 -0.6017 -2.4939
16010TIP3   OH269520   4.212   2.967  15.318 -0.1402  0.3108 -0.0807
16010TIP3    H169521   4.250   2.891  15.360  1.2350  1.6157  1.1798
16010TIP3    H269522   4.122   2.972  15.352  0.1577 -0.0607  0.7749
16011TIP3   OH269523   0.757   4.118  13.596  0.4434 -0.2106 -0.1514
16011TIP3    H169524   0.778   4.100  13.504  0.8935  0.6151 -0.2129
16011TIP3    H269525   0.805   4.197  13.617  0.0542 -0.1899  0.7006
16012TIP3   OH269526   1.292   2.061   0.405  0.4139 -0.5034 -0.4204
16012TIP3    H169527   1.357   2.022   0.463 -0.3495 -0.3424  0.5721
16012TIP3    H269528   1.273   1.992   0.341  0.0286 -1.3106  0.5437
16013TIP3   OH269529   3.680   0.159   5.307  0.2419  0.2054 -0.0338
16013TIP3    H169530   3.638   0.177   5.223  0.4795  0.3046 -0.1319
16013TIP3    H269531   3.769   0.132   5.284  0.0276 -0.6843  0.1284
16014TIP3   OH269532   5.748   0.303  14.853 -0.5900  0.3286 -0.3613
16014TIP3    H169533   5.743   0.258  14.938 -1.8269  0.2121 -0.4791
16014TIP3    H269534   5.836   0.283  14.821  0.3519  1.3982  1.4416
16015TIP3   OH269535   0.932   3.540   5.589  0.5500 -0.2312 -0.1852
16015TIP3    H169536   0.870   3.535   5.516 -0.2023  2.6552  0.1373
16015TIP3    H269537   0.912   3.463   5.643 -2.9913  0.6882  0.0421
16016TIP3   OH269538   6.465   0.991   6.463 -0.1586 -0.6610 -0.1121
16016TIP3    H169539   6.383   0.942   6.469 -0.0512 -0.8956 -0.5382
16016TIP3    H269540   6.527   0.930   6.423  0.6414 -0.9961  1.5749
16017TIP3   OH269541   0.043   3.621  12.947 -0.4959 -0.3542 -0.3077
16017TIP3    H169542   0.022   3.714  12.937  0.3026 -0.1397 -0.0267
16017TIP3    H269543   0.130   3.611  12.909 -0.9637 -1.1790 -1.1962
16018TIP3   OH269544   2.322   3.698   5.959 -0.1969  0.1947  0.0551
16018TIP3    H169545   2.407   3.664   5.986  0.2636  0.6589 -0.7709
16018TIP3    H269546   2.271   3.704   6.041  0.6115  0.0789  0.5759
16019TIP3   OH269547   5.176   4.503   5.356  0.0223  0.0427  0.3294
16019TIP3    H169548   5.215   4.452   5.285 -0.9015 -1.3595  0.8040
16019TIP3    H269549   5.131   4.439   5.411 -0.1580  1.2219  1.6249
16020TIP3   OH269550   3.809   3.449   0.264 -0.2026 -0.2231 -0.1745
16020TIP3    H169551   3.817   3.498   0.346  0.0915 -0.6587  0.0615
16020TIP3    H269552   3.817   3.516   0.196 -0.2981  0.1235  0.1469
16021TIP3   OH269553   2.155   0.194   1.755  0.1045  0.5150  0.7746
16021TIP3    H169554   2.072   0.147   1.750 -0.8192  2.1694 -0.4689
16021TIP3    H269555   2.130   0.287   1.748  2.1588  0.9898 -1.5234
16022TIP3   OH269556   6.523   4.198   0.381  0.5095 -0.1759  0.2902
16022TIP3    H169557   6.592   4.139   0.410  1.2616  0.1284 -0.8165
16022TIP3    H269558   6.522   4.268   0.446  0.9052 -0.4367  0.5811
16023TIP3   OH269559   1.863   5.805   5.869 -0.2281 -0.3895 -0.2633
16023TIP3    H169560   1.843   5.715   5.844 -0.7862  0.0970 -1.6901
16023TIP3    H269561   1.876   5.802   5.964 -0.6175 -1.8990 -0.2413
16024TIP3   OH269562   5.062   6.537  16.974 -0.6493 -0.4096  0.4091
16024TIP3    H169563   5.029   6.489  17.050  0.5690 -1.2862  0.4047
16024TIP3    H269564   5.030   6.487  16.899 -2.4457  0.8399  0.2776
16025TIP3   OH269565   2.373   6.827  14.365  0.1230 -0.4954 -0.4341
16025TIP3    H169566   2.416   6.873  14.294  1.5953 -1.5538 -0.2579
16025TIP3    H269567   2.374   6.735  14.339 -2.0158 -0.5992 -0.3956
16026TIP3   OH269568   0.002   3.554   1.002  0.1510  0.2193 -0.3357
16026TIP3    H169569   0.060   3.478   1.010  1.6362  1.2700 -0.5556
16026TIP3    H269570  -0.041   3.542   0.917 -0.5802 -0.9828  0.1853
16027TIP3   OH269571   5.539   2.237   0.148 -0.1202  0.0734 -0.1770
16027TIP3    H169572   5.511   2.246   0.239 -1.0130  1.6125 -0.5795
16027TIP3    H269573   5.537   2.326   0.113 -0.3910 -0.5692 -1.8783
16028TIP3   OH269574   4.502   2.626   2.766 -0.2074 -0.2256 -0.6236
16028TIP3    H169575   4.433   2.641   2.701  1.4013  3.6248 -1.7158
16028TIP3    H269576   4.466   2.659   2.848 -0.1810  0.5349 -0.9084
16029TIP3   OH269577   5.137   5.526   1.154  0.7104  0.4799  0.5877
16029TIP3    H169578   5.183   5.484   1.226 -0.6035 -1.2227  0.5074
16029TIP3    H269579   5.083   5.594   1.196  1.7717  1.1640  0.8884
16030TIP3   OH269580   6.195   1.904   4.490 -0.1033 -0.7677 -0.2388
16030TIP3    H169581   6.147   1.948   4.560 -0.2555 -3.4687  1.5053
16030TIP3    H269582   6.132   1.896   4.419 -0.1761  1.3671 -0.4778
16031TIP3   OH269583   4.993   6.068   5.339 -0.3117  0.2110  0.4015
16031TIP3    H169584   5.045   6.140   5.375  0.1636 -0.6416  1.4912
16031TIP3    H269585   5.054   5.994   5.335 -0.6637 -0.0187 -1.1403
16032TIP3   OH269586   1.650   5.467  12.311 -0.1812  0.0013 -0.4559
16032TIP3    H169587   1.622   5.510  12.392  1.9274 -0.5636  0.6187
16032TIP3    H269588   1.568   5.452  12.264 -1.6513 -0.9119  2.1684
16033TIP3   OH269589   6.484   4.220   5.519 -0.1982  1.0076 -0.4180
16033TIP3    H169590   6.456   4.131   5.501 -0.2414  1.0582 -0.6135
16033TIP3    H269591   6.481   4.263   5.433  0.0086  1.1433 -0.3571
16034TIP3   OH269592   0.839   6.539   5.132 -0.1182  0.3636  0.2961
16034TIP3    H169593   0.895   6.544   5.210  0.7527 -0.3212 -0.2722
16034TIP3    H269594   0.865   6.614   5.079  0.9717 -0.4803 -0.4091
16035TIP3   OH269595   6.796   5.369   1.174 -0.3000 -0.3015  0.5681
16035TIP3    H169596   6.752   5.376   1.259 -0.3445  0.7639  0.4782
16035TIP3    H269597   6.725   5.381   1.110 -0.2277 -0.8380  0.3877
16036TIP3   OH269598   2.103   5.839   2.800  0.1866  0.6072  0.6429
16036TIP3    H169599   2.184   5.883   2.827  2.2665 -1.2121 -2.0757
16036TIP3    H269600   2.060   5.902   2.742  1.0854  0.6176 -0.0387
16037TIP3   OH269601   1.320   1.715  10.762  0.6662  0.2695  0.0170
16037TIP3    H169602   1.383   1.759  10.706  0.5596 -0.4408 -0.6715
16037TIP3    H269603   1.250   1.778  10.774  1.1820  0.8146  0.2354
16038TIP3   OH269604   6.300   6.748   5.346 -0.2603 -0.3535  0.0105
16038TIP3    H169605   6.264   6.678   5.401  0.3277  0.1786  1.0896
16038TIP3    H269606   6.381   6.711   5.311  0.4511  0.0335  1.1964
16039TIP3   OH269607   6.251   5.386  16.003  0.2508  0.5403 -0.0789
16039TIP3    H169608   6.190   5.335  15.949 -0.5750  1.5148 -0.1039
16039TIP3    H269609   6.280   5.457  15.946  0.4117  0.8144  0.3392
16040TIP3   OH269610   3.658   6.540  13.543 -0.2155 -1.0007  0.3436
16040TIP3    H169611   3.704   6.461  13.571  0.2965 -0.1625  2.0072
16040TIP3    H269612   3.637   6.525  13.451 -0.7562 -3.3565  0.7913
16041TIP3   OH269613   5.240   0.466  12.863 -0.5982  0.5398 -0.2151
16041TIP3    H169614   5.188   0.463  12.944  1.6879  1.3572  1.3803
16041TIP3    H269615   5.239   0.559  12.838 -1.4639  0.2580 -1.2773
16042TIP3   OH269616   0.166   0.081   6.765  0.2302 -0.1206 -0.2567
16042TIP3    H169617   0.084   0.031   6.776  1.1535 -1.4069  1.1785
16042TIP3    H269618   0.211   0.037   6.693 -0.3223  0.5982 -1.0588
16043TIP3   OH269619   1.847   1.774  12.956 -0.1489  0.4541 -0.0205
16043TIP3    H169620   1.796   1.740  12.882  0.3333 -0.2930 -0.0237
16043TIP3    H269621   1.912   1.706  12.972  0.0486  0.8320  0.7897
16044TIP3   OH269622   5.926   4.496  12.351 -0.1622 -0.0555  0.1521
16044TIP3    H169623   5.929   4.425  12.287 -1.2644  0.0186 -0.0096
16044TIP3    H269624   5.933   4.453  12.436  1.7207 -0.1238  0.0100
16045TIP3   OH269625   4.067   2.989  11.485  0.2267  0.1470  0.3057
16045TIP3    H169626   4.010   2.965  11.558 -1.4058 -0.5285 -1.1248
16045TIP3    H269627   4.149   2.942  11.502  1.0133  2.2176  3.1326
16046TIP3   OH269628   0.140   5.796   1.095  0.0080 -0.2480  0.6107
16046TIP3    H169629   0.104   5.883   1.077  1.7306  0.7629  1.7311
16046TIP3    H269630   0.089   5.737   1.041 -0.4507  1.6044 -1.0913
16047TIP3   OH269631   5.599   0.818  16.148  0.4439 -0.7557  0.2155
16047TIP3    H169632   5.598   0.762  16.070  1.3450  1.4786 -1.5076
16047TIP3    H269633   5.653   0.893  16.123 -0.7823  0.9632  2.3661
16048TIP3   OH269634   1.210   3.786  11.073  0.7980  0.1579 -0.4980
16048TIP3    H169635   1.211   3.841  11.151  1.3832  2.5868 -2.1075
16048TIP3    H269636   1.249   3.840  11.004  0.3582 -1.8766 -2.4940
16049TIP3   OH269637   0.639   0.810   5.874  0.6040  0.1111  0.0256
16049TIP3    H169638   0.632   0.856   5.790 -0.0687  1.9309  1.0246
16049TIP3    H269639   0.676   0.875   5.933 -1.3750 -0.2595  1.7716
16050TIP3   OH269640   1.293   3.034   5.598 -0.2227  0.2475  0.1523
16050TIP3    H169641   1.371   3.089   5.602 -0.4360  0.5644 -0.0168
16050TIP3    H269642   1.327   2.945   5.591  0.1354  0.2628  1.4115
16051TIP3   OH269643   2.649   3.865  11.854  0.5266 -0.4773  0.8999
16051TIP3    H169644   2.643   3.900  11.943 -0.0608  1.3372  0.1816
16051TIP3    H269645   2.743   3.859  11.837  0.6433  0.2704  1.2455
16052TIP3   OH269646   4.902   4.696  12.766 -0.8982  0.4387 -0.2798
16052TIP3    H169647   4.887   4.606  12.738 -1.6754  0.9753 -1.6663
16052TIP3    H269648   4.961   4.688  12.840 -0.7458 -1.2012 -0.5420
16053TIP3   OH269649   5.729   1.096  11.425 -0.2733 -0.0090  0.3079
16053TIP3    H169650   5.718   1.069  11.334 -0.4030 -0.4610  0.4579
16053TIP3    H269651   5.641   1.089  11.463 -0.6837  2.1914 -0.0605
16054TIP3   OH269652   6.800   0.603  13.721 -0.2676  0.5069 -0.3248
16054TIP3    H169653   6.837   0.589  13.634 -0.5739  0.6552 -0.4819
16054TIP3    H269654   6.874   0.630  13.775  0.3079 -1.3854 -0.0783
16055TIP3   OH269655   5.136   4.953   2.621  0.2084  0.4429  0.2484
16055TIP3    H169656   5.109   4.991   2.704  0.9096 -1.5037  1.4222
16055TIP3    H269657   5.179   5.024   2.575  1.3309  1.1446  2.2798
16056TIP3   OH269658   4.744   2.353  11.914  0.0218  0.2817 -0.2924
16056TIP3    H169659   4.792   2.285  11.961 -0.4572  0.8147  1.0325
16056TIP3    H269660   4.660   2.312  11.893  0.2203  0.0547 -0.6537
16057TIP3   OH269661   5.769   5.803  14.051  0.1711 -0.0255 -0.0570
16057TIP3    H169662   5.851   5.763  14.024 -0.2569 -0.2411 -1.0948
16057TIP3    H269663   5.755   5.874  13.989 -0.1791  0.3211  0.4106
16058TIP3   OH269664   4.940   2.448  12.847  0.0804 -0.4146 -0.0235
16058TIP3    H169665   5.013   2.471  12.905  0.1659 -2.4577  0.7395
16058TIP3    H269666   4.981   2.414  12.768 -0.0566  1.2352 -0.8465
16059TIP3   OH269667   6.389   0.246  14.235  0.4623 -0.6394 -0.4460
16059TIP3    H169668   6.404   0.239  14.329 -2.1211  0.9612  0.1852
16059TIP3    H269669   6.410   0.160  14.200 -0.3519 -1.8704  1.9092
16060TIP3   OH269670   4.320   1.693  11.346  0.1327  0.2026  0.1381
16060TIP3    H169671   4.351   1.663  11.261 -0.7273  0.7974 -0.4067
16060TIP3    H269672   4.241   1.642  11.362  0.3958 -0.0405  0.6700
16061TIP3   OH269673   2.441   4.922  12.951 -0.5099  0.0863 -0.3679
16061TIP3    H169674   2.467   4.848  13.007  0.1366  0.6773  0.1345
16061TIP3    H269675   2.522   4.970  12.937 -1.1125  1.2870  0.1813
16062TIP3   OH269676   5.621   5.663  12.957 -1.1245 -0.9199  0.0346
16062TIP3    H169677   5.632   5.601  12.885  0.3481 -1.3832  0.6392
16062TIP3    H269678   5.694   5.645  13.016 -0.0247  2.0959 -0.2767
16063TIP3   OH269679   2.798   5.815  11.975 -0.1096  0.2289  0.5044
16063TIP3    H169680   2.817   5.748  12.041 -0.8355 -1.6323 -1.0679
16063TIP3    H269681   2.803   5.898  12.022  0.5597 -0.9440  2.6083
16064TIP3   OH269682   3.004   3.450  14.718  0.3167  0.0845 -0.3640
16064TIP3    H169683   3.051   3.367  14.716  1.4886  0.7166  0.0854
16064TIP3    H269684   3.042   3.502  14.648  1.5337  1.2313  1.0686
16065TIP3   OH269685   4.734   5.336   2.966  0.0182 -0.0692  0.4091
16065TIP3    H169686   4.713   5.245   2.947  2.2219 -0.1777 -2.0771
16065TIP3    H269687   4.683   5.386   2.902  2.4385  0.0052 -1.6488
16066TIP3   OH269688   4.525   4.893  13.320 -0.3511 -0.8853  0.0377
16066TIP3    H169689   4.538   4.949  13.396  2.0274 -0.0908 -0.8878
16066TIP3    H269690   4.508   4.953  13.248 -0.6383 -1.5199 -0.4350
16067TIP3   OH269691   1.308   2.628   5.835  0.5632  0.3980  0.2608
16067TIP3    H169692   1.283   2.654   5.746  1.3367 -0.0172 -0.0925
16067TIP3    H269693   1.239   2.567   5.863  0.0749  0.8807  0.1299
16068TIP3   OH269694   0.699   0.381   0.770  0.5264  0.4782  0.7530
16068TIP3    H169695   0.744   0.305   0.807 -1.4662 -0.7015  0.9320
16068TIP3    H269696   0.749   0.457   0.801  1.6610 -0.6927  1.8899
16069TIP3   OH269697   0.250   2.997  13.761 -0.2417 -0.2990  0.6593
16069TIP3    H169698   0.213   3.015  13.848 -0.6016  1.8888  0.0939
16069TIP3    H269699   0.300   3.075  13.740 -0.1525 -0.8086 -1.1063
16070TIP3   OH269700   0.562   6.108  13.101 -0.0320  0.4251  0.0241
16070TIP3    H169701   0.486   6.061  13.137 -0.6168  0.0253 -1.6733
16070TIP3    H269702   0.619   6.039  13.067 -1.0921  0.8539 -2.8742
16071TIP3   OH269703   5.147   1.437   5.067  0.1108  0.2197 -0.3762
16071TIP3    H169704   5.145   1.523   5.108  0.1343 -0.5182  1.2280
16071TIP3    H269705   5.188   1.380   5.132 -0.2193 -1.0788 -1.2680
16072TIP3   OH269706   6.626   5.530  15.390 -0.3359  0.5662 -0.0354
16072TIP3    H169707   6.586   5.461  15.444 -2.4390  0.6538 -1.3498
16072TIP3    H269708   6.557   5.595  15.380  0.1864  0.8438 -2.2717
16073TIP3   OH269709   0.681   4.991   6.090 -0.5411  0.0340 -0.3916
16073TIP3    H169710   0.718   4.927   6.150  0.5667 -0.6263 -1.7265
16073TIP3    H269711   0.588   4.970   6.086 -0.1721 -1.6529 -0.9413
16074TIP3   OH269712   5.212   2.387   4.320 -0.2777  0.5120  0.0876
16074TIP3    H169713   5.301   2.353   4.315 -0.4561 -0.1635  1.1682
16074TIP3    H269714   5.157   2.316   4.285 -0.5890 -0.1114  1.7274
16075TIP3   OH269715   3.658   4.823  14.175  0.2037  0.1399 -0.3187
16075TIP3    H169716   3.578   4.825  14.123  0.4738  1.3348 -0.7283
16075TIP3    H269717   3.639   4.880  14.250  1.3168  2.1175 -1.4595
16076TIP3   OH269718   0.989   1.104  16.809  0.0119  0.0673  0.0979
16076TIP3    H169719   1.004   1.141  16.723 -2.2334  2.3967  0.5889
16076TIP3    H269720   0.913   1.047  16.798  1.0537 -1.3762  0.1483
16077TIP3   OH269721   6.271   4.537   6.330  0.1446  0.3084  0.0032
16077TIP3    H169722   6.341   4.603   6.331  0.0830  0.5713 -3.3928
16077TIP3    H269723   6.318   4.454   6.335  0.3092  0.4571  2.6306
16078TIP3   OH269724   5.063   1.584   0.609 -0.2208  0.1381  0.1717
16078TIP3    H169725   4.994   1.522   0.635  1.5463 -1.1084  2.3054
16078TIP3    H269726   5.125   1.581   0.682  0.7379  3.3052 -0.3821
16079TIP3   OH269727   2.105   5.022   3.542 -0.1818 -0.4138  0.0146
16079TIP3    H169728   2.088   5.059   3.629 -0.5363 -0.1246 -0.1738
16079TIP3    H269729   2.086   4.929   3.552 -0.2979 -0.3685  0.2261
16080TIP3   OH269730   1.626   6.801   3.106 -0.4231  0.2517  0.3674
16080TIP3    H169731   1.666   6.734   3.051 -0.8343  0.4436 -0.1757
16080TIP3    H269732   1.532   6.793   3.088 -0.4536  1.1369  0.1068
16081TIP3   OH269733   2.089   4.265   2.379  0.4641  0.1171 -0.0863
16081TIP3    H169734   2.152   4.208   2.423  1.5837 -0.0639 -1.8119
16081TIP3    H269735   2.107   4.352   2.413 -1.5439 -0.5025  2.9004
16082TIP3   OH269736   6.820   4.249  16.694  0.4761 -0.0578 -0.2178
16082TIP3    H169737   6.764   4.225  16.620 -1.1396 -3.2481  1.8293
16082TIP3    H269738   6.761   4.290  16.757  0.7605 -1.6070  1.1345
16083TIP3   OH269739   4.377   5.294  14.751  0.0057  0.3878 -0.3152
16083TIP3    H169740   4.283   5.301  14.740 -0.1282  1.6454  1.2558
16083TIP3    H269741   4.409   5.384  14.745  1.0341  0.0496 -0.2606
16084TIP3   OH269742   1.194   1.485  11.774  0.6651 -0.1033 -0.6537
16084TIP3    H169743   1.236   1.570  11.773 -1.7701  1.1936 -0.8252
16084TIP3    H269744   1.248   1.430  11.717  1.5502  1.6895 -1.6216
16085TIP3   OH269745   3.444   1.883  12.882  0.1808 -0.1337  0.0366
16085TIP3    H169746   3.442   1.789  12.902  0.8797 -0.2920 -0.5763
16085TIP3    H269747   3.520   1.916  12.930  0.6809 -0.1333 -0.7322
16086TIP3   OH269748   3.471   4.793  13.009 -0.7660  0.0018 -0.0559
16086TIP3    H169749   3.415   4.864  12.977 -0.6448  0.4915  0.7802
16086TIP3    H269750   3.442   4.779  13.099 -0.3827 -0.5988 -0.0245
16087TIP3   OH269751   2.839   5.885   4.880 -0.0588 -0.0476 -0.7437
16087TIP3    H169752   2.849   5.882   4.785  1.9116  1.5296 -0.6587
16087TIP3    H269753   2.928   5.872   4.914 -0.8231 -1.3563  0.9516
16088TIP3   OH269754   2.584   3.351   6.154  0.7679 -0.6506 -0.3401
16088TIP3    H169755   2.673   3.335   6.124  1.2668 -1.3215  1.3366
16088TIP3    H269756   2.585   3.325   6.246 -1.2009 -0.8125 -0.3110
16089TIP3   OH269757   3.057   2.219  12.925 -0.0449  0.0010  0.4534
16089TIP3    H169758   2.964   2.231  12.906 -0.0653 -0.1172  0.4787
16089TIP3    H269759   3.087   2.306  12.952 -0.1913 -0.0048  0.6358
16090TIP3   OH269760   3.631   1.939   3.281  0.4281 -0.6687 -0.5690
16090TIP3    H169761   3.596   2.028   3.280 -1.0369 -1.2275 -1.6834
16090TIP3    H269762   3.604   1.903   3.365  2.1602  0.3333  0.4657
16091TIP3   OH269763   1.747   5.181   5.499 -0.4526 -0.4976 -0.1025
16091TIP3    H169764   1.771   5.194   5.408 -4.3960 -0.4338 -1.3190
16091TIP3    H269765   1.790   5.099   5.524  2.5000  0.5996 -1.1758
16092TIP3   OH269766   4.128   1.615   1.508 -0.0683  0.0873 -0.5719
16092TIP3    H169767   4.191   1.650   1.571  0.5783 -0.6218 -0.8129
16092TIP3    H269768   4.050   1.596   1.559 -0.2665  1.4124 -0.3509
16093TIP3   OH269769   0.221   2.379  14.566  0.1681  0.0633 -0.0211
16093TIP3    H169770   0.297   2.389  14.510 -0.7129  1.1741 -1.0804
16093TIP3    H269771   0.160   2.327  14.515 -1.2901  2.4265 -0.8787
16094TIP3   OH269772   2.321   2.580   2.835 -0.4922 -0.0348  0.4405
16094TIP3    H169773   2.336   2.492   2.870  1.5254  0.8217  1.8706
16094TIP3    H269774   2.278   2.564   2.750 -0.2781 -2.3792  0.6950
16095TIP3   OH269775   5.892   4.099  13.129  0.2122 -0.2729  0.0338
16095TIP3    H169776   5.907   4.153  13.206 -0.4308  0.3131 -0.2414
16095TIP3    H269777   5.878   4.011  13.164  1.7792 -0.3848  0.4481
16096TIP3   OH269778   4.138   2.124  14.849  0.0898  0.3352 -0.0822
16096TIP3    H169779   4.059   2.100  14.898  0.3312 -1.1078 -0.3766
16096TIP3    H269780   4.197   2.050  14.860  0.9292  0.8523 -0.9264
16097TIP3   OH269781   0.592   4.186  15.085  0.4558 -0.2319 -0.6652
16097TIP3    H169782   0.517   4.127  15.094 -0.3839  1.1108  2.5215
16097TIP3    H269783   0.610   4.188  14.991 -1.1897 -3.3673 -1.1780
16098TIP3   OH269784   1.768   0.044   4.346 -0.4436 -0.1614 -0.3353
16098TIP3    H169785   1.849  -0.007   4.349 -1.6623 -2.1545  0.4664
16098TIP3    H269786   1.779   0.111   4.414  0.8743  0.1972 -0.8696
16099TIP3   OH269787   4.429   0.890   1.334 -0.4269  0.2492 -0.1253
16099TIP3    H169788   4.424   0.946   1.411 -1.2859  1.0708 -0.7470
16099TIP3    H269789   4.445   0.951   1.261 -1.1769 -0.3197 -0.7838
16100TIP3   OH269790   4.556   4.270   0.955  0.1246 -0.4271 -0.3949
16100TIP3    H169791   4.587   4.183   0.932 -0.8333 -0.6560 -0.8842
16100TIP3    H269792   4.635   4.323   0.963  0.6601 -1.0881 -1.1678
16101TIP3   OH269793   2.895   4.591   3.933 -0.0302 -0.2193 -0.2579
16101TIP3    H169794   2.907   4.566   3.842 -0.7756  0.3882 -0.5265
16101TIP3    H269795   2.833   4.527   3.967  1.4343 -1.4214  0.2761
16102TIP3   OH269796   4.406   4.155  14.241 -0.1030  0.1367  0.1281
16102TIP3    H169797   4.472   4.216  14.275 -0.5394  0.5630  0.2227
16102TIP3    H269798   4.345   4.210  14.192 -0.2498 -0.2884 -0.1760
16103TIP3   OH269799   5.834   5.872  12.701 -0.2645  0.1133 -0.0948
16103TIP3    H169800   5.879   5.934  12.759 -0.0885  1.3519 -1.4962
16103TIP3    H269801   5.904   5.817  12.666  0.3146  2.1444 -2.4021
16104TIP3   OH269802   3.174   0.449   6.250  0.1764 -0.5952 -0.1240
16104TIP3    H169803   3.122   0.431   6.172  1.8846 -1.8798 -1.0488
16104TIP3    H269804   3.116   0.430   6.323 -1.7452  1.4381 -1.0190
16105TIP3   OH269805   1.452   3.106  13.085 -0.4278  0.4363  0.2585
16105TIP3    H169806   1.501   3.088  13.165 -0.9735 -1.5684  0.1896
16105TIP3    H269807   1.390   3.033  13.078 -3.2769  2.6978  0.2139
16106TIP3   OH269808   6.633   3.036  13.112  0.2737 -0.5509  0.1393
16106TIP3    H169809   6.641   2.941  13.118 -0.4319 -0.7167 -1.1008
16106TIP3    H269810   6.539   3.052  13.122  0.5178  0.1526  1.6123
16107TIP3   OH269811   2.237   3.726   4.553 -0.0134 -0.1022  0.3479
16107TIP3    H169812   2.225   3.727   4.648 -0.3530 -0.9370  0.3232
16107TIP3    H269813   2.150   3.745   4.518  0.3500  1.3976  0.1967
16108TIP3   OH269814   5.659   2.604   2.871 -0.1485 -0.0409  0.2591
16108TIP3    H169815   5.739   2.657   2.870  0.0721 -0.3755 -0.4565
16108TIP3    H269816   5.686   2.522   2.912  0.2748 -0.7208 -1.2719
16109TIP3   OH269817   1.759   0.075   1.198  0.5576 -0.3639 -0.3116
16109TIP3    H169818   1.832   0.018   1.174  0.5999 -0.0105 -1.0336
16109TIP3    H269819   1.730   0.113   1.116 -1.4708 -1.7005 -0.2776
16110TIP3   OH269820   6.722   0.481   3.471 -0.1699 -0.5878 -0.0393
16110TIP3    H169821   6.703   0.483   3.565  0.8665 -0.3880  0.1786
16110TIP3    H269822   6.751   0.391   3.454  1.4106 -0.1516  0.2164
16111TIP3   OH269823   0.255   2.599   1.247  0.3461  0.1699  0.1042
16111TIP3    H169824   0.299   2.533   1.193  0.0728  0.9106 -1.0612
16111TIP3    H269825   0.225   2.665   1.184  0.1328  1.1290  1.1858
16112TIP3   OH269826   2.901   3.966   3.854  0.5938  0.3816 -0.2461
16112TIP3    H169827   2.841   3.968   3.929 -0.4807 -1.2452 -0.9874
16112TIP3    H269828   2.988   3.980   3.891 -0.0274  0.5604  1.1769
16113TIP3   OH269829   2.404   5.138   3.973  0.0712  0.2001  0.3753
16113TIP3    H169830   2.494   5.143   3.943  0.0852  0.2961  0.4326
16113TIP3    H269831   2.405   5.074   4.044  0.4552  1.5915  1.6813
16114TIP3   OH269832   0.228   4.391   6.425 -0.0892 -0.5532  0.2126
16114TIP3    H169833   0.312   4.435   6.412 -0.7776  1.0129  0.8335
16114TIP3    H269834   0.221   4.332   6.350  0.3742  1.2518 -1.3603
16115TIP3   OH269835   3.618   6.394  13.278 -0.0676  0.0516 -0.3318
16115TIP3    H169836   3.660   6.315  13.313 -0.5519 -0.7414 -1.4970
16115TIP3    H269837   3.687   6.438  13.229 -0.2160 -0.5178 -1.0649
16116TIP3   OH269838   5.816   5.876   1.352  0.4218  0.1102 -0.2971
16116TIP3    H169839   5.730   5.842   1.376 -0.6555  1.9834 -1.2572
16116TIP3    H269840   5.868   5.798   1.334 -1.8069 -1.0798 -2.1419
16117TIP3   OH269841   0.364   2.060  14.550  0.2935 -0.1169  0.2367
16117TIP3    H169842   0.390   2.147  14.519  0.7856 -0.2525  0.2478
16117TIP3    H269843   0.431   2.038  14.616  1.7456 -1.5965 -1.6071
16118TIP3   OH269844   0.151   4.693   0.993 -0.0708 -0.1776  0.0905
16118TIP3    H169845   0.178   4.736   0.913  1.6818  1.3682  1.4340
16118TIP3    H269846   0.186   4.748   1.063 -1.0023 -1.7958  1.9240
16119TIP3   OH269847   6.285   5.846  16.998  0.1243 -0.0082  0.2190
16119TIP3    H169848   6.275   5.942  16.999  1.7684  0.1882  0.0317
16119TIP3    H269849   6.293   5.823  17.090 -0.1796  0.0374  0.2589
16120TIP3   OH269850   0.925   2.646   0.719 -0.2851 -0.7606  0.0014
16120TIP3    H169851   0.889   2.652   0.807 -1.8858  1.0255 -0.6869
16120TIP3    H269852   0.848   2.640   0.662  0.3715  2.7725 -1.5214
16121TIP3   OH269853   1.002   6.358   3.888 -0.0619 -0.3292  0.4404
16121TIP3    H169854   0.956   6.441   3.871 -0.9029 -0.9594 -0.5084
16121TIP3    H269855   0.992   6.344   3.982 -0.3753  0.3756  0.5207
16122TIP3   OH269856   6.106   2.984   4.976  0.4404 -0.1227 -0.5078
16122TIP3    H169857   6.094   3.052   5.042 -2.0692  1.2588 -2.1968
16122TIP3    H269858   6.156   3.026   4.906  0.3157 -0.5318 -0.8525
16123TIP3   OH269859   4.021   1.124  11.720 -0.1589 -0.3947  0.2901
16123TIP3    H169860   3.997   1.076  11.641  0.5477 -2.0585  1.0572
16123TIP3    H269861   4.080   1.066  11.767  2.0444  1.8583  0.5234
16124TIP3   OH269862   2.550   1.473   0.964 -0.1918  0.2921 -0.2332
16124TIP3    H169863   2.599   1.513   0.892  0.1251  0.1752 -0.0835
16124TIP3    H269864   2.610   1.475   1.039  0.3603 -1.7287 -0.5577
16125TIP3   OH269865   3.037   5.329  14.543  0.2575  0.0319 -0.5844
16125TIP3    H169866   2.944   5.310  14.536  0.3340 -0.1924 -1.0526
16125TIP3    H269867   3.077   5.246  14.571  0.1563  0.4950  1.0446
16126TIP3   OH269868   0.878   5.086   2.798  0.2304 -0.5309 -0.1244
16126TIP3    H169869   0.933   5.134   2.737  3.0197 -1.9070  1.1544
16126TIP3    H269870   0.869   4.999   2.759  0.3396 -0.8103  0.4625
16127TIP3   OH269871   5.921   6.439   1.597 -0.1968 -0.5445  0.1561
16127TIP3    H169872   5.962   6.368   1.646 -0.1648 -0.1238  0.7556
16127TIP3    H269873   5.883   6.495   1.665  1.1681  0.8697 -0.1949
16128TIP3   OH269874   1.854   4.687   0.438  0.2337 -0.0626  0.2195
16128TIP3    H169875   1.823   4.770   0.402  1.1080  0.7691  1.3119
16128TIP3    H269876   1.884   4.638   0.362  2.2217  1.7253 -0.2538
16129TIP3   OH269877   4.069   0.159  11.522  0.4017  0.7506 -0.1166
16129TIP3    H169878   4.070   0.245  11.482 -2.5565  1.5561  1.2516
16129TIP3    H269879   4.063   0.176  11.616 -1.0522 -0.8965  0.1440
16130TIP3   OH269880   0.424   1.823   2.143 -0.2305 -0.0877 -0.2704
16130TIP3    H169881   0.335   1.808   2.176  0.5551 -0.0077  2.0603
16130TIP3    H269882   0.446   1.743   2.095 -0.2302 -1.7625  2.3616
16131TIP3   OH269883   0.813   0.373  16.021 -0.0039  0.5314  0.0162
16131TIP3    H169884   0.735   0.398  16.072 -0.8707 -1.5032 -0.2189
16131TIP3    H269885   0.886   0.381  16.082 -0.5791  1.1149  0.6474
16132TIP3   OH269886   5.866   4.995   3.430 -0.6296  0.4299  0.3770
16132TIP3    H169887   5.875   5.089   3.441 -1.9172  0.6472 -0.3284
16132TIP3    H269888   5.956   4.962   3.433 -0.0885  1.7781 -0.3229
16133TIP3   OH269889   4.363   4.472  11.542 -0.7415  0.0848 -0.1797
16133TIP3    H169890   4.436   4.480  11.604 -0.6244  0.9973 -0.4128
16133TIP3    H269891   4.405   4.454  11.458 -0.6799  1.5856 -0.5090
16134TIP3   OH269892   5.980   2.655  15.302  0.9274  0.0915  0.4735
16134TIP3    H169893   6.030   2.580  15.269  1.6742  1.0965 -0.8076
16134TIP3    H269894   5.897   2.618  15.332  0.4595 -1.0323 -1.9337
16135TIP3   OH269895   0.892   4.398   1.315  0.1793  0.0318  0.0768
16135TIP3    H169896   0.957   4.466   1.297  0.1490  0.3598  1.1262
16135TIP3    H269897   0.921   4.322   1.264  1.6109  0.0414  0.8408
16136TIP3   OH269898   1.342   4.023   2.544 -0.2930  0.2694 -0.2907
16136TIP3    H169899   1.280   4.068   2.487 -0.9322  0.2759  0.4048
16136TIP3    H269900   1.379   4.092   2.599 -0.3213  0.1321 -0.0989
16137TIP3   OH269901   3.878   2.394   2.823 -0.4968 -0.5354 -0.0538
16137TIP3    H169902   3.843   2.481   2.841 -0.4046 -0.4875 -0.1059
16137TIP3    H269903   3.935   2.406   2.748 -0.2520 -0.5837  0.1231
16138TIP3   OH269904   1.240   1.381  12.163 -0.1160  0.2836  0.3501
16138TIP3    H169905   1.269   1.307  12.109  1.0735 -0.0573  1.4017
16138TIP3    H269906   1.189   1.340  12.233  0.3173  0.4736  0.7809
16139TIP3   OH269907   1.480   2.162  11.796 -0.1561  0.2006 -0.0466
16139TIP3    H169908   1.460   2.238  11.741 -0.9966 -0.6556 -0.9737
16139TIP3    H269909   1.394   2.125  11.817  0.2382 -0.4885  0.3798
16140TIP3   OH269910   3.791   2.105   0.640  0.2599 -0.4103 -0.0741
16140TIP3    H169911   3.856   2.139   0.579 -0.8937  2.0425 -0.0642
16140TIP3    H269912   3.784   2.173   0.708 -0.8313 -1.5710  1.0335
16141TIP3   OH269913   4.468   1.944   2.185  0.0668  0.2447 -0.7044
16141TIP3    H169914   4.560   1.972   2.190 -0.5139  2.1182  1.5427
16141TIP3    H269915   4.463   1.868   2.242  0.1683  0.4118 -0.4686
16142TIP3   OH269916   2.096   6.579  15.478  0.1661  0.0783  0.7371
16142TIP3    H169917   2.125   6.609  15.392  1.1792 -0.8069  0.7539
16142TIP3    H269918   2.172   6.534  15.515 -0.7285 -0.8638  1.4742
16143TIP3   OH269919   2.996   0.732  12.649 -0.2376  0.3707  0.7256
16143TIP3    H169920   2.934   0.715  12.721  1.0894  0.4568  1.9286
16143TIP3    H269921   2.946   0.784  12.587 -1.4897  0.1358  1.4960
16144TIP3   OH269922   0.293   0.358  16.290 -0.3710  0.1334 -0.5153
16144TIP3    H169923   0.313   0.451  16.277  2.7075 -0.3114  0.0799
16144TIP3    H269924   0.268   0.352  16.382  0.7964  0.2401 -0.1715
16145TIP3   OH269925   2.597   4.184  10.773  0.4524  0.3277 -0.6656
16145TIP3    H169926   2.519   4.231  10.742  0.8154  0.2467 -1.7093
16145TIP3    H269927   2.589   4.097  10.736  0.7485  0.1335 -0.2831
16146TIP3   OH269928   2.334   5.563  14.948 -0.4054 -0.5789 -0.2446
16146TIP3    H169929   2.384   5.639  14.978 -0.3288 -1.0804  0.9374
16146TIP3    H269930   2.401   5.501  14.919 -0.1173 -1.9456  2.9283
16147TIP3   OH269931   1.727   3.195   4.571 -0.7242  0.4316  0.1440
16147TIP3    H169932   1.785   3.196   4.646  0.1880  0.5246 -0.5436
16147TIP3    H269933   1.677   3.114   4.579 -0.2757  0.1987  0.5774
16148TIP3   OH269934   4.939   3.660  16.579 -0.4550  0.1532  0.3184
16148TIP3    H169935   5.015   3.608  16.603 -1.4878 -1.4214  0.3229
16148TIP3    H269936   4.914   3.705  16.660  0.2432  0.3950  0.4018
16149TIP3   OH269937   6.474   5.824   0.431  0.0437 -0.7027 -0.1318
16149TIP3    H169938   6.503   5.882   0.501 -1.2542  1.8092 -1.5490
16149TIP3    H269939   6.546   5.824   0.368 -0.8388  1.3943 -1.2361
16150TIP3   OH269940   6.362   0.795  11.985  0.2194  0.0042  0.2534
16150TIP3    H169941   6.344   0.888  11.972  0.8762  0.0273 -0.5898
16150TIP3    H269942   6.276   0.753  11.977 -0.2485  0.6294  1.7290
16151TIP3   OH269943   2.151   4.203  17.018  0.0981  0.2647  0.1860
16151TIP3    H169944   2.196   4.268  16.964 -0.9847  0.6731 -0.2404
16151TIP3    H269945   2.220   4.141  17.042  0.9050  0.9151 -0.3910
16152TIP3   OH269946   5.076   3.268   0.488  0.6924  0.3266  0.3310
16152TIP3    H169947   5.011   3.322   0.534  0.9237  0.2148  0.8006
16152TIP3    H269948   5.033   3.242   0.407  0.1193  0.1922  0.6715
16153TIP3   OH269949   6.281   2.618  12.874  0.5787  0.1037  0.9460
16153TIP3    H169950   6.336   2.571  12.810  0.0916  0.8553 -0.0409
16153TIP3    H269951   6.227   2.549  12.913  1.5808 -0.5173  1.2829
16154TIP3   OH269952   4.985   3.838  13.811 -0.2910  0.5934 -0.3018
16154TIP3    H169953   5.029   3.903  13.757  0.6516 -0.7435 -1.2013
16154TIP3    H269954   5.048   3.817  13.880 -0.4282  0.3400 -0.2496
16155TIP3   OH269955   1.759   1.612  11.067  0.0819  0.2920 -0.1063
16155TIP3    H169956   1.734   1.677  11.132  0.0194  0.8167 -0.6575
16155TIP3    H269957   1.824   1.655  11.013  1.2636 -0.6306  0.5106
16156TIP3   OH269958   0.419   4.334   1.968  0.7224  0.1885 -0.1374
16156TIP3    H169959   0.340   4.331   1.914 -1.2011 -1.3424  2.5095
16156TIP3    H269960   0.468   4.256   1.943  0.9448  0.6220 -1.1054
16157TIP3   OH269961   4.538   1.918  16.078  0.3895  0.3499 -0.8067
16157TIP3    H169962   4.515   1.843  16.024  1.0729 -0.9048  0.5618
16157TIP3    H269963   4.476   1.916  16.151 -0.5055  1.9927 -1.4809
16158TIP3   OH269964   1.517   0.315  16.075  0.6398 -0.4747  0.3414
16158TIP3    H169965   1.465   0.340  16.152  0.9082 -0.8945  0.6627
16158TIP3    H269966   1.452   0.301  16.006  0.4678  0.8893  0.2045
16159TIP3   OH269967   3.889   2.654  10.660 -0.2454 -0.0265 -0.2001
16159TIP3    H169968   3.879   2.572  10.708 -2.4150  0.4529  0.2824
16159TIP3    H269969   3.838   2.717  10.711 -0.9202  0.9677 -2.0365
16160TIP3   OH269970   5.188   0.747  13.670 -0.1799  0.2279 -0.0079
16160TIP3    H169971   5.273   0.779  13.699  1.2596 -3.9334  0.9844
16160TIP3    H269972   5.137   0.735  13.750 -0.8908  0.5288 -0.4000
16161TIP3   OH269973   2.825   1.271   6.019  0.2309  0.4857 -0.7428
16161TIP3    H169974   2.839   1.176   6.010  3.7258  0.8379 -0.3886
16161TIP3    H269975   2.793   1.282   6.108  1.2816 -0.2817 -0.2471
16162TIP3   OH269976   0.885   6.607  13.903 -0.1907 -0.3415 -0.4621
16162TIP3    H169977   0.876   6.684  13.960  0.4227 -1.0737  0.6812
16162TIP3    H269978   0.979   6.600  13.887 -0.4116  0.2734 -2.2236
16163TIP3   OH269979   1.368   6.817   3.092 -0.0073 -0.3309  0.2177
16163TIP3    H169980   1.320   6.809   3.010 -0.3005 -0.8895  0.4370
16163TIP3    H269981   1.325   6.889   3.138 -0.8827 -1.0637  0.5719
16164TIP3   OH269982   5.665   1.734   3.209 -0.0139 -0.2541  0.3026
16164TIP3    H169983   5.571   1.737   3.227 -0.0840 -1.3977  0.2322
16164TIP3    H269984   5.683   1.641   3.195  1.7696 -0.6767  4.0085
16165TIP3   OH269985   2.473   3.513  14.467 -0.1719 -0.3171 -0.3966
16165TIP3    H169986   2.451   3.606  14.470  0.7338 -0.0825 -0.5892
16165TIP3    H269987   2.390   3.468  14.482 -0.5204  0.5227  0.2785
16166TIP3   OH269988   3.783   2.337  15.766 -0.0685 -0.2001 -0.0553
16166TIP3    H169989   3.688   2.337  15.774 -0.6289 -0.4053 -4.3211
16166TIP3    H269990   3.809   2.247  15.783 -0.6224 -0.2013  0.8714
16167TIP3   OH269991   1.673   5.536   2.057 -0.0204  0.6474  0.6652
16167TIP3    H169992   1.708   5.449   2.038  0.5824  0.2661  3.1907
16167TIP3    H269993   1.746   5.595   2.036  0.9752  0.1616  2.5830
16168TIP3   OH269994   1.000   2.329  15.105  0.4351  0.0859 -0.4317
16168TIP3    H169995   1.093   2.344  15.087  0.5197  1.0964  0.7138
16168TIP3    H269996   0.970   2.410  15.145 -0.5136 -0.8144  0.7715
16169TIP3   OH269997   6.067   6.367   2.680  0.0687 -0.4569 -0.1683
16169TIP3    H169998   6.071   6.425   2.604  0.0164 -1.1035 -0.6771
16169TIP3    H269999   5.980   6.380   2.716  0.0737 -0.1849 -0.2529
16170TIP3   OH270000   0.807   3.910   4.464  0.4862  0.0974 -0.3330
16170TIP3    H170001   0.795   3.993   4.418  0.4261  0.7568  0.8368
16170TIP3    H270002   0.894   3.881   4.439  1.2383  1.4233  0.6071
16171TIP3   OH270003   0.506   3.874   4.343  0.3736 -0.8324 -0.4465
16171TIP3    H170004   0.569   3.805   4.325 -0.8696 -2.4225  1.0231
16171TIP3    H270005   0.524   3.901   4.433  1.3029  1.3144 -1.2164
16172TIP3   OH270006   4.745   4.847  16.983 -0.4891 -0.4240  0.2691
16172TIP3    H170007   4.788   4.792  17.048 -0.1819  0.6655  1.0115
16172TIP3    H270008   4.782   4.934  16.996 -0.4869 -0.1516 -1.3168
16173TIP3   OH270009   4.833   6.461   6.471 -0.6554  0.5992 -0.2170
16173TIP3    H170010   4.766   6.505   6.523 -0.3986  1.2743 -0.4381
16173TIP3    H270011   4.891   6.421   6.535 -1.8760 -0.9588 -0.0335
16174TIP3   OH270012   6.632   0.900  10.534  0.7443 -0.9166 -0.5540
16174TIP3    H170013   6.541   0.909  10.563  1.0311 -0.7012  0.3374
16174TIP3    H270014   6.631   0.923  10.442  0.0890  0.2938 -0.2647
16175TIP3   OH270015   5.939   2.420   2.090 -0.0397 -0.3638 -0.3971
16175TIP3    H170016   5.974   2.493   2.142 -0.1838  0.6841 -1.6930
16175TIP3    H270017   5.983   2.343   2.125 -0.1098  0.2872  1.2292
16176TIP3   OH270018   6.555   5.046  13.052  0.0550  0.1021 -0.2199
16176TIP3    H170019   6.623   5.103  13.017  0.2318 -0.2794 -0.5097
16176TIP3    H270020   6.481   5.104  13.070 -0.1369  0.2854 -1.4965
16177TIP3   OH270021   4.280   4.409   5.618 -0.1573  0.1097 -0.0070
16177TIP3    H170022   4.205   4.454   5.657  1.1597  0.8053  1.8596
16177TIP3    H270023   4.277   4.321   5.656  0.4469  0.4167  0.7823
16178TIP3   OH270024   6.055   1.664  11.104 -0.0724  0.2323 -0.2796
16178TIP3    H170025   6.099   1.631  11.026  1.8699  0.9984  0.4286
16178TIP3    H270026   5.997   1.733  11.072  1.6404  1.4337 -0.9784
16179TIP3   OH270027   4.262   5.680   1.261 -0.3263  0.2820  0.3758
16179TIP3    H170028   4.192   5.673   1.325  0.1630 -2.0271  0.7622
16179TIP3    H270029   4.263   5.595   1.217  1.2556  0.7773 -0.6523
16180TIP3   OH270030   4.914   3.760   1.020  0.1655 -0.4361  0.5561
16180TIP3    H170031   4.947   3.677   1.055 -1.2697 -0.7665  1.1928
16180TIP3    H270032   4.819   3.750   1.018 -0.1053  1.4577  1.3511
16181TIP3   OH270033   6.796   5.481  10.349  0.1936 -0.0400  0.4528
16181TIP3    H170034   6.766   5.567  10.379  1.9420  0.3553  1.2159
16181TIP3    H270035   6.717   5.437  10.318 -0.7124  1.9036 -0.1140
16182TIP3   OH270036   6.523   5.273  13.705  0.1752  0.1212  0.5752
16182TIP3    H170037   6.454   5.339  13.707 -0.4143 -0.4950  1.4309
16182TIP3    H270038   6.526   5.244  13.614 -0.1017  0.7727  0.3583
16183TIP3   OH270039   6.267   6.626   3.507 -0.2866  0.2944 -0.6054
16183TIP3    H170040   6.221   6.618   3.591 -0.7287 -0.7314 -0.9263
16183TIP3    H270041   6.346   6.573   3.519  1.2395  2.5776  0.1774
16184TIP3   OH270042   6.567   2.277  14.375 -0.5425  0.7118 -0.2236
16184TIP3    H170043   6.475   2.258  14.357 -0.1234  0.0453 -1.8134
16184TIP3    H270044   6.573   2.372  14.375 -1.3984  0.7865  0.9015
16185TIP3   OH270045   3.352   3.163   3.798  0.3268 -0.0397  0.5173
16185TIP3    H170046   3.389   3.104   3.863  0.4534  0.2613  0.7202
16185TIP3    H270047   3.426   3.187   3.743 -0.0030 -1.2534 -0.4954
16186TIP3   OH270048   4.589   1.431   5.911 -0.0931  0.4762  0.1796
16186TIP3    H170049   4.521   1.486   5.950  0.6659  0.7542  1.1459
16186TIP3    H270050   4.622   1.482   5.837 -0.6302  0.5215 -0.0359
16187TIP3   OH270051   5.149   0.955   1.368  0.3312 -0.2772  0.1310
16187TIP3    H170052   5.088   0.996   1.306  0.0847  1.0452  1.1966
16187TIP3    H270053   5.172   0.871   1.328 -2.0167 -0.7270 -0.4210
16188TIP3   OH270054   5.605   6.645   4.556 -0.0806 -0.3436  0.1875
16188TIP3    H170055   5.582   6.552   4.555 -1.1959 -0.1057  1.2300
16188TIP3    H270056   5.699   6.646   4.575  0.0713 -1.2673 -0.4614
16189TIP3   OH270057   3.099   2.465   3.063 -0.0435 -0.0571  0.1746
16189TIP3    H170058   3.179   2.470   3.010 -0.1194  0.5349  0.1002
16189TIP3    H270059   3.067   2.376   3.050 -0.1024  0.0920 -0.8629
16190TIP3   OH270060   3.054   5.316   6.469 -0.4465  0.2516  0.0055
16190TIP3    H170061   3.035   5.305   6.562  2.0716 -0.3680  0.5316
16190TIP3    H270062   3.128   5.375   6.466  0.7797 -1.2440 -1.4380
16191TIP3   OH270063   2.398   3.993  15.354 -0.3664  0.2181 -0.1846
16191TIP3    H170064   2.347   3.916  15.381 -0.5272 -0.1506 -1.4630
16191TIP3    H270065   2.474   3.993  15.412 -0.9668 -0.2145  0.6265
16192TIP3   OH270066   3.254   2.949   6.757  0.2075  0.1849  0.1022
16192TIP3    H170067   3.287   2.861   6.776  1.5342  0.5875 -0.2125
16192TIP3    H270068   3.304   2.977   6.680 -0.1353  1.2416  0.2461
16193TIP3   OH270069   5.148   1.587   0.880 -0.3708 -0.4630 -0.0355
16193TIP3    H170070   5.225   1.594   0.937  0.4729  1.8905 -1.3036
16193TIP3    H270071   5.094   1.662   0.903 -0.9765 -0.5912 -0.9813
16194TIP3   OH270072   0.759   4.825   3.082 -0.2890 -0.5137  0.3082
16194TIP3    H170073   0.768   4.753   3.143  1.9302 -1.4542 -0.9923
16194TIP3    H270074   0.715   4.787   3.006  1.3583 -0.7418 -0.5974
16195TIP3   OH270075   3.906   0.375  16.302 -0.0779  0.4571  0.5533
16195TIP3    H170076   3.831   0.316  16.315  0.4916  0.0318  2.1116
16195TIP3    H270077   3.931   0.402  16.390  3.5402 -1.8854  0.4344
16196TIP3   OH270078   5.837   2.832  16.598 -0.2511 -0.4550  0.5711
16196TIP3    H170079   5.929   2.851  16.617  0.0775 -0.0974 -1.2300
16196TIP3    H270080   5.789   2.878  16.667  0.9166 -1.1984  1.9400
16197TIP3   OH270081   3.933   0.695   5.924  0.1384 -0.7426  0.2041
16197TIP3    H170082   3.904   0.767   5.979  0.8488 -2.0990  2.4974
16197TIP3    H270083   4.019   0.722   5.893 -0.5572  0.3308 -0.8607
16198TIP3   OH270084   1.590   2.351   3.526  0.1241 -0.5549 -0.5018
16198TIP3    H170085   1.593   2.300   3.445  0.4071  0.5717 -1.2131
16198TIP3    H270086   1.668   2.323   3.575 -1.5539 -3.4073  0.7761
16199TIP3   OH270087   3.495   2.690   1.383 -0.1173  0.1850 -1.0195
16199TIP3    H170088   3.506   2.652   1.470 -2.6619  1.4476 -0.0346
16199TIP3    H270089   3.574   2.743   1.371  0.4974 -0.3650  0.3156
16200TIP3   OH270090   1.356   1.467   3.185  0.1748  0.0596  0.0420
16200TIP3    H170091   1.381   1.476   3.277 -2.3846 -2.2951  1.0953
16200TIP3    H270092   1.281   1.526   3.175  0.0151 -0.2059 -0.3449
16201TIP3   OH270093   3.376   2.343   3.770 -0.0589  0.0046  0.0340
16201TIP3    H170094   3.379   2.352   3.866 -0.4023 -0.3325  0.0776
16201TIP3    H270095   3.289   2.372   3.746  0.0823  0.2384 -0.1951
16202TIP3   OH270096   6.320   4.143  16.311  0.0420  0.1229 -0.1490
16202TIP3    H170097   6.322   4.098  16.226 -0.1317 -2.0129  0.9175
16202TIP3    H270098   6.322   4.236  16.288 -2.0841 -0.3175 -2.5633
16203TIP3   OH270099   5.240   5.348  16.314 -0.6129 -0.2773  0.5716
16203TIP3    H170100   5.176   5.420  16.312  0.3699  0.6167  0.2691
16203TIP3    H270101   5.322   5.390  16.340  0.7600 -0.6508 -2.6908
16204TIP3   OH270102   4.535   0.456   5.328 -0.1757 -0.0160  0.7171
16204TIP3    H170103   4.589   0.502   5.262 -0.7071 -0.1191  0.2025
16204TIP3    H270104   4.542   0.510   5.406 -1.2035  1.2420 -0.0261
16205TIP3   OH270105   2.421   6.349   1.108 -0.0343  0.9762 -0.6751
16205TIP3    H170106   2.362   6.296   1.054  0.0648  0.2197 -0.0572
16205TIP3    H270107   2.496   6.292   1.125  0.3888  1.5619 -0.5691
16206TIP3   OH270108   0.377   6.289  14.091 -0.3420 -0.8303  0.4301
16206TIP3    H170109   0.445   6.225  14.110 -0.3751 -1.3327 -1.0200
16206TIP3    H270110   0.356   6.275  13.998 -0.9913  0.6632  0.3191
16207TIP3   OH270111   1.219   0.925  11.356  0.0585 -0.3583  0.4004
16207TIP3    H170112   1.255   0.867  11.290 -0.5544  0.6156 -0.8197
16207TIP3    H270113   1.125   0.914  11.349 -0.0651  0.7464  0.1679
16208TIP3   OH270114   5.265   4.662   4.538 -0.3350  0.1171 -0.4079
16208TIP3    H170115   5.300   4.689   4.623 -1.2743  1.5375 -0.4209
16208TIP3    H270116   5.318   4.587   4.512  1.8670  1.4232  0.0967
16209TIP3   OH270117   4.578   1.775   0.859  0.0409 -0.4385  0.0044
16209TIP3    H170118   4.607   1.692   0.821  1.2311 -0.4440  0.8645
16209TIP3    H270119   4.572   1.835   0.784 -1.0123 -1.3253 -0.6474
16210TIP3   OH270120   2.732   4.386   3.287  0.0807 -0.7202 -0.2345
16210TIP3    H170121   2.764   4.301   3.317 -0.0055 -1.4300 -2.0288
16210TIP3    H270122   2.791   4.410   3.215 -0.4394  0.3055 -0.3400
16211TIP3   OH270123   3.448   2.980  12.152 -0.1322 -0.9210 -0.7214
16211TIP3    H170124   3.407   3.042  12.091 -4.4513 -1.1796  1.5142
16211TIP3    H270125   3.449   2.897  12.104 -2.0495 -0.8009 -1.0477
16212TIP3   OH270126   5.231   6.780  11.151 -0.2758 -0.7150  0.3291
16212TIP3    H170127   5.253   6.824  11.068 -0.1596 -0.2262  0.6120
16212TIP3    H270128   5.177   6.705  11.125 -2.0830  0.6357 -0.0731
16213TIP3   OH270129   0.709   2.803  16.193 -0.0585  0.0888  0.0091
16213TIP3    H170130   0.708   2.849  16.109 -0.7938 -0.3575 -0.2386
16213TIP3    H270131   0.630   2.749  16.191 -0.8794  1.1667  1.5977
16214TIP3   OH270132   2.037   2.605   4.461 -0.7104  0.1453 -0.0869
16214TIP3    H170133   2.011   2.566   4.378 -1.1118 -1.5961  0.8204
16214TIP3    H270134   2.124   2.641   4.445 -0.6109 -0.5496 -1.1405
16215TIP3   OH270135   6.551   0.352   1.785  0.4507 -0.9766 -0.1671
16215TIP3    H170136   6.644   0.367   1.764  0.3351 -2.0092 -1.5605
16215TIP3    H270137   6.552   0.273   1.839  0.4523 -0.3518  0.7690
16216TIP3   OH270138   1.224   5.509  14.675 -0.2863  0.1198 -0.1774
16216TIP3    H170139   1.243   5.597  14.643  2.2198  0.0078  0.8326
16216TIP3    H270140   1.278   5.451  14.621 -1.3173 -0.7544 -0.3140
16217TIP3   OH270141   6.750   5.615  12.189  0.1896  0.0488 -0.1542
16217TIP3    H170142   6.692   5.619  12.113 -2.2501 -1.0630  1.5186
16217TIP3    H270143   6.769   5.706  12.210 -1.2904  0.4662 -0.5424
16218TIP3   OH270144   6.573   6.301   5.010  0.7634  0.0867 -0.5761
16218TIP3    H170145   6.553   6.237   4.942 -0.2680 -0.5048  0.2412
16218TIP3    H270146   6.522   6.271   5.086  0.4831  1.7209 -0.0860
16219TIP3   OH270147   4.496   4.697   2.986 -0.1856  0.1873  0.3289
16219TIP3    H170148   4.512   4.736   2.900  1.9849  0.3698  0.7773
16219TIP3    H270149   4.472   4.772   3.042  0.1328  0.3232  0.2856
16220TIP3   OH270150   6.246   5.533  14.854  0.3655  0.7804 -0.1683
16220TIP3    H170151   6.199   5.549  14.936 -0.3690  0.5807 -0.5393
16220TIP3    H270152   6.295   5.452  14.871 -0.7999  0.0084 -0.3349
16221TIP3   OH270153   3.015   3.826  13.320 -0.3000 -0.2090 -0.3881
16221TIP3    H170154   3.040   3.781  13.400 -0.3429  2.8538  1.5292
16221TIP3    H270155   3.097   3.856  13.282 -0.2125 -2.2954 -2.0316
16222TIP3   OH270156   6.351   4.482  17.180  0.2816 -0.3697  0.1231
16222TIP3    H170157   6.274   4.524  17.144  0.6402 -0.3565 -0.6378
16222TIP3    H270158   6.422   4.504  17.120  0.9550 -0.1001  0.9855
16223TIP3   OH270159   6.099   4.307   4.189 -0.1233 -0.2116  0.0995
16223TIP3    H170160   6.020   4.269   4.151 -0.1259 -0.3876  0.2755
16223TIP3    H270161   6.170   4.274   4.135 -0.2075  0.3013 -0.3266
16224TIP3   OH270162   2.736   1.319  17.027 -0.5470  0.1558  0.2231
16224TIP3    H170163   2.762   1.406  16.997  0.8375 -0.5175 -0.6379
16224TIP3    H270164   2.684   1.283  16.955 -0.4675 -0.0216  0.2547
16225TIP3   OH270165   4.946   0.533   5.362  0.3877  0.2241 -0.2522
16225TIP3    H170166   5.004   0.463   5.333 -2.4733 -1.9987 -1.1153
16225TIP3    H270167   4.916   0.506   5.448 -0.9621  0.1964 -0.7045
16226TIP3   OH270168   3.881   1.620  16.147 -0.7633  0.0442 -0.2494
16226TIP3    H170169   3.931   1.649  16.224  1.1054 -2.8846 -0.2314
16226TIP3    H270170   3.822   1.553  16.181  0.1112 -1.3188 -1.3148
16227TIP3   OH270171   4.637   6.288  14.836  0.1670  0.4278 -0.8623
16227TIP3    H170172   4.604   6.374  14.809  0.7536  1.2571  0.9401
16227TIP3    H270173   4.566   6.252  14.889  0.2747  0.1614 -0.9023
16228TIP3   OH270174   6.092   6.497   2.439 -0.2438 -0.3154 -0.1959
16228TIP3    H170175   6.156   6.559   2.403  0.5728 -0.7588  0.4480
16228TIP3    H270176   6.091   6.424   2.378  2.6570 -2.0244  1.5309
16229TIP3   OH270177   0.258   2.393  14.837 -0.4791 -0.0401  0.4174
16229TIP3    H170178   0.238   2.421  14.748  4.2618  1.4694 -0.4591
16229TIP3    H270179   0.242   2.471  14.891  1.1848  0.6339 -0.0054
16230TIP3   OH270180   4.271   6.822  16.200  0.2536 -0.8767  0.4301
16230TIP3    H170181   4.229   6.904  16.175 -0.1782 -0.3337  2.7478
16230TIP3    H270182   4.256   6.763  16.125  0.5168  1.0898 -1.2568
16231TIP3   OH270183   1.548   4.512   5.366 -0.0899  0.4768  0.2651
16231TIP3    H170184   1.486   4.581   5.389 -3.2156 -2.4753  1.7123
16231TIP3    H270185   1.561   4.464   5.447  1.7548 -0.7987 -0.7181
16232TIP3   OH270186   2.995   4.229  11.446  1.5540  0.0661 -0.0017
16232TIP3    H170187   2.949   4.221  11.362 -0.4574 -0.0703  1.0662
16232TIP3    H270188   3.005   4.323  11.459 -0.4382  0.2197  0.7507
16233TIP3   OH270189   0.584   4.712   0.330 -0.2656  0.0455  0.3975
16233TIP3    H170190   0.658   4.741   0.277 -0.2985 -1.0179 -0.2676
16233TIP3    H270191   0.541   4.645   0.277 -2.3018  1.3067  0.3456
16234TIP3   OH270192   2.149   5.999  15.956  0.0950  0.0727  0.7635
16234TIP3    H170193   2.125   5.906  15.958  0.4907 -0.0440  0.2769
16234TIP3    H270194   2.196   6.014  16.038 -0.3898 -0.0346  1.0676
16235TIP3   OH270195   4.536   1.925  14.811  0.6188 -0.0426  0.2808
16235TIP3    H170196   4.543   1.999  14.872 -0.1840  0.5786 -0.3645
16235TIP3    H270197   4.626   1.891  14.805  1.0352  0.9821  0.4659
16236TIP3   OH270198   5.420   2.294  16.251 -0.5557  0.0637 -0.4516
16236TIP3    H170199   5.476   2.299  16.173  0.1472  0.6963  0.0817
16236TIP3    H270200   5.360   2.369  16.242  0.6235  1.1448  0.4341
16237TIP3   OH270201   3.340   2.121  13.609  0.0838 -0.2415  0.3649
16237TIP3    H170202   3.423   2.095  13.569 -0.3362 -0.7270 -0.1984
16237TIP3    H270203   3.297   2.176  13.544 -0.4475 -0.7494  0.2816
16238TIP3   OH270204   1.339   6.712  13.108 -0.1033  0.3312 -0.0063
16238TIP3    H170205   1.433   6.719  13.124  0.0577  0.2896 -0.9006
16238TIP3    H270206   1.327   6.626  13.067 -0.8533 -0.7062  2.2025
16239TIP3   OH270207   5.744   6.491  16.275 -0.0420  0.5033 -0.3643
16239TIP3    H170208   5.794   6.523  16.200 -0.1161  0.8595 -0.2622
16239TIP3    H270209   5.653   6.508  16.251 -0.0408  1.0153 -0.0040
16240TIP3   OH270210   4.479   3.423  11.445 -0.4573  0.2100 -0.2624
16240TIP3    H170211   4.509   3.464  11.364 -0.2881 -0.2538 -0.4365
16240TIP3    H270212   4.386   3.443  11.449 -0.4945  0.1168 -0.6447
16241TIP3   OH270213   4.205   0.203   0.851 -0.2493  0.2592  0.0255
16241TIP3    H170214   4.171   0.114   0.845 -0.3436  0.2466  0.6875
16241TIP3    H270215   4.282   0.202   0.793 -0.8142  0.0347 -0.7480
16242TIP3   OH270216   0.184   1.943  12.253  0.1858  0.3448 -0.1510
16242TIP3    H170217   0.177   2.033  12.222  0.5281  0.1431 -0.8455
16242TIP3    H270218   0.214   1.894  12.176  1.0083 -0.1872  0.4850
16243TIP3   OH270219   3.757   4.918   3.067 -0.2576  0.1502  0.2636
16243TIP3    H170220   3.710   4.842   3.034  0.4802  0.3935 -1.4618
16243TIP3    H270221   3.706   4.993   3.038  1.4286  0.4468 -2.2153
16244TIP3   OH270222   6.608   4.911   3.381 -0.4615  0.0201  0.8959
16244TIP3    H170223   6.684   4.854   3.396  0.4606  0.5116 -1.4458
16244TIP3    H270224   6.646   4.999   3.375 -1.1983  0.2857 -0.1503
16245TIP3   OH270225   3.962   1.120   1.244  0.1157 -0.0592  0.2266
16245TIP3    H170226   4.002   1.087   1.324 -1.5158 -0.7995  0.7871
16245TIP3    H270227   3.999   1.066   1.174  1.2734  0.3494  0.5045
16246TIP3   OH270228   0.034   5.329   0.793  0.3001 -0.2183 -0.0285
16246TIP3    H170229   0.105   5.391   0.775  0.3772  0.1187  1.3608
16246TIP3    H270230   0.059   5.250   0.744  1.9623 -0.3120  0.8853
16247TIP3   OH270231   3.673   0.965  13.963  0.2361  0.3018  0.0865
16247TIP3    H170232   3.646   1.056  13.949  2.2043  0.9079 -0.1728
16247TIP3    H270233   3.753   0.972  14.015 -0.2361 -1.3611  1.0983
16248TIP3   OH270234   0.514   5.509  14.840  0.0537 -0.1370  0.3324
16248TIP3    H170235   0.461   5.578  14.880 -0.1612 -0.8567  1.3189
16248TIP3    H270236   0.534   5.449  14.911  0.9631 -0.6588 -0.3333
16249TIP3   OH270237   1.591   2.257  12.697  0.0694 -0.0353 -0.4820
16249TIP3    H170238   1.522   2.226  12.638 -0.3163  0.4438 -0.2863
16249TIP3    H270239   1.672   2.243  12.648 -0.1676 -0.5280 -0.7473
16250TIP3   OH270240   3.621   5.863  15.182  0.0810  0.2985  0.1791
16250TIP3    H170241   3.595   5.807  15.109  0.3989 -0.9013  0.9511
16250TIP3    H270242   3.562   5.840  15.254  0.2935  0.8658  0.5514
16251TIP3   OH270243   6.448   0.969  12.374  0.2647 -0.0792 -0.6537
16251TIP3    H170244   6.514   1.014  12.322  0.1770 -1.0778 -1.6811
16251TIP3    H270245   6.370   1.024  12.368  0.2138 -0.2529 -1.7331
16252TIP3   OH270246   5.382   5.772   2.127 -0.5389  0.3068 -0.2922
16252TIP3    H170247   5.406   5.852   2.081  0.0677 -0.3881 -1.2172
16252TIP3    H270248   5.293   5.752   2.098 -0.1797 -0.0993 -1.1428
16253TIP3   OH270249   6.744   5.323  15.578 -0.5273 -0.1887 -0.3550
16253TIP3    H170250   6.711   5.397  15.629 -1.4240  0.0601 -1.2776
16253TIP3    H270251   6.711   5.245  15.623 -1.9301  0.0427 -0.9264
16254TIP3   OH270252   5.554   5.967  16.726  0.0333 -0.0293  0.0319
16254TIP3    H170253   5.505   5.918  16.792  0.4156  0.0314  0.3586
16254TIP3    H270254   5.488   6.019  16.681 -0.0148  1.2059  1.4593
16255TIP3   OH270255   3.428   5.480   2.482 -0.0455  1.2726 -0.1576
16255TIP3    H170256   3.453   5.422   2.554 -0.6602  1.4757  0.2323
16255TIP3    H270257   3.365   5.541   2.521 -0.6719  1.1525 -0.9496
16256TIP3   OH270258   1.197   0.111  14.991  0.0400  0.5406  0.5405
16256TIP3    H170259   1.204   0.026  14.946  1.3315  1.0989 -0.3778
16256TIP3    H270260   1.161   0.089  15.077  2.4942 -1.2866  1.2291
16257TIP3   OH270261   6.527   0.235  12.671 -0.2263  0.3951  0.1599
16257TIP3    H170262   6.526   0.141  12.652 -2.9703  0.1489  1.1639
16257TIP3    H270263   6.470   0.273  12.604 -0.3331  1.1394  0.6702
16258TIP3   OH270264   6.172   2.844  15.279  0.1710 -0.1917  0.5188
16258TIP3    H170265   6.201   2.823  15.190 -2.8756  1.3214 -1.0067
16258TIP3    H270266   6.106   2.778  15.298 -0.0965  0.2440  1.1235
16259TIP3   OH270267   0.830   3.238   3.559  0.1868  0.1776  0.2884
16259TIP3    H170268   0.810   3.265   3.649  0.7655 -0.3106  0.5729
16259TIP3    H270269   0.850   3.320   3.514  0.0107  0.4177  0.6386
16260TIP3   OH270270   0.092   6.270   2.227 -0.0794 -0.4131  0.3590
16260TIP3    H170271   0.101   6.177   2.248  0.0951 -0.1956  1.3198
16260TIP3    H270272   0.050   6.308   2.305  2.0217  0.7219  1.0363
16261TIP3   OH270273   0.031   4.821  11.416 -0.1366  0.6007  0.5802
16261TIP3    H170274  -0.012   4.894  11.371  0.3183  0.5851  0.1128
16261TIP3    H270275   0.086   4.780  11.349 -1.8401 -1.3758  0.2947
16262TIP3   OH270276   4.492   4.815  16.664  0.0935  0.1494  0.2529
16262TIP3    H170277   4.525   4.757  16.733 -1.4548 -1.4455 -0.2671
16262TIP3    H270278   4.569   4.837  16.613  0.8688 -0.7438  0.9942
16263TIP3   OH270279   6.710   4.409   3.722  0.0951 -0.1877 -0.3182
16263TIP3    H170280   6.733   4.319   3.745 -3.1234 -0.7112  1.4010
16263TIP3    H270281   6.709   4.455   3.806 -0.2991  0.9397 -0.9167
16264TIP3   OH270282   2.472   1.150  12.129  0.0077  0.2483 -0.3750
16264TIP3    H170283   2.561   1.122  12.105 -0.2609  0.3545 -1.5480
16264TIP3    H270284   2.484   1.201  12.209  0.5926 -2.6403  1.5590
16265TIP3   OH270285   6.019   2.134  12.094  0.8833  0.7605 -0.5118
16265TIP3    H170286   6.103   2.109  12.056  1.6933  0.8359  1.1502
16265TIP3    H270287   6.040   2.162  12.183 -1.1707 -1.7917  0.9541
16266TIP3   OH270288   1.737   6.494   1.101 -0.0224  0.0651 -0.5475
16266TIP3    H170289   1.689   6.423   1.059  1.0324 -0.3405 -1.1216
16266TIP3    H270290   1.781   6.539   1.029 -0.9169  1.5002 -0.2178
16267TIP3   OH270291   6.324   0.729  11.092  0.0310 -0.0511 -0.0858
16267TIP3    H170292   6.391   0.737  11.160  2.2427  0.0508 -2.1298
16267TIP3    H270293   6.295   0.638  11.099  0.6224 -0.1961  0.6546
16268TIP3   OH270294   2.187   6.368   3.072  0.5006  0.2385  0.6197
16268TIP3    H170295   2.140   6.426   3.012 -0.5692 -0.7391  0.4662
16268TIP3    H270296   2.236   6.309   3.014  0.7351  0.3000  0.7527
16269TIP3   OH270297   2.789   6.482  11.703  0.2664  0.1174  0.0265
16269TIP3    H170298   2.762   6.436  11.782 -1.4578  0.9586 -0.0194
16269TIP3    H270299   2.746   6.568  11.710  0.4934  0.3887 -1.5811
16270TIP3   OH270300   3.607   1.684   2.155 -0.0331 -0.2739  0.2096
16270TIP3    H170301   3.602   1.778   2.167  0.0584 -0.2754  0.2596
16270TIP3    H270302   3.606   1.671   2.060  1.0724 -0.1610  0.1795
16271TIP3   OH270303   1.247   1.809  12.417 -0.3822  0.1148 -0.2913
16271TIP3    H170304   1.221   1.779  12.329  0.5910  0.3845 -0.6821
16271TIP3    H270305   1.164   1.826  12.461 -0.8967  1.3309 -1.6429
16272TIP3   OH270306   6.437   5.963  11.478 -0.4398 -0.7097 -0.1524
16272TIP3    H170307   6.524   5.999  11.499 -0.4142 -1.5821  1.3697
16272TIP3    H270308   6.411   6.010  11.399 -0.9858  3.6410  2.3068
16273TIP3   OH270309   3.773   4.965   0.100 -0.0676 -0.9402  0.0776
16273TIP3    H170310   3.800   4.988   0.189  0.3739 -2.1755  0.2887
16273TIP3    H270311   3.853   4.971   0.048 -0.7039  1.9344 -0.7754
16274TIP3   OH270312   3.407   6.815   4.854  0.5746 -0.3584 -0.3065
16274TIP3    H170313   3.448   6.835   4.770  0.3014  1.5571 -0.0276
16274TIP3    H270314   3.322   6.859   4.849  0.2199 -0.9272  0.6592
16275TIP3   OH270315   3.869   3.935  11.803  0.0248  0.4612 -0.2187
16275TIP3    H170316   3.784   3.970  11.831 -0.0100  1.7438 -1.7616
16275TIP3    H270317   3.914   4.010  11.765  2.2572  0.0148  1.3632
16276TIP3   OH270318   4.558   3.555  14.196  0.3566 -0.2711  0.1192
16276TIP3    H170319   4.515   3.604  14.126 -1.9644  0.8640  2.1947
16276TIP3    H270320   4.489   3.501  14.233  1.7559 -1.5514  0.9651
16277TIP3   OH270321   1.976   5.472   5.348  0.2243  0.0115  0.3888
16277TIP3    H170322   2.064   5.498   5.373  0.1047 -0.3430  1.2283
16277TIP3    H270323   1.957   5.523   5.269  0.4682  1.5083  1.2583
16278TIP3   OH270324   2.860   6.224   1.482 -0.2576  0.3977  0.0997
16278TIP3    H170325   2.877   6.266   1.567  0.3466  0.5695 -0.1000
16278TIP3    H270326   2.944   6.229   1.436 -0.1973 -0.9352  0.0279
16279TIP3   OH270327   1.505   4.033   4.706 -0.0205  0.4139  0.1871
16279TIP3    H170328   1.478   3.986   4.628  0.8623  1.0392 -0.5139
16279TIP3    H270329   1.429   4.087   4.730 -2.0567 -3.0793  2.4944
16280TIP3   OH270330   5.517   6.569  11.431 -0.1203  0.4028  0.3406
16280TIP3    H170331   5.467   6.506  11.481  1.3125 -0.9765  0.1115
16280TIP3    H270332   5.488   6.557  11.340 -2.2055  2.4141  0.6484
16281TIP3   OH270333   4.542   2.418  13.371 -0.0712 -0.2081  0.2294
16281TIP3    H170334   4.606   2.428  13.441 -1.2037 -1.8869  1.5674
16281TIP3    H270335   4.499   2.504  13.366 -2.5956 -0.9750  4.3280
16282TIP3   OH270336   1.446   6.233   2.240  0.7607  0.1674 -0.5628
16282TIP3    H170337   1.428   6.327   2.230  1.8937  0.5031  0.2979
16282TIP3    H270338   1.509   6.229   2.311 -1.2960 -1.4644  1.3149
16283TIP3   OH270339   1.476   2.271  16.056  0.4889 -0.0967  0.0999
16283TIP3    H170340   1.412   2.320  16.004 -1.6522 -0.4025  2.2410
16283TIP3    H270341   1.512   2.336  16.116  0.6845 -0.3236  0.2299
16284TIP3   OH270342   3.209   6.749  17.167  0.6010  0.0391  0.2339
16284TIP3    H170343   3.267   6.817  17.132 -0.1871  0.6411  0.0632
16284TIP3    H270344   3.172   6.789  17.246 -2.6684  1.3179 -1.7541
16285TIP3   OH270345   3.374   4.027  16.960  0.1970  0.2300 -0.1517
16285TIP3    H170346   3.344   3.958  17.019 -1.3003  0.3799 -0.6853
16285TIP3    H270347   3.449   4.066  17.004  0.1273 -0.7463  0.8650
16286TIP3   OH270348   2.934   5.957   3.267  0.2170  0.1138 -0.0817
16286TIP3    H170349   2.948   5.988   3.356 -0.2050 -1.2234  0.4846
16286TIP3    H270350   3.011   5.903   3.248 -0.9563 -1.9220  0.5877
16287TIP3   OH270351   1.122   4.866  12.186 -0.3379 -0.1171 -0.0662
16287TIP3    H170352   1.160   4.797  12.131  0.4302 -0.3312  0.7040
16287TIP3    H270353   1.160   4.850  12.273 -2.7252 -0.7751  0.9382
16288TIP3   OH270354   3.124   4.645   1.583  0.1481  0.5309 -0.2582
16288TIP3    H170355   3.141   4.695   1.662 -1.9035  1.4392 -0.3143
16288TIP3    H270356   3.146   4.554   1.606  1.6329  1.0878  0.6118
16289TIP3   OH270357   6.242   0.009  11.866  0.0102  0.2852  0.0824
16289TIP3    H170358   6.303   0.080  11.883  1.2961 -0.3750 -1.4783
16289TIP3    H270359   6.156   0.044  11.889  0.9721  1.0395  2.9559
16290TIP3   OH270360   0.497   0.063   0.589 -0.2416 -0.0395  0.0358
16290TIP3    H170361   0.423   0.108   0.629 -0.8316 -1.1882  0.2748
16290TIP3    H270362   0.458  -0.003   0.531  0.5339 -1.7076  1.3108
16291TIP3   OH270363   5.986   3.335   0.890  0.6725 -0.3198  0.2724
16291TIP3    H170364   6.012   3.381   0.970 -1.5183  1.4084  0.0616
16291TIP3    H270365   5.983   3.403   0.823 -1.0904 -1.0554 -0.4394
16292TIP3   OH270366   0.967   2.590  11.866  0.3179  0.6647 -0.3596
16292TIP3    H170367   0.873   2.607  11.874  0.1747 -0.2497 -0.0325
16292TIP3    H270368   1.005   2.627  11.946  0.0032 -0.4843  0.3570
16293TIP3   OH270369   6.060   0.816   3.785  0.3073 -0.3523  0.4039
16293TIP3    H170370   6.125   0.815   3.856  0.2556  2.8138  0.6208
16293TIP3    H270371   6.108   0.788   3.708  2.1127  2.0989  0.5203
16294TIP3   OH270372   0.268   4.488  15.451 -0.1629 -0.2471 -0.2441
16294TIP3    H170373   0.297   4.543  15.524 -1.2669  0.7108 -0.4978
16294TIP3    H270374   0.349   4.450  15.416  0.2929 -1.8809  2.3239
16295TIP3   OH270375   4.759   6.611   3.189  0.5553 -0.2172  0.3823
16295TIP3    H170376   4.845   6.652   3.199  0.8403 -0.6028 -0.3963
16295TIP3    H270377   4.771   6.521   3.220  0.2042 -0.0256  1.0880
16296TIP3   OH270378   1.658   6.239  14.288 -0.2827  0.2185  0.6607
16296TIP3    H170379   1.660   6.279  14.201  1.1111  0.5643  0.8332
16296TIP3    H270380   1.607   6.159  14.277  0.9186 -0.3741 -0.7542
16297TIP3   OH270381   0.897   6.590   5.749  0.3884 -0.2901 -0.3931
16297TIP3    H170382   0.846   6.539   5.686 -1.1298 -0.9434  1.2694
16297TIP3    H270383   0.988   6.572   5.726 -0.1213 -1.2512 -1.8025
16298TIP3   OH270384   6.465   1.159  16.587 -0.7397 -0.3499 -0.4235
16298TIP3    H170385   6.507   1.112  16.659 -0.4761 -0.3001 -0.5415
16298TIP3    H270386   6.381   1.187  16.622 -0.9407 -0.9852 -0.3796
16299TIP3   OH270387   2.890   2.540   1.178 -0.3947 -0.4879  0.2453
16299TIP3    H170388   2.982   2.563   1.180 -0.0252 -1.8634  0.1638
16299TIP3    H270389   2.856   2.580   1.098  0.3439 -0.7268 -0.1905
16300TIP3   OH270390   1.224   6.130   2.010 -0.1370  0.6029 -0.1917
16300TIP3    H170391   1.199   6.149   2.100 -1.2214  2.9781 -0.9160
16300TIP3    H270392   1.146   6.149   1.959  1.0371  1.2995 -1.8186
16301TIP3   OH270393   0.985   5.173   0.977 -0.4232 -0.5012 -0.4052
16301TIP3    H170394   0.972   5.208   1.065  0.2151 -0.5388 -0.2902
16301TIP3    H270395   1.029   5.089   0.990  0.8937  0.0927 -0.7977
16302TIP3   OH270396   0.196   4.882   4.403  0.0751 -0.3601  0.0957
16302TIP3    H170397   0.291   4.873   4.405  0.4918  2.3368 -1.9681
16302TIP3    H270398   0.173   4.878   4.309 -1.7190  0.0452  0.4696
16303TIP3   OH270399   0.613   0.338  13.891  0.3552 -0.5284 -0.0682
16303TIP3    H170400   0.706   0.327  13.910  0.4183  0.2441  0.1004
16303TIP3    H270401   0.596   0.431  13.907 -0.7405 -0.9189  1.1554
16304TIP3   OH270402   5.840   5.964   3.698  0.5892 -0.2853  0.2282
16304TIP3    H170403   5.748   5.990   3.688  0.9450  0.3042 -2.2833
16304TIP3    H270404   5.850   5.945   3.791 -2.5299 -2.0659  0.3268
16305TIP3   OH270405   1.704   3.075   3.436 -0.6528 -0.4124 -0.2990
16305TIP3    H170406   1.617   3.112   3.422 -0.5313 -0.7848 -2.4373
16305TIP3    H270407   1.701   2.989   3.393  0.3705 -1.0333  0.7823
16306TIP3   OH270408   0.506   6.236  15.941 -0.0514 -0.5925  0.1426
16306TIP3    H170409   0.550   6.280  15.868  1.2097 -0.7796  0.7498
16306TIP3    H270410   0.529   6.144  15.931 -0.1242 -0.6625  0.6047
16307TIP3   OH270411   2.771   6.645  13.864  0.4446 -0.0589 -0.0059
16307TIP3    H170412   2.736   6.617  13.779 -0.7851 -0.9270  0.7508
16307TIP3    H270413   2.856   6.601  13.870 -0.0371 -1.0736 -0.2440
16308TIP3   OH270414   5.134   3.069  14.261  0.4366 -0.0835  0.4961
16308TIP3    H170415   5.166   3.153  14.295  1.0774 -0.5247  0.9942
16308TIP3    H270416   5.163   3.069  14.170 -0.6718  0.7887  0.1184
16309TIP3   OH270417   2.643   0.965   0.811 -0.0410  0.3271  0.0925
16309TIP3    H170418   2.673   0.938   0.725  0.3838  0.0438  0.3275
16309TIP3    H270419   2.620   1.058   0.800 -1.6374 -0.1174 -0.7481
16310TIP3   OH270420   0.748   5.363  14.917  0.5342  0.2113  0.3856
16310TIP3    H170421   0.731   5.350  14.824 -2.1238  2.1819  0.4633
16310TIP3    H270422   0.789   5.449  14.923 -1.7260  1.3406  1.0857
16311TIP3   OH270423   0.085   4.172   5.131  0.0764  0.0782  0.0130
16311TIP3    H170424   0.171   4.196   5.096 -0.5658  0.9742 -1.0406
16311TIP3    H270425   0.038   4.139   5.054 -0.6973  0.1059  0.4737
16312TIP3   OH270426   6.143   3.562   1.010  0.1472 -0.6962  0.4802
16312TIP3    H170427   6.071   3.574   0.949  0.5613 -0.9589 -0.0707
16312TIP3    H270428   6.194   3.642   1.002  1.3215 -1.5400 -1.0527
16313TIP3   OH270429   6.305   0.181   6.533  0.2755 -0.1072 -0.4468
16313TIP3    H170430   6.255   0.108   6.570 -0.8924  1.1074  0.4388
16313TIP3    H270431   6.394   0.147   6.526  0.5860 -0.5615  3.3181
16314TIP3   OH270432   4.694   5.356  13.094 -0.0649  0.1410 -0.1913
16314TIP3    H170433   4.697   5.332  13.001 -1.8234  1.6622 -0.7007
16314TIP3    H270434   4.659   5.445  13.095 -0.0603  0.1729  1.9438
16315TIP3   OH270435   4.296   0.195   2.639  0.2260  0.6457 -0.1995
16315TIP3    H170436   4.363   0.257   2.668  1.5366 -1.0702  0.6284
16315TIP3    H270437   4.323   0.171   2.550 -1.0723  2.2390 -1.0851
16316TIP3   OH270438   1.939   0.441   2.280 -0.4824  0.0855 -0.8019
16316TIP3    H170439   1.852   0.436   2.241 -1.1194  2.1810  0.1784
16316TIP3    H270440   1.995   0.474   2.210 -0.7871  0.1154 -1.0354
16317TIP3   OH270441   2.224   4.467   3.430 -0.1239  0.0256  0.2192
16317TIP3    H170442   2.279   4.543   3.451  0.8077 -0.5956  0.1141
16317TIP3    H270443   2.274   4.392   3.462  0.0233 -0.7255 -1.6070
16318TIP3   OH270444   2.398   1.715   3.246 -0.0286  0.2310  0.0117
16318TIP3    H170445   2.443   1.659   3.309  1.4054  0.5796 -0.6530
16318TIP3    H270446   2.419   1.804   3.273  0.7348  0.3860 -1.0220
16319TIP3   OH270447   1.438   1.572   5.667 -0.1881  0.2634  0.3161
16319TIP3    H170448   1.527   1.540   5.648  0.1298  1.3823 -0.1440
16319TIP3    H270449   1.413   1.621   5.589 -0.4702  1.5281  1.1824
16320TIP3   OH270450   6.674   2.252  11.323 -0.5451  0.0249  0.1334
16320TIP3    H170451   6.695   2.301  11.403 -3.1834  1.7218 -0.0795
16320TIP3    H270452   6.742   2.278  11.261  0.2451  0.4948  1.1663
16321TIP3   OH270453   1.023   1.393   2.698  0.3402  0.4516  0.2043
16321TIP3    H170454   1.079   1.355   2.765  1.0529  1.9467  0.4957
16321TIP3    H270455   0.954   1.327   2.684  1.7728 -1.1358  0.2990
16322TIP3   OH270456   3.421   5.315   3.187  0.3265  0.3853 -0.2651
16322TIP3    H170457   3.350   5.255   3.211  1.2953 -1.1526 -1.0613
16322TIP3    H270458   3.472   5.325   3.268  0.1554  0.1169 -0.1223
16323TIP3   OH270459   0.392   3.212  15.735  0.2943 -0.1332  0.2924
16323TIP3    H170460   0.416   3.299  15.704  1.6567 -0.3965  0.5780
16323TIP3    H270461   0.348   3.228  15.819  0.4455  0.2780  0.2935
16324TIP3   OH270462   4.877   3.973  17.167 -0.1030  0.1902 -0.2701
16324TIP3    H170463   4.861   4.043  17.103  0.2680  0.2622 -0.2889
16324TIP3    H270464   4.908   3.900  17.114  0.2290  0.2581 -0.1717
16325TIP3   OH270465   1.241   4.852  13.202 -0.3534 -0.1224 -0.1931
16325TIP3    H170466   1.330   4.888  13.208 -0.1927 -0.2906 -1.3972
16325TIP3    H270467   1.221   4.853  13.108 -1.1772 -1.1635 -0.0425
16326TIP3   OH270468   6.670   2.061   5.608 -0.5218  0.3825 -0.4551
16326TIP3    H170469   6.710   2.049   5.694 -0.4367 -0.3071 -0.5825
16326TIP3    H270470   6.625   2.145   5.614  0.9400  1.1935 -0.3046
16327TIP3   OH270471   5.232   1.261   2.137  0.2005  0.3161 -0.0246
16327TIP3    H170472   5.157   1.294   2.187  0.0876  3.6689 -2.0433
16327TIP3    H270473   5.193   1.222   2.058  0.4783  0.6240 -0.3222
16328TIP3   OH270474   4.213   4.864   2.246 -0.1294  0.1213  0.9563
16328TIP3    H170475   4.118   4.863   2.236 -0.2082  0.1256  1.6506
16328TIP3    H270476   4.245   4.802   2.181 -0.5318  0.9203 -0.0299
16329TIP3   OH270477   1.680   5.650  14.242  0.6220  0.4915 -0.8174
16329TIP3    H170478   1.723   5.662  14.157  1.5754  0.2964 -0.3833
16329TIP3    H270479   1.723   5.573  14.280 -0.7858 -0.2829 -0.7485
16330TIP3   OH270480   4.231   1.668   3.268  0.6676  0.4608  0.0849
16330TIP3    H170481   4.154   1.725   3.270  0.5630  0.3195  0.0767
16330TIP3    H270482   4.278   1.694   3.189  0.3984  0.2422 -0.1454
16331TIP3   OH270483   3.049   4.503   3.401  0.7269  0.2409 -0.3800
16331TIP3    H170484   3.138   4.499   3.366  0.0534 -0.7726 -2.1273
16331TIP3    H270485   3.001   4.557   3.338 -0.1618 -0.2832 -0.1725
16332TIP3   OH270486   0.422   2.687  13.267 -0.5360 -0.1401  0.4978
16332TIP3    H170487   0.393   2.599  13.289 -0.9919 -0.0665  0.1957
16332TIP3    H270488   0.342   2.735  13.249 -0.2167 -0.1274 -1.0329
16333TIP3   OH270489   1.745   0.232  12.305 -0.1424  0.1013 -0.1612
16333TIP3    H170490   1.663   0.222  12.256  0.2380 -2.9376 -0.3385
16333TIP3    H270491   1.807   0.267  12.241 -0.4158 -1.0016 -1.0603
16334TIP3   OH270492   5.748   1.176  14.615  0.1651 -0.1629 -0.4863
16334TIP3    H170493   5.763   1.250  14.674  0.9004 -0.3207 -0.4678
16334TIP3    H270494   5.820   1.180  14.552 -1.2253  0.6851 -2.0992
16335TIP3   OH270495   0.080   6.658   5.466 -0.1096  0.7358 -0.3562
16335TIP3    H170496   0.079   6.754   5.466 -0.4551  0.7492  0.7949
16335TIP3    H270497   0.007   6.633   5.409 -0.1731  1.1679 -0.4653
16336TIP3   OH270498   5.649   4.717  13.345  0.6827  0.0877  0.5555
16336TIP3    H170499   5.668   4.630  13.381  0.5282 -1.9447 -3.6888
16336TIP3    H270500   5.725   4.736  13.290 -0.0511  1.9400  0.1373
16337TIP3   OH270501   5.792   3.158   5.261  0.6750 -0.1906 -0.2284
16337TIP3    H170502   5.752   3.197   5.184  0.7873 -2.2359 -1.4065
16337TIP3    H270503   5.718   3.140   5.320  0.3959 -0.0206 -0.5258
16338TIP3   OH270504   5.130   2.904   5.282 -0.0993  0.3348  0.3648
16338TIP3    H170505   5.057   2.872   5.229 -0.9204 -0.9430  2.1705
16338TIP3    H270506   5.092   2.973   5.336  0.7807  1.7794 -0.7573
16339TIP3   OH270507   3.080   6.745   1.727  0.4491  0.2461  0.0244
16339TIP3    H170508   3.088   6.724   1.634 -1.3726  0.8668 -0.3135
16339TIP3    H270509   3.022   6.677   1.762 -0.3449  1.0374  0.2844
16340TIP3   OH270510   0.827   0.612   0.517  0.4616  0.4113  0.0117
16340TIP3    H170511   0.866   0.638   0.600  1.9715 -0.9322 -0.2256
16340TIP3    H270512   0.902   0.590   0.461 -0.4803  1.6963 -1.8686
16341TIP3   OH270513   3.238   6.475   1.885 -0.3988 -0.7224 -0.3570
16341TIP3    H170514   3.175   6.544   1.862 -1.5422 -1.8355 -0.6880
16341TIP3    H270515   3.202   6.436   1.965  0.7733 -0.3089  0.3965
16342TIP3   OH270516   3.746   0.579  12.756  0.2257  0.0907  0.0826
16342TIP3    H170517   3.796   0.498  12.765  0.9547  0.7440  3.2754
16342TIP3    H270518   3.672   0.568  12.816  0.1964  1.6402  0.3848
16343TIP3   OH270519   2.608   0.505   0.918  0.0088  0.1372  0.6567
16343TIP3    H170520   2.555   0.440   0.962 -2.5435  2.2003  0.9046
16343TIP3    H270521   2.646   0.459   0.843 -0.3697 -1.9679  1.7010
16344TIP3   OH270522   0.678   1.562   4.562 -0.1302 -0.0385 -0.1678
16344TIP3    H170523   0.754   1.503   4.566  0.1756  0.3942  1.6822
16344TIP3    H270524   0.696   1.619   4.487  0.4439 -1.1526 -0.8979
16345TIP3   OH270525   1.558   5.701   0.523  0.1082  0.2041  0.7926
16345TIP3    H170526   1.470   5.666   0.542  0.4637 -0.3913  1.4011
16345TIP3    H270527   1.542   5.783   0.476 -0.8025  0.7271  1.9600
16346TIP3   OH270528   4.755   4.519   0.025 -0.6453 -0.2936  0.7029
16346TIP3    H170529   4.777   4.478   0.109  3.7293 -2.0421 -1.0066
16346TIP3    H270530   4.807   4.599   0.023 -1.9899  0.6089  0.2312
16347TIP3   OH270531   3.713   0.850   1.141 -0.2130  0.6077 -0.1802
16347TIP3    H170532   3.798   0.808   1.147 -1.1827 -1.4965 -0.2357
16347TIP3    H270533   3.694   0.854   1.047  1.2477  4.3179 -0.4800
16348TIP3   OH270534   0.695   3.970  14.182 -0.4657 -0.0078  0.1850
16348TIP3    H170535   0.669   4.060  14.160 -0.4825 -0.2453 -0.8328
16348TIP3    H270536   0.615   3.918  14.168 -0.4886 -0.1674  0.8854
16349TIP3   OH270537   0.061   5.990  12.995 -0.3692 -0.4523  0.4519
16349TIP3    H170538   0.033   5.954  13.079 -0.8239 -1.8814 -0.2772
16349TIP3    H270539   0.062   6.085  13.008  0.1313 -0.6711  2.2254
16350TIP3   OH270540   0.445   4.801  14.408  0.1710 -0.2764 -0.0676
16350TIP3    H170541   0.508   4.732  14.387 -0.2219 -0.5741 -0.2928
16350TIP3    H270542   0.360   4.755  14.414  0.0110  0.0761  0.4778
16351TIP3   OH270543   3.716   2.953   0.269 -0.2646 -0.1904  0.4865
16351TIP3    H170544   3.633   2.997   0.288 -0.4525 -0.3364  0.0213
16351TIP3    H270545   3.766   3.017   0.218 -0.7272 -0.6751 -0.6029
16352TIP3   OH270546   4.967   3.939   2.438 -0.0057  0.2805 -0.3743
16352TIP3    H170547   5.005   3.930   2.525  1.6355 -0.6061 -1.1374
16352TIP3    H270548   4.907   4.013   2.445  1.2814  1.2451  1.1174
16353TIP3   OH270549   2.371   6.735   2.936 -0.5739  0.5088 -0.2890
16353TIP3    H170550   2.383   6.658   2.881 -0.8971  0.6809 -0.6036
16353TIP3    H270551   2.388   6.809   2.878  1.3948  0.6616  0.4050
16354TIP3   OH270552   2.531   3.006  17.099  0.7491 -0.1200 -0.3913
16354TIP3    H170553   2.545   3.078  17.160 -0.7652 -0.6245  0.6160
16354TIP3    H270554   2.476   3.042  17.030  0.6543 -0.1129 -0.3110
16355TIP3   OH270555   4.629   3.557  16.854  0.3686 -0.2491  0.0606
16355TIP3    H170556   4.661   3.634  16.807 -0.0235  0.0636  0.2939
16355TIP3    H270557   4.683   3.553  16.933  0.2820 -0.1189  0.1262
16356TIP3   OH270558   3.254   1.951   2.742 -0.0507  0.0970 -0.0663
16356TIP3    H170559   3.283   1.935   2.652  0.5606 -2.4590  0.4968
16356TIP3    H270560   3.313   2.019   2.774 -0.3606  1.1385 -1.6001
16357TIP3   OH270561   3.952   6.552   6.090 -0.0318  0.4720 -0.4861
16357TIP3    H170562   3.881   6.585   6.146 -0.9617 -0.3347 -1.1423
16357TIP3    H270563   3.915   6.473   6.049  0.7254  0.8558 -1.9874
16358TIP3   OH270564   5.304   4.771  14.395  0.1357 -0.6235 -0.3579
16358TIP3    H170565   5.396   4.769  14.424  0.1336 -2.3604 -0.3760
16358TIP3    H270566   5.285   4.680  14.371 -0.7205  0.1874 -3.1418
16359TIP3   OH270567   0.006   1.327   3.189  0.1900 -0.2057 -0.1651
16359TIP3    H170568  -0.003   1.370   3.104 -0.0103  1.5649  0.6936
16359TIP3    H270569  -0.083   1.321   3.223  0.0486 -2.6061 -0.8168
16360TIP3   OH270570   2.189   3.469  14.505  0.4513 -0.3925 -0.0424
16360TIP3    H170571   2.193   3.466  14.409  2.3774  0.9272 -0.0567
16360TIP3    H270572   2.110   3.520  14.524 -0.7964 -1.9148 -0.8314
16361TIP3   OH270573   1.235   5.796   2.198 -0.3237  0.3352  0.0088
16361TIP3    H170574   1.286   5.850   2.258  2.0179  0.9298 -2.3518
16361TIP3    H270575   1.230   5.847   2.117 -0.8699 -1.5903 -1.2451
16362TIP3   OH270576   0.069   0.487  16.895 -0.6968 -0.0917  0.3271
16362TIP3    H170577  -0.025   0.472  16.889 -0.6072 -0.2911 -0.7781
16362TIP3    H270578   0.100   0.482  16.805  0.2162  1.0607  0.5578
16363TIP3   OH270579   6.452   1.899   0.656  0.2453 -0.3889  0.0740
16363TIP3    H170580   6.507   1.932   0.727 -0.3533  1.1654 -0.1421
16363TIP3    H270581   6.511   1.890   0.582  0.2197  1.5590 -0.2432
16364TIP3   OH270582   4.066   5.820   0.590 -0.1787 -0.0851 -0.1444
16364TIP3    H170583   4.044   5.863   0.673  0.1731 -1.8280  0.8826
16364TIP3    H270584   4.101   5.891   0.535 -2.2156  1.4946  0.4611
16365TIP3   OH270585   0.805   5.569   2.052  0.1251 -0.7694 -0.1394
16365TIP3    H170586   0.765   5.483   2.039  1.0015 -0.9843 -1.6069
16365TIP3    H270587   0.743   5.615   2.109 -0.8202 -2.0421 -0.0776
16366TIP3   OH270588   5.309   6.809  13.207  0.2120 -0.0496 -0.0081
16366TIP3    H170589   5.316   6.889  13.259  2.3961  0.3893 -0.8654
16366TIP3    H270590   5.219   6.809  13.175 -0.2753  1.2481  1.2364
16367TIP3   OH270591   5.452   3.079   2.677 -0.3981  0.1332  0.1105
16367TIP3    H170592   5.534   3.126   2.662  0.4604 -0.9157  1.2931
16367TIP3    H270593   5.419   3.060   2.589  1.2649 -0.5064 -0.4158
16368TIP3   OH270594   2.929   0.738   0.038 -0.0480  0.4805  0.0469
16368TIP3    H170595   2.892   0.709   0.121  0.7831  0.8592  0.5585
16368TIP3    H270596   2.862   0.717  -0.027 -1.1606  1.1523  0.9433
16369TIP3   OH270597   4.087   3.850   3.843  0.1158 -0.1370  0.3380
16369TIP3    H170598   4.089   3.809   3.757 -0.2591 -0.4277  0.4650
16369TIP3    H270599   3.994   3.852   3.867  0.3586 -2.2375  1.7607
16370TIP3   OH270600   3.458   1.496  15.145  0.5660  0.8031 -0.3221
16370TIP3    H170601   3.430   1.566  15.204  0.2964 -0.2617  0.8581
16370TIP3    H270602   3.507   1.436  15.201 -1.7893 -1.5243 -0.5562
16371TIP3   OH270603   3.387   5.870   2.246  0.2366 -0.6439  0.0554
16371TIP3    H170604   3.352   5.953   2.279 -2.0455 -0.6650 -1.9903
16371TIP3    H270605   3.466   5.894   2.198 -0.5758  0.4133 -0.7783
16372TIP3   OH270606   3.197   4.026  13.751  0.2351  0.1398 -0.0095
16372TIP3    H170607   3.284   4.052  13.780 -0.5409  1.2184  1.4315
16372TIP3    H270608   3.184   3.939  13.788 -0.3783  1.1246  2.2047
16373TIP3   OH270609   3.774   0.974  12.795  0.0177  0.6638 -0.7326
16373TIP3    H170610   3.742   1.036  12.730 -2.4071  1.0851  0.7005
16373TIP3    H270611   3.829   1.026  12.853  0.7084  0.6848 -1.3894
16374TIP3   OH270612   3.199   0.333  16.631 -0.6382  0.1389  0.4588
16374TIP3    H170613   3.241   0.409  16.589 -1.1822 -0.8583 -2.0501
16374TIP3    H270614   3.253   0.259  16.605 -1.5839 -0.6493  0.7123
16375TIP3   OH270615   2.771   6.778   4.154 -0.8102 -0.3152 -0.1190
16375TIP3    H170616   2.758   6.861   4.200 -0.8880 -1.9883  3.1515
16375TIP3    H270617   2.835   6.798   4.085 -1.2189  2.5189  0.2152
16376TIP3   OH270618   4.685   1.281   4.922 -0.7233  0.4044 -0.3357
16376TIP3    H170619   4.756   1.257   4.862  1.3084 -1.2373  2.4493
16376TIP3    H270620   4.711   1.366   4.957 -0.5243  0.1575  0.1212
16377TIP3   OH270621   6.035   6.647   0.047 -0.5307  0.1774 -0.0262
16377TIP3    H170622   5.958   6.591   0.036 -0.0503 -0.5117  0.0298
16377TIP3    H270623   6.019   6.722  -0.010 -0.9442 -0.2823 -0.5226
16378TIP3   OH270624   0.849   6.604  15.766 -0.1154  0.7596 -0.0706
16378TIP3    H170625   0.775   6.549  15.741  0.4731 -0.5000  0.8563
16378TIP3    H270626   0.829   6.631  15.856  1.2191 -0.8654  0.7706
16379TIP3   OH270627   5.315   3.995   3.408  0.0878 -0.5402  0.4168
16379TIP3    H170628   5.338   4.070   3.352 -1.2076 -0.9398 -0.7008
16379TIP3    H270629   5.368   3.923   3.373  0.3482 -0.4568  0.6374
16380TIP3   OH270630   1.418   0.330  15.617  0.1045  0.3290  0.1180
16380TIP3    H170631   1.358   0.383  15.670  0.1347 -0.2735  0.7682
16380TIP3    H270632   1.410   0.242  15.653 -0.1928 -0.1864 -1.1752
16381TIP3   OH270633   2.581   5.065   2.625  0.6563 -0.0900 -0.2501
16381TIP3    H170634   2.655   5.089   2.680  0.6949 -2.6932  0.9727
16381TIP3    H270635   2.614   4.995   2.569 -0.4697 -0.2352 -0.7633
16382TIP3   OH270636   6.018   5.796   2.826  1.1250 -0.3139  0.7738
16382TIP3    H170637   5.959   5.816   2.899  1.7953 -2.4654  1.9944
16382TIP3    H270638   6.105   5.821   2.858  1.3621 -0.8169  0.5272
16383TIP3   OH270639   3.554   0.636   0.220  0.6261  0.2402  0.5207
16383TIP3    H170640   3.495   0.605   0.151 -0.2220  0.7092  1.0201
16383TIP3    H270641   3.602   0.557   0.248 -1.5075 -0.6894  1.8008
16384TIP3   OH270642   6.656   4.209   0.135  0.0249  0.2037  0.5284
16384TIP3    H170643   6.722   4.202   0.203 -1.3739 -1.2416  1.8179
16384TIP3    H270644   6.573   4.196   0.181 -0.9902 -0.6722 -1.4216
16385TIP3   OH270645   2.083   5.587   3.256  0.5689 -0.1059 -0.1766
16385TIP3    H170646   2.174   5.607   3.279  0.6636 -1.4927  0.7274
16385TIP3    H270647   2.081   5.492   3.245 -0.8899 -0.1514  0.2980
16386TIP3   OH270648   5.945   3.874   2.948 -0.1353 -0.1365 -0.3964
16386TIP3    H170649   5.884   3.808   2.981  0.5192 -0.9040 -0.7141
16386TIP3    H270650   5.905   3.905   2.866  0.4399 -1.4562 -1.2000
16387TIP3   OH270651   2.603   3.167  14.120 -0.1148  0.0675  0.3849
16387TIP3    H170652   2.593   3.100  14.187 -0.2369 -0.1677  0.1301
16387TIP3    H270653   2.627   3.246  14.169 -1.1120  0.1280  0.7920
16388TIP3   OH270654   5.194   3.202   4.890  0.2864 -0.2995 -0.2657
16388TIP3    H170655   5.280   3.202   4.847  2.1912 -1.0174  3.1914
16388TIP3    H270656   5.185   3.113   4.924 -1.9408 -0.2716 -0.6686
16389TIP3   OH270657   4.594   6.366   0.352  0.2939 -0.8638  0.1402
16389TIP3    H170658   4.681   6.332   0.369 -0.4382 -2.2802  1.2681
16389TIP3    H270659   4.598   6.401   0.264  2.0818 -0.6044  0.2999
16390TIP3   OH270660   1.705   6.307   6.007 -0.7800 -0.3074 -0.2199
16390TIP3    H170661   1.706   6.275   6.097 -0.5861  1.3425  0.3777
16390TIP3    H270662   1.762   6.383   6.006 -1.0835 -0.0535 -1.6551
16391TIP3   OH270663   5.872   5.112  15.103 -0.4400 -0.0091 -0.6556
16391TIP3    H170664   5.874   5.150  15.191 -0.6378 -0.8561 -0.2714
16391TIP3    H270665   5.808   5.165  15.055 -0.6900  0.1643 -0.1435
16392TIP3   OH270666   0.949   0.717   0.762 -0.3998  0.1320 -0.3081
16392TIP3    H170667   0.904   0.784   0.813  1.2256  1.3286 -0.3785
16392TIP3    H270668   1.042   0.742   0.765  0.2690 -2.0685 -0.4005
16393TIP3   OH270669   2.673   6.487   6.473 -0.6328 -0.3701 -0.1216
16393TIP3    H170670   2.618   6.549   6.520  0.5644  0.5612  0.1144
16393TIP3    H270671   2.743   6.465   6.536  1.2327  1.2041 -1.5201
16394TIP3   OH270672   4.154   5.488  14.297  0.0030 -0.4176 -0.7143
16394TIP3    H170673   4.058   5.492  14.304  0.0171 -1.1715  0.1064
16394TIP3    H270674   4.182   5.579  14.312 -0.4531 -0.6365  2.1043
16395TIP3   OH270675   3.716   0.630   0.668 -0.5352  0.0439  0.5421
16395TIP3    H170676   3.797   0.581   0.681 -0.0853  0.3836 -0.8264
16395TIP3    H270677   3.652   0.584   0.721 -0.2617 -2.3798 -1.0617
16396TIP3   OH270678   0.344   4.252   5.033 -0.1887 -0.2389 -0.3134
16396TIP3    H170679   0.377   4.246   5.123 -1.3635 -0.4359  0.1173
16396TIP3    H270680   0.389   4.181   4.987  0.7632  0.1388 -0.0098
16397TIP3   OH270681   3.562   0.174  12.724 -0.1187 -0.0654  0.1725
16397TIP3    H170682   3.527   0.087  12.742 -2.2178  0.8901  0.9742
16397TIP3    H270683   3.501   0.234  12.766  2.9399  1.7666  2.4528
16398TIP3   OH270684   0.071   1.092  13.530  0.2611 -0.1062 -0.0018
16398TIP3    H170685   0.047   1.075  13.621  1.2147  0.0519  0.2849
16398TIP3    H270686  -0.008   1.070  13.480 -0.1864 -0.4397  0.8340
16399TIP3   OH270687   0.181   0.613   0.166 -0.5922  0.5867 -0.2688
16399TIP3    H170688   0.104   0.637   0.115  0.5733  3.8832 -0.7218
16399TIP3    H270689   0.163   0.525   0.197 -2.4269 -0.7307 -4.3685
16400TIP3   OH270690   3.398   1.172   1.653  0.4662 -0.2225  0.1009
16400TIP3    H170691   3.355   1.242   1.702  2.4178  1.1348 -0.0224
16400TIP3    H270692   3.441   1.119   1.720  0.8029 -0.0252  0.0390
16401TIP3   OH270693   6.142   2.437  15.609 -0.0271  0.5288 -0.1410
16401TIP3    H170694   6.099   2.520  15.589 -0.5072  0.4409  0.5231
16401TIP3    H270695   6.092   2.372  15.560 -0.8795  0.3821  0.8936
16402TIP3   OH270696   3.664   4.322   4.472  0.5549  0.0019 -0.0233
16402TIP3    H170697   3.663   4.248   4.412  1.1487 -0.4838  0.5518
16402TIP3    H270698   3.578   4.321   4.513  1.1420 -1.4562  1.2616
16403TIP3   OH270699   5.047   3.288   1.670 -0.3092  0.1886  0.1851
16403TIP3    H170700   4.963   3.332   1.685 -0.6090 -0.1986 -0.3318
16403TIP3    H270701   5.109   3.335   1.726 -1.0013  0.0381  1.1001
16404TIP3   OH270702   6.061   1.957   2.727  0.1445  0.1328 -0.3258
16404TIP3    H170703   6.053   1.999   2.641  0.8016 -0.9538 -0.9388
16404TIP3    H270704   6.075   1.864   2.707 -1.5061 -0.4517  0.9896
16405TIP3   OH270705   1.387   5.078  11.201 -0.2959  0.1690  0.1623
16405TIP3    H170706   1.301   5.037  11.192 -0.0638 -0.4523  0.7183
16405TIP3    H270707   1.369   5.163  11.242 -0.6300  0.0031  0.3604
16406TIP3   OH270708   4.957   3.119   0.259 -0.4694  0.0650 -0.4097
16406TIP3    H170709   5.000   3.034   0.257  1.2114  0.8941 -1.4991
16406TIP3    H270710   4.879   3.105   0.313 -0.3933 -2.2175 -0.7889
16407TIP3   OH270711   4.725   3.200   5.830  0.4853 -0.2895 -0.1909
16407TIP3    H170712   4.716   3.139   5.903 -0.4882  2.4666  2.1803
16407TIP3    H270713   4.635   3.228   5.812  0.8257 -0.1379 -1.7853
16408TIP3   OH270714   3.621   3.649   4.910  0.3424 -0.0819 -0.3276
16408TIP3    H170715   3.614   3.740   4.882 -1.6649 -0.5043 -1.3863
16408TIP3    H270716   3.697   3.615   4.863  0.9991  0.9904 -0.0610
16409TIP3   OH270717   5.293   3.673   5.660 -0.3227  0.3440 -0.2027
16409TIP3    H170718   5.222   3.613   5.683 -0.6977  0.7186 -0.3770
16409TIP3    H270719   5.372   3.630   5.693 -0.5545 -0.3688 -0.5430
16410TIP3   OH270720   1.340   2.963   4.526 -0.2927 -0.4043 -0.4355
16410TIP3    H170721   1.318   2.899   4.594 -0.7516 -0.1653 -0.3568
16410TIP3    H270722   1.433   2.981   4.540 -0.1009 -1.2123 -0.5905
16411TIP3   OH270723   1.403   6.168  13.932 -0.1258 -0.2517 -0.0991
16411TIP3    H170724   1.486   6.215  13.940  0.1602 -0.8746  0.7170
16411TIP3    H270725   1.361   6.206  13.854  0.7806  0.2791 -0.3400
16412TIP3   OH270726   5.839   1.937  15.321  0.1283  0.3909 -0.1905
16412TIP3    H170727   5.918   1.933  15.375  0.8773 -0.5013 -1.2932
16412TIP3    H270728   5.791   1.857  15.343 -1.1562  1.5297  1.4085
16413TIP3   OH270729   0.299   4.595  16.785 -0.2223 -0.1400  0.7836
16413TIP3    H170730   0.301   4.631  16.873 -1.6363 -1.1776  1.2673
16413TIP3    H270731   0.329   4.667  16.729 -2.0740  1.5009  1.8004
16414TIP3   OH270732   5.961   6.238  12.052 -0.4279  0.3081  0.5092
16414TIP3    H170733   5.934   6.159  12.099 -0.1235 -0.5689 -0.7491
16414TIP3    H270734   6.043   6.214  12.009 -1.3661  0.6429 -1.5456
16415TIP3   OH270735   0.813   4.413   2.533  0.0192 -0.0760 -0.0041
16415TIP3    H170736   0.894   4.387   2.488 -0.4150 -0.8076 -0.3758
16415TIP3    H270737   0.776   4.331   2.566 -1.5451 -0.0130 -1.4702
16416TIP3   OH270738   1.921   3.760  11.883 -0.6430 -0.3120 -0.1474
16416TIP3    H170739   1.895   3.671  11.905  1.4451 -0.6530  1.1981
16416TIP3    H270740   1.882   3.814  11.953  1.8409 -0.7957  1.7386
16417TIP3   OH270741   0.645   1.455   4.095 -0.5187  0.0017  0.4491
16417TIP3    H170742   0.626   1.376   4.044 -1.2513 -0.0105  0.7327
16417TIP3    H270743   0.605   1.526   4.045 -0.1791  0.1511  0.3849
16418TIP3   OH270744   3.215   0.253  14.870  0.2039  0.5271  0.4162
16418TIP3    H170745   3.280   0.257  14.941 -0.3623 -0.7329  1.0408
16418TIP3    H270746   3.178   0.165  14.877 -0.7286  0.8126 -0.6922
16419TIP3   OH270747   5.477   4.436  12.817  0.2972 -0.1883  0.1800
16419TIP3    H170748   5.501   4.426  12.909 -2.3120  1.9569  1.2474
16419TIP3    H270749   5.418   4.363  12.799 -0.8753  0.5533  0.9170
16420TIP3   OH270750   6.751   4.360  11.081  0.4322 -0.0002 -0.0614
16420TIP3    H170751   6.683   4.425  11.094  1.1151  0.4969  1.1905
16420TIP3    H270752   6.718   4.303  11.011 -0.6182  1.0715 -0.4535
16421TIP3   OH270753   3.284   2.102  16.772 -0.0897  0.6236 -0.0329
16421TIP3    H170754   3.237   2.123  16.853  0.3159  1.9550 -0.1192
16421TIP3    H270755   3.327   2.019  16.790 -1.5371 -0.0564  0.4456
16422TIP3   OH270756   2.770   2.786   1.826  0.1209 -0.0147  0.3048
16422TIP3    H170757   2.847   2.762   1.878  0.3854  1.5702  0.6973
16422TIP3    H270758   2.806   2.822   1.745 -0.0874  2.0671  1.0569
16423TIP3   OH270759   4.838   0.773   5.082  0.1615 -0.4508 -0.8411
16423TIP3    H170760   4.757   0.810   5.117 -1.4966 -1.9777 -2.8086
16423TIP3    H270761   4.815   0.683   5.059  2.6303 -1.1435 -0.8673
16424TIP3   OH270762   3.301   0.923  11.459 -0.1646 -0.2227  0.1217
16424TIP3    H170763   3.239   0.868  11.506  0.3218 -1.5391 -0.6945
16424TIP3    H270764   3.300   0.888  11.369 -0.0233  1.2852 -0.4998
16425TIP3   OH270765   4.509   4.905  15.062 -0.4037  0.5854 -0.3011
16425TIP3    H170766   4.548   4.978  15.014  0.3345  1.7703  2.0105
16425TIP3    H270767   4.543   4.827  15.017  2.5314  1.5939 -0.0309
16426TIP3   OH270768   5.372   0.438   1.938  0.0849 -0.1953  0.0020
16426TIP3    H170769   5.459   0.476   1.951 -0.5092  1.2911 -0.1688
16426TIP3    H270770   5.340   0.420   2.026 -0.2265  1.1777  0.1965
16427TIP3   OH270771   4.141   2.417   5.863  0.0245 -0.2291 -0.5049
16427TIP3    H170772   4.188   2.337   5.840  0.9007  0.3260 -0.6928
16427TIP3    H270773   4.204   2.488   5.847 -0.5735  0.4637  0.1090
16428TIP3   OH270774   5.235   5.374   0.919  0.6203  0.3054  0.5497
16428TIP3    H170775   5.183   5.412   0.990  0.8353  1.8711 -0.0955
16428TIP3    H270776   5.173   5.321   0.869  0.1207  0.4860  0.9734
16429TIP3   OH270777   1.822   6.526  15.625  0.4234  0.2209 -0.2751
16429TIP3    H170778   1.885   6.597  15.625 -0.6042  1.1528 -0.1746
16429TIP3    H270779   1.738   6.568  15.608 -0.1386 -1.0310 -0.7493
16430TIP3   OH270780   5.041   6.130  15.156 -0.2890  0.2072  0.0811
16430TIP3    H170781   5.123   6.080  15.152 -0.5040 -0.0759 -1.9382
16430TIP3    H270782   4.983   6.085  15.094 -1.3281  1.5206  0.0681
16431TIP3   OH270783   6.109   1.076   5.270 -0.3350  1.0750  0.3957
16431TIP3    H170784   6.129   1.082   5.363  1.6052 -1.0320  0.2148
16431TIP3    H270785   6.163   1.144   5.229 -0.1299  1.0914  0.6936
16432TIP3   OH270786   3.546   0.662  12.202  0.7945  0.1702  0.0168
16432TIP3    H170787   3.548   0.708  12.118 -0.8186  2.4064  1.0674
16432TIP3    H270788   3.457   0.629  12.209  1.1198 -0.6145  0.5443
16433TIP3   OH270789   5.443   6.508   5.290 -0.2956  0.2137 -0.1663
16433TIP3    H170790   5.425   6.416   5.270  2.8593 -1.4340  3.3611
16433TIP3    H270791   5.495   6.539   5.216 -0.3849 -1.2214 -0.8653
16434TIP3   OH270792   2.735   3.146  12.603 -0.1122 -0.3280 -0.1906
16434TIP3    H170793   2.774   3.079  12.547  0.1399 -0.5923  0.3017
16434TIP3    H270794   2.643   3.120  12.610 -0.6580  0.8348 -2.1614
16435TIP3   OH270795   2.401   2.381  13.908 -0.7423  0.2536  0.1811
16435TIP3    H170796   2.377   2.453  13.850 -0.6130  1.1491  1.2013
16435TIP3    H270797   2.434   2.313  13.849  2.2043  2.2114 -0.7137
16436TIP3   OH270798   4.873   0.819   2.071 -0.1275 -0.0255 -0.3091
16436TIP3    H170799   4.870   0.891   2.009  2.9352  0.4952 -0.0224
16436TIP3    H270800   4.816   0.752   2.033  0.1211  1.0108 -2.6772
16437TIP3   OH270801   5.924   1.071   4.575 -0.3783 -0.2208  0.4761
16437TIP3    H170802   5.964   1.103   4.495  0.6471 -0.1004  1.0150
16437TIP3    H270803   5.829   1.075   4.559 -0.2308  1.2770 -0.1543
16438TIP3   OH270804   4.909   1.501  14.493  0.0285  0.1446 -0.3241
16438TIP3    H170805   4.957   1.458  14.564 -1.3865 -0.2584  0.4282
16438TIP3    H270806   4.830   1.448  14.482  0.8817 -0.6919 -3.2608
16439TIP3   OH270807   1.829   0.149   2.304 -0.0629 -0.1456  0.1539
16439TIP3    H170808   1.774   0.078   2.335  0.4288 -1.1009 -1.0943
16439TIP3    H270809   1.870   0.184   2.383  0.2183 -1.7018  0.7333
16440TIP3   OH270810   5.604   2.060  15.188  0.3478 -0.2505 -0.1017
16440TIP3    H170811   5.685   2.017  15.216  1.4277  0.2852 -2.1511
16440TIP3    H270812   5.621   2.153  15.201 -0.4661 -0.2057  0.6861
16441TIP3   OH270813   6.656   5.823   5.531  0.0475  0.7317  0.0736
16441TIP3    H170814   6.645   5.829   5.626 -0.6940 -0.1217  0.0542
16441TIP3    H270815   6.740   5.866   5.514  1.6552 -1.5739  1.4748
16442TIP3   OH270816   4.574   5.946  12.106 -0.2814 -0.0776 -0.4026
16442TIP3    H170817   4.519   5.877  12.144 -2.1146  0.9330 -1.0854
16442TIP3    H270818   4.663   5.916  12.120 -0.9590 -1.2914  1.7352
16443TIP3   OH270819   0.307   0.425   5.418 -0.2969  1.3003 -0.1647
16443TIP3    H170820   0.247   0.357   5.387  1.8177 -0.9887  0.4247
16443TIP3    H270821   0.261   0.466   5.491 -1.9370  1.0898 -1.0154
16444TIP3   OH270822   2.102   0.023   2.897 -0.5455  0.4562  0.0682
16444TIP3    H170823   2.124   0.116   2.891 -0.4572  0.6704  2.6019
16444TIP3    H270824   2.185  -0.020   2.917 -1.0290  0.2332  1.7154
16445TIP3   OH270825   0.141   1.414   0.069 -0.7545  0.2802  0.0978
16445TIP3    H170826   0.165   1.401   0.161  0.8214 -0.2495 -0.3491
16445TIP3    H270827   0.083   1.341   0.049  0.9719 -1.1456  0.0100
16446TIP3   OH270828   4.342   2.700  15.755  0.5819 -0.0961  0.0675
16446TIP3    H170829   4.318   2.620  15.707  1.4752 -0.3149 -0.0499
16446TIP3    H270830   4.406   2.670  15.820 -0.6044  0.1965  1.4213
16447TIP3   OH270831   2.506   4.052   0.801  0.0278 -0.0470  0.3855
16447TIP3    H170832   2.537   4.015   0.883 -0.4232  0.1785  0.6593
16447TIP3    H270833   2.414   4.027   0.797 -0.2753  1.0297  0.5635
16448TIP3   OH270834   1.529   6.279   4.699 -0.3674  0.3974  0.2568
16448TIP3    H170835   1.444   6.234   4.700 -0.6696  0.9702  0.8579
16448TIP3    H270836   1.558   6.277   4.790  0.0919  0.5470  0.1181
16449TIP3   OH270837   0.065   4.389   0.459  0.2181 -0.0763 -0.4324
16449TIP3    H170838   0.040   4.347   0.542  0.4495 -2.1212 -1.3353
16449TIP3    H270839   0.158   4.410   0.471  0.5195 -1.2729 -0.4853
16450TIP3   OH270840   6.095   4.723  13.024 -0.2836 -0.0222 -0.0126
16450TIP3    H170841   6.048   4.764  12.951  0.1497  0.6479  0.0718
16450TIP3    H270842   6.172   4.684  12.984 -0.0457  0.3456  0.0782
16451TIP3   OH270843   2.206   5.873  13.017  0.4936 -0.2210 -0.4972
16451TIP3    H170844   2.191   5.960  12.980  2.3152  0.2122 -0.2924
16451TIP3    H270845   2.133   5.820  12.984 -0.0989  1.1249 -1.4281
16452TIP3   OH270846   2.651   5.995  11.114  0.6662  0.5379 -0.2538
16452TIP3    H170847   2.723   5.944  11.077 -1.4403 -1.7533 -1.5420
16452TIP3    H270848   2.619   6.048  11.041 -0.6134 -0.5606 -0.5509
16453TIP3   OH270849   4.240   2.578   2.631  0.1622  0.0147  0.3394
16453TIP3    H170850   4.196   2.637   2.693  1.2017  2.1273 -0.8411
16453TIP3    H270851   4.169   2.523   2.597 -0.6207 -0.4430  2.5015
16454TIP3   OH270852   3.294   3.202  10.907  0.2854 -0.4064  0.1352
16454TIP3    H170853   3.237   3.252  10.966 -0.8421  1.1528 -2.1179
16454TIP3    H270854   3.241   3.126  10.881  0.0267 -0.0743 -0.3256
16455TIP3   OH270855   2.656   4.310   0.738  0.3903  0.4606 -0.2899
16455TIP3    H170856   2.672   4.217   0.756  1.5741  0.2506 -2.0846
16455TIP3    H270857   2.699   4.356   0.810  0.3917 -0.3630  0.2513
16456TIP3   OH270858   0.265   3.253  16.191 -0.0221 -0.1119 -0.4651
16456TIP3    H170859   0.278   3.174  16.243 -1.1261 -1.4330 -2.0712
16456TIP3    H270860   0.207   3.308  16.244  0.4852 -0.5011  0.5206
16457TIP3   OH270861   6.424   0.527   3.869  0.0126 -0.5352  0.7758
16457TIP3    H170862   6.493   0.463   3.888 -0.2551 -1.1016 -0.0911
16457TIP3    H270863   6.471   0.608   3.850  0.4417 -0.8974  0.2637
16458TIP3   OH270864   6.783   6.101   2.757  0.0972  0.3616 -0.0572
16458TIP3    H170865   6.731   6.073   2.832  1.7776  1.0136  1.4016
16458TIP3    H270866   6.867   6.057   2.767  0.7508  1.3526 -0.9110
16459TIP3   OH270867   1.979   4.601  12.209 -0.0771  0.0498 -0.0807
16459TIP3    H170868   1.975   4.565  12.121 -1.2457 -1.5751  0.5851
16459TIP3    H270869   2.009   4.691  12.197  0.7813 -0.4327 -2.0291
16460TIP3   OH270870   2.314   6.525   1.802 -0.9251 -0.5172 -0.5379
16460TIP3    H170871   2.287   6.502   1.713 -0.2308 -1.0057 -0.6284
16460TIP3    H270872   2.355   6.446   1.836 -1.3438 -0.3901  0.2866
16461TIP3   OH270873   0.378   5.707   0.235 -0.1980  1.0684  0.5173
16461TIP3    H170874   0.288   5.678   0.221  0.7176 -3.5407  2.5061
16461TIP3    H270875   0.421   5.694   0.151 -0.3752 -1.5508  0.7647
16462TIP3   OH270876   3.619   6.461  14.548  0.1162 -0.0078 -0.0713
16462TIP3    H170877   3.662   6.376  14.549  1.8612  0.8136 -0.4538
16462TIP3    H270878   3.561   6.460  14.624 -2.0634 -2.5171 -1.6113
16463TIP3   OH270879   1.505   6.543  15.102 -0.0295  0.3566 -0.2073
16463TIP3    H170880   1.551   6.475  15.151  0.4436 -0.4805 -1.7297
16463TIP3    H270881   1.482   6.501  15.019  0.0210  1.9677 -1.0876
16464TIP3   OH270882   4.134   1.596  10.770 -0.0809 -0.1785 -0.1406
16464TIP3    H170883   4.043   1.588  10.740 -0.1596  1.6898 -0.5450
16464TIP3    H270884   4.178   1.518  10.736 -1.1348 -0.2242 -1.4879
16465TIP3   OH270885   2.050   4.867   4.997 -0.0927  0.5346 -0.5020
16465TIP3    H170886   2.042   4.771   4.998  3.4279  0.1182  0.8716
16465TIP3    H270887   2.015   4.894   5.082  0.2750  0.3132 -0.2788
16466TIP3   OH270888   0.400   4.256  14.619 -0.5417  0.3750  0.9108
16466TIP3    H170889   0.410   4.350  14.603 -2.5120  0.5586  0.4721
16466TIP3    H270890   0.314   4.235  14.583  1.2139 -2.3423 -2.2523
16467TIP3   OH270891   1.705   4.776   0.643 -0.1924  0.1444 -0.0188
16467TIP3    H170892   1.731   4.866   0.624  0.7591 -0.1095  0.0255
16467TIP3    H270893   1.772   4.723   0.600 -0.6375 -0.5366  0.1256
16468TIP3   OH270894   1.438   2.691   3.699 -0.3075  0.2765 -0.0598
16468TIP3    H170895   1.433   2.701   3.604 -0.5956  0.1241 -0.0619
16468TIP3    H270896   1.521   2.646   3.714  0.0659  0.9116 -0.1887
16469TIP3   OH270897   3.358   3.812   5.963  0.5028 -0.1444 -0.4667
16469TIP3    H170898   3.396   3.725   5.978  1.8773  0.3493 -0.9566
16469TIP3    H270899   3.274   3.809   6.009  0.4190 -1.7994 -0.6607
16470TIP3   OH270900   4.703   6.237  12.706 -0.5050  0.1655 -0.7159
16470TIP3    H170901   4.737   6.291  12.776 -4.5600  0.1683  1.6053
16470TIP3    H270902   4.685   6.298  12.634  0.4789  0.7752 -0.4600
16471TIP3   OH270903   4.790   3.805  13.566 -0.2334 -0.3802  0.1523
16471TIP3    H170904   4.854   3.849  13.509 -1.5142 -0.0063 -1.0518
16471TIP3    H270905   4.832   3.803  13.652  2.7781 -3.0206 -1.1740
16472TIP3   OH270906   1.910   4.939   5.238  0.8311  0.4761  0.2009
16472TIP3    H170907   1.871   5.026   5.242 -0.0408  0.1584 -0.9789
16472TIP3    H270908   1.839   4.880   5.267  1.1339  0.0798  0.1404
16473TIP3   OH270909   2.444   1.188   2.132  0.0526  0.2218 -0.4577
16473TIP3    H170910   2.434   1.230   2.218 -1.0499 -0.6188 -0.1506
16473TIP3    H270911   2.455   1.261   2.071 -1.7509  0.9915  0.0673
16474TIP3   OH270912   4.045   0.891  10.605 -0.0795  0.4852 -0.0370
16474TIP3    H170913   4.099   0.825  10.650  0.1400  1.6112  1.4628
16474TIP3    H270914   4.087   0.903  10.520 -0.1875 -1.3455 -0.3928
16475TIP3   OH270915   3.213   0.701   5.669  0.2361  0.1693 -0.0647
16475TIP3    H170916   3.222   0.674   5.578 -1.1595 -0.9783  0.0934
16475TIP3    H270917   3.262   0.634   5.718 -2.2059 -1.5142  0.2437
16476TIP3   OH270918   0.220   2.166  15.889 -0.1795  0.2681  0.4944
16476TIP3    H170919   0.135   2.153  15.931 -0.6732  0.0527 -0.5415
16476TIP3    H270920   0.203   2.151  15.796  1.2659 -1.0303  0.4168
16477TIP3   OH270921   0.942   3.282   0.871 -0.4497  0.3163  0.7122
16477TIP3    H170922   0.871   3.242   0.821 -1.0634  0.1880  1.6785
16477TIP3    H270923   1.020   3.233   0.845 -0.8265 -0.0104  0.1853
16478TIP3   OH270924   4.237   1.836  16.207  0.0004 -1.0725  0.2343
16478TIP3    H170925   4.189   1.904  16.254 -0.7719 -2.1322  1.0261
16478TIP3    H270926   4.312   1.816  16.263  0.2460 -0.8553 -0.0150
16479TIP3   OH270927   1.211   0.554  13.998  0.6396  0.1208 -0.0437
16479TIP3    H170928   1.194   0.460  14.012  0.6782  0.1928  0.5255
16479TIP3    H270929   1.132   0.597  14.032  0.5642  0.2867 -0.4321
16480TIP3   OH270930   4.330   4.071  13.881  0.0912  0.5557  0.2391
16480TIP3    H170931   4.294   4.149  13.924  0.2776  0.1456  1.1575
16480TIP3    H270932   4.269   4.001  13.903  2.0610 -0.4763  3.0192
16481TIP3   OH270933   3.185   2.251   2.287  0.2809 -0.2932 -0.3567
16481TIP3    H170934   3.130   2.241   2.208  0.7553 -1.1425 -0.5947
16481TIP3    H270935   3.139   2.316   2.340  1.3312  2.4429 -2.5429
16482TIP3   OH270936   3.186   6.814   3.173 -0.0821  0.4466 -0.3451
16482TIP3    H170937   3.274   6.838   3.146 -0.3846  1.8033 -0.1826
16482TIP3    H270938   3.134   6.818   3.093  0.2298 -1.6847 -0.7159
16483TIP3   OH270939   1.628   5.173  13.258 -0.1122  0.9504 -0.9998
16483TIP3    H170940   1.624   5.156  13.164 -1.3365 -0.9866 -0.6747
16483TIP3    H270941   1.538   5.197  13.282  0.4099  2.5030 -0.4629
16484TIP3   OH270942   2.560   4.980  15.292  0.1546 -0.6122  0.3757
16484TIP3    H170943   2.597   5.032  15.364  1.6969  0.5177 -1.1605
16484TIP3    H270944   2.474   5.018  15.277  1.7218  2.6373 -1.5996
16485TIP3   OH270945   4.305   3.135   5.077 -0.1163 -0.1276  0.1984
16485TIP3    H170946   4.359   3.207   5.045  0.6871 -1.3275 -1.2872
16485TIP3    H270947   4.248   3.113   5.004 -0.5107 -0.8519  0.7110
16486TIP3   OH270948   5.035   5.345   3.404 -0.1499 -0.0146 -0.6524
16486TIP3    H170949   5.040   5.382   3.316  0.5387 -1.3171 -1.1909
16486TIP3    H270950   4.958   5.288   3.402 -1.0518  1.1198  0.0901
16487TIP3   OH270951   2.996   6.479  16.542 -0.0723  0.3145 -0.5142
16487TIP3    H170952   3.090   6.492  16.528  0.4913 -2.5820 -0.0357
16487TIP3    H270953   2.974   6.537  16.615  0.7540  2.7414 -2.0644
16488TIP3   OH270954   4.434   1.965   0.149  0.1912 -0.1109 -0.4034
16488TIP3    H170955   4.366   1.988   0.213  1.6425  2.5949  0.3572
16488TIP3    H270956   4.476   1.888   0.186 -1.4158 -0.8832 -0.0864
16489TIP3   OH270957   0.881   6.240  12.899 -0.1995 -0.0128 -0.1816
16489TIP3    H170958   0.913   6.223  12.988 -1.4663 -0.3292  0.2455
16489TIP3    H270959   0.805   6.297  12.912  0.2667  0.8546 -1.1629
16490TIP3   OH270960   3.650   4.513   5.060  0.1462  0.3564 -0.2090
16490TIP3    H170961   3.556   4.506   5.078 -0.1812  1.2841 -1.4079
16490TIP3    H270962   3.668   4.441   4.999  0.7597 -1.2980  1.7718
16491TIP3   OH270963   3.322   2.853   0.191 -0.3631 -0.3227  0.7045
16491TIP3    H170964   3.235   2.857   0.151 -0.3648 -0.7743  0.6578
16491TIP3    H270965   3.348   2.944   0.201 -1.2748 -0.1453  1.6807
16492TIP3   OH270966   4.320   4.166   5.089 -0.2970 -0.1112 -0.2038
16492TIP3    H170967   4.376   4.245   5.087 -0.4024 -0.0425 -0.5808
16492TIP3    H270968   4.365   4.107   5.149  0.9087 -0.5839 -1.5198
16493TIP3   OH270969   4.673   0.393   1.318  0.0571  0.1152 -0.3473
16493TIP3    H170970   4.633   0.359   1.238  1.9558  0.1565 -1.3750
16493TIP3    H270971   4.743   0.330   1.338  0.4290  0.7940  0.5523
16494TIP3   OH270972   0.154   1.817   4.574  0.0385 -0.2495  0.0442
16494TIP3    H170973   0.190   1.807   4.662  0.6698 -0.6810 -0.2486
16494TIP3    H270974   0.188   1.741   4.526  0.2031  0.2966 -0.7265
16495TIP3   OH270975   0.561   4.232   2.362 -0.1389 -0.4035  0.5896
16495TIP3    H170976   0.611   4.186   2.294 -0.5264 -1.1083  0.7799
16495TIP3    H270977   0.615   4.223   2.441 -0.2590 -0.6187  0.6484
16496TIP3   OH270978   2.868   0.899   1.527 -0.1309 -0.5364  0.3603
16496TIP3    H170979   2.848   0.969   1.465 -1.3710 -1.3202 -0.1596
16496TIP3    H270980   2.920   0.836   1.477 -1.0057 -1.0975  0.1335
16497TIP3   OH270981   4.339   4.718   4.757  0.6446  0.0701  0.2654
16497TIP3    H170982   4.302   4.665   4.828 -0.9689  0.0059 -0.5836
16497TIP3    H270983   4.279   4.792   4.749  1.5341  0.7566 -0.1913
16498TIP3   OH270984   6.523   0.293   4.300 -0.4235  0.3966 -0.5675
16498TIP3    H170985   6.486   0.380   4.315  0.7695  0.5797  1.7164
16498TIP3    H270986   6.495   0.242   4.376  0.5216 -0.6542 -0.9057
16499TIP3   OH270987   2.894   2.328   3.811 -0.5515  0.5104 -0.0396
16499TIP3    H170988   2.814   2.306   3.859 -0.7497 -0.2514 -0.6960
16499TIP3    H270989   2.901   2.260   3.744  0.1463  1.0977 -0.5789
16500TIP3   OH270990   5.855   2.566   3.428  0.1377 -0.0867 -0.2767
16500TIP3    H170991   5.930   2.608   3.386 -0.8991  0.2172 -1.9025
16500TIP3    H270992   5.786   2.566   3.361 -0.7642 -1.9478  0.5825
16501TIP3   OH270993   2.794   1.320  16.646 -0.3530 -0.7583 -0.1499
16501TIP3    H170994   2.885   1.345  16.659 -0.6787  1.1895 -1.2099
16501TIP3    H270995   2.760   1.309  16.735  0.8511 -1.3592  0.2601
16502TIP3   OH270996   6.645   4.469  14.735 -0.1709 -0.1507 -0.3984
16502TIP3    H170997   6.628   4.467  14.641 -0.4456 -1.3974 -0.3302
16502TIP3    H270998   6.611   4.554  14.763  0.1307  0.3363 -1.4584
16503TIP3   OH270999   6.341   4.709  16.282 -0.1188 -0.1968 -0.3296
16503TIP3    H171000   6.434   4.719  16.261 -0.1692 -0.7338 -0.8396
16503TIP3    H271001   6.337   4.720  16.377  0.5398 -0.6419 -0.2424
16504TIP3   OH271002   2.054   6.134   4.343 -0.0195 -0.2117  0.3724
16504TIP3    H171003   2.124   6.196   4.322  0.6063 -1.1406 -0.3466
16504TIP3    H271004   2.011   6.117   4.259  0.2739 -1.2886  0.4303
16505TIP3   OH271005   4.684   1.328  14.484 -0.0820 -0.4960  0.0893
16505TIP3    H171006   4.693   1.282  14.401 -0.9300  2.0824 -1.5365
16505TIP3    H271007   4.591   1.350  14.490 -0.1505 -1.1057  2.0426
16506TIP3   OH271008   2.126   4.365   0.063 -0.0004  0.0418  0.3097
16506TIP3    H171009   2.198   4.420   0.033 -0.4263  0.2748 -0.3097
16506TIP3    H271010   2.125   4.291   0.002  0.0403 -0.2273  0.6319
16507TIP3   OH271011   1.088   5.801  14.965  0.6167  0.0744  0.2356
16507TIP3    H171012   1.153   5.871  14.956  0.4748  0.0722 -1.0102
16507TIP3    H271013   1.011   5.845  15.001  0.9899  0.2590  0.8320
16508TIP3   OH271014   1.792   0.770   4.853 -0.1359 -0.2438  0.5560
16508TIP3    H171015   1.791   0.787   4.947  0.5663 -1.6292  0.8318
16508TIP3    H271016   1.811   0.677   4.845  3.4670  0.4435 -0.9780
16509TIP3   OH271017   1.279   4.418   0.786  0.0857  0.2749  0.7570
16509TIP3    H171018   1.329   4.491   0.751  1.3097 -0.7973  0.1751
16509TIP3    H271019   1.345   4.354   0.813 -0.9396 -0.5295  1.4555
16510TIP3   OH271020   4.092   4.098   3.116 -0.1751 -0.0734 -0.5027
16510TIP3    H171021   4.118   4.190   3.113 -0.4250 -0.0201 -1.1488
16510TIP3    H271022   4.080   4.079   3.209 -0.0458  0.5273 -0.3636
16511TIP3   OH271023   0.598   1.601   5.061 -0.5003 -0.1491 -0.6926
16511TIP3    H171024   0.614   1.694   5.052 -1.3058  0.4654  2.6926
16511TIP3    H271025   0.683   1.560   5.048  0.0404  1.1360 -1.3255
16512TIP3   OH271026   0.485   3.395   0.722  0.3001 -0.5357  0.4044
16512TIP3    H171027   0.474   3.472   0.665  3.7635  0.3705  0.7322
16512TIP3    H271028   0.476   3.321   0.662  1.8637  0.3380 -1.0235
16513TIP3   OH271029   6.417   2.870   1.192 -0.4904  0.5759  0.4019
16513TIP3    H171030   6.491   2.884   1.250  1.3924 -0.9390 -1.4815
16513TIP3    H271031   6.361   2.809   1.239  0.8554 -0.4017  0.7814
16514TIP3   OH271032   1.613   1.835   0.956  0.2311 -0.3421  0.5513
16514TIP3    H171033   1.557   1.836   0.879 -1.0360  0.3647  1.4421
16514TIP3    H271034   1.579   1.905   1.012  2.1905  0.3018  1.0257
16515TIP3   OH271035   4.455   4.763  11.554 -0.1273  0.5301 -0.1876
16515TIP3    H171036   4.424   4.678  11.522  0.6990  0.1878 -0.0931
16515TIP3    H271037   4.517   4.793  11.487 -0.2373  0.9600 -0.1038
16516TIP3   OH271038   6.748   2.623   1.507  0.2455 -0.0969  0.2010
16516TIP3    H171039   6.835   2.645   1.539 -0.1673 -0.8950  2.0354
16516TIP3    H271040   6.758   2.538   1.464  0.3116 -0.4252  0.8480
16517TIP3   OH271041   6.461   1.910   2.035 -0.4669  0.5149 -0.2442
16517TIP3    H171042   6.495   1.977   2.094  1.0018  0.5726 -1.1055
16517TIP3    H271043   6.449   1.955   1.952 -0.5478 -0.0399 -0.5366
16518TIP3   OH271044   0.123   2.939   3.030 -0.1780  0.4109  0.5023
16518TIP3    H171045   0.093   2.891   3.107  0.1934  2.6303  2.1125
16518TIP3    H271046   0.212   2.909   3.016  0.4820  1.4204  2.2379
16519TIP3   OH271047   0.004   0.825  11.983 -0.3848 -0.2178 -0.1536
16519TIP3    H171048   0.089   0.785  11.998 -0.6557 -0.6619  0.2098
16519TIP3    H271049  -0.059   0.765  12.024 -0.8387  0.2907 -0.0898
16520TIP3   OH271050   1.977   6.162   3.661  0.0678 -0.0570 -0.2190
16520TIP3    H171051   1.962   6.213   3.582  1.7842  1.2206  0.2132
16520TIP3    H271052   1.953   6.222   3.733 -0.4618 -0.8248  0.2624
16521TIP3   OH271053   0.905   5.026  16.661 -0.2507 -0.9127 -0.1751
16521TIP3    H171054   0.972   4.975  16.616  0.9508  0.5574 -0.1589
16521TIP3    H271055   0.945   5.050  16.744 -1.9195 -2.4103  1.1294
16522TIP3   OH271056   0.606   1.821  14.634 -0.1437  0.3082 -0.2039
16522TIP3    H171057   0.628   1.732  14.664 -0.9377  0.1511 -0.0635
16522TIP3    H271058   0.522   1.840  14.675  0.5143  1.5636  0.6311
16523TIP3   OH271059   4.985   1.824  16.472  0.0084 -0.2271  0.1156
16523TIP3    H171060   4.981   1.773  16.392 -2.6405 -1.0275  0.6625
16523TIP3    H271061   4.963   1.914  16.446  0.9961 -0.0934 -0.2930
16524TIP3   OH271062   2.868   4.095  14.293  0.9141 -0.3381 -0.4263
16524TIP3    H171063   2.811   4.057  14.360  0.1720 -0.7335 -1.2674
16524TIP3    H271064   2.940   4.033  14.284  1.5942  0.2393  0.7522
16525TIP3   OH271065   3.401   4.439  11.444 -0.5864  0.0153 -0.1303
16525TIP3    H171066   3.377   4.350  11.419 -0.2256 -0.4790  1.1632
16525TIP3    H271067   3.378   4.445  11.537 -1.4890  1.5986 -0.4090
16526TIP3   OH271068   6.083   6.604   6.830 -0.0709 -0.5628 -0.5615
16526TIP3    H171069   6.163   6.551   6.828  0.4576  0.1372  0.7438
16526TIP3    H271070   6.014   6.544   6.857  0.7026 -0.4494  1.9044
16527TIP3   OH271071   1.434   2.869  14.462  0.1739  0.6507  0.4015
16527TIP3    H171072   1.482   2.911  14.533 -0.0555  0.8552  0.4399
16527TIP3    H271073   1.358   2.927  14.447  0.4498  0.8491 -0.3011
16528TIP3   OH271074   3.551   3.023   1.612  0.7188  1.0239 -0.2439
16528TIP3    H171075   3.462   3.036   1.580  0.1898 -1.1616  0.1502
16528TIP3    H271076   3.541   3.012   1.707  1.0558 -1.3757 -0.4157
16529TIP3   OH271077   5.545   0.846   4.312  0.0469 -0.2857 -0.2422
16529TIP3    H171078   5.595   0.920   4.279 -2.2102  2.3118  1.7515
16529TIP3    H271079   5.571   0.840   4.404 -0.1707 -1.7132 -0.2543
16530TIP3   OH271080   1.264   2.730  15.105  0.8209 -0.1252 -0.0793
16530TIP3    H171081   1.170   2.746  15.112  0.4881 -2.0198  0.3094
16530TIP3    H271082   1.284   2.744  15.013  0.3012  0.9094 -0.0467
16531TIP3   OH271083   0.847   2.836  14.064 -0.4341 -0.1206 -0.2676
16531TIP3    H171084   0.883   2.892  14.133 -0.4525 -1.5430  0.9645
16531TIP3    H271085   0.860   2.885  13.983  0.4348  1.2066  0.6377
16532TIP3   OH271086   6.094   2.522   4.161 -0.3999  0.2446 -0.5946
16532TIP3    H171087   6.181   2.497   4.131  0.2019  1.0337  0.4143
16532TIP3    H271088   6.092   2.617   4.152 -0.1093  0.5527  1.9160
16533TIP3   OH271089   3.598   5.798  13.385 -0.2397 -0.1470  0.1033
16533TIP3    H171090   3.649   5.879  13.384 -1.3525  0.5830 -0.6181
16533TIP3    H271091   3.567   5.789  13.295 -0.9312 -0.8523  0.4020
16534TIP3   OH271092   3.722   0.838   6.507  1.0950  0.5047 -0.1769
16534TIP3    H171093   3.773   0.762   6.534  1.5939  1.0834  0.5439
16534TIP3    H271094   3.770   0.913   6.542 -0.6918  1.0362  1.3421
16535TIP3   OH271095   3.926   0.357  11.990 -0.0013  0.0567 -0.3974
16535TIP3    H171096   3.954   0.392  12.075 -1.3019  0.9908 -0.3253
16535TIP3    H271097   3.860   0.420  11.959 -0.5377 -1.0047 -1.4655
16536TIP3   OH271098   0.991   1.586   2.196  0.5625  0.0219  0.5093
16536TIP3    H171099   0.976   1.665   2.248 -1.7328 -0.1849  0.2599
16536TIP3    H271100   1.060   1.540   2.243  2.9831  2.7333 -0.0504
16537TIP3   OH271101   0.198   1.114   2.369 -0.1247  0.2693  0.1790
16537TIP3    H171102   0.239   1.134   2.285 -0.1424 -0.4980 -0.0143
16537TIP3    H271103   0.169   1.023   2.361  1.6772 -0.5001  1.7438
16538TIP3   OH271104   2.973   4.470   3.673  0.5890  0.1759  0.4208
16538TIP3    H171105   3.002   4.480   3.582 -0.0370  0.1664  0.2149
16538TIP3    H271106   2.946   4.378   3.679 -2.0823  0.8310 -0.2205
16539TIP3   OH271107   3.922   0.071   5.274 -0.3358 -0.1950 -0.0079
16539TIP3    H171108   3.987   0.051   5.206  0.0428 -0.9339  0.5491
16539TIP3    H271109   3.964   0.138   5.328 -0.3098 -0.1829 -0.0430
16540TIP3   OH271110   4.163   5.448  15.821 -0.1574  0.0325  0.5657
16540TIP3    H171111   4.121   5.490  15.897  1.9606 -0.6977  2.2415
16540TIP3    H271112   4.218   5.517  15.783 -0.2405  0.0431  0.4640
16541TIP3   OH271113   3.975   2.030   4.546 -0.4620 -0.5825 -0.5656
16541TIP3    H171114   4.003   2.034   4.638  1.5478 -0.7110 -1.1218
16541TIP3    H271115   3.891   2.077   4.545 -0.3755 -0.2911  1.2703
16542TIP3   OH271116   6.504   4.113  11.951  0.6141 -0.4908 -0.4306
16542TIP3    H171117   6.512   4.199  11.910  1.5823 -0.1882  0.3531
16542TIP3    H271118   6.584   4.067  11.925  0.5246 -0.8312 -0.1093
16543TIP3   OH271119   0.730   3.540  15.804 -0.4301  0.1123  0.0561
16543TIP3    H171120   0.684   3.458  15.823 -1.6456  1.1251  1.7497
16543TIP3    H271121   0.822   3.514  15.794  0.1311 -1.0212  5.3200
16544TIP3   OH271122   5.972   2.325   3.488  0.1753  0.5664 -0.0590
16544TIP3    H171123   5.944   2.405   3.444  0.0052  0.0429 -0.9312
16544TIP3    H271124   5.900   2.264   3.473 -0.4565  0.7363  2.0297
16545TIP3   OH271125   1.725   4.542   3.729  0.1383  0.3414  0.6467
16545TIP3    H171126   1.750   4.458   3.767 -0.1120 -0.1750 -0.3055
16545TIP3    H271127   1.802   4.598   3.740  2.1031 -1.3740 -2.8016
16546TIP3   OH271128   2.993   0.029  12.894 -0.3983 -0.0984  0.2658
16546TIP3    H171129   3.075   0.059  12.855  1.4572 -3.0422  1.5627
16546TIP3    H271130   2.965  -0.045  12.840 -1.4924  0.0269  0.6181
16547TIP3   OH271131   5.262   0.473   2.437 -0.0441 -0.0030  0.2792
16547TIP3    H171132   5.284   0.451   2.528  1.3449  2.3310  0.6236
16547TIP3    H271133   5.174   0.509   2.442 -0.0958 -0.1770  0.6605
16548TIP3   OH271134   4.718   5.788   5.557  0.4281 -0.0400  0.0489
16548TIP3    H171135   4.793   5.773   5.499 -0.0434  1.1255 -0.8986
16548TIP3    H271136   4.744   5.861   5.612  0.6130 -0.7161  0.8884
16549TIP3   OH271137   4.287   2.258  12.018 -0.2348  0.4870 -0.1239
16549TIP3    H171138   4.268   2.350  11.999 -2.5395 -0.0106 -0.4968
16549TIP3    H271139   4.344   2.230  11.947 -0.6922  1.2529 -0.8095
16550TIP3   OH271140   4.192   2.857   4.937 -0.6713  0.5670 -0.1019
16550TIP3    H171141   4.183   2.905   4.855 -1.6731 -0.0395 -0.3673
16550TIP3    H271142   4.168   2.767   4.914  0.1245  0.1607  0.6167
16551TIP3   OH271143   5.235   4.224  14.301 -0.0331  0.0045 -0.3865
16551TIP3    H171144   5.268   4.186  14.219 -2.1169 -2.7364 -0.1034
16551TIP3    H271145   5.150   4.260  14.279  0.6516  1.9822  0.0210
16552TIP3   OH271146   4.963   1.650  16.251 -0.7828  0.2208 -0.0277
16552TIP3    H171147   4.972   1.560  16.222  0.0425 -1.1440  3.8264
16552TIP3    H271148   5.033   1.697  16.206 -1.0725 -1.0780 -1.9256
16553TIP3   OH271149   0.456   3.942  13.861 -0.6550 -0.1432  0.3815
16553TIP3    H171150   0.477   3.894  13.781 -0.5598 -0.0805  0.3694
16553TIP3    H271151   0.536   3.990  13.882 -1.4777  2.0465 -1.0298
16554TIP3   OH271152   4.147   6.001  14.695 -0.4418 -0.1950  0.3525
16554TIP3    H171153   4.053   6.013  14.683 -0.4070 -0.8564 -0.6702
16554TIP3    H271154   4.167   5.917  14.653  0.6408  0.0449  0.3442
16555TIP3   OH271155   6.751   1.507  11.435 -0.4782 -0.4253 -0.3922
16555TIP3    H171156   6.839   1.521  11.399 -0.7494 -0.8189 -1.2314
16555TIP3    H271157   6.692   1.545  11.370 -0.9183  0.1809  0.3490
16556TIP3   OH271158   5.002   5.799   2.389 -0.2956 -0.6076 -0.4414
16556TIP3    H171159   4.919   5.836   2.358 -1.2785 -2.3881 -0.0990
16556TIP3    H271160   5.055   5.875   2.412 -2.5507  0.5920  1.2017
16557TIP3   OH271161   4.439   4.618   1.347 -0.1581  0.4608 -0.3096
16557TIP3    H171162   4.380   4.671   1.402 -0.3042  0.7830 -0.7710
16557TIP3    H271163   4.391   4.607   1.265  0.3600  0.5943 -0.6335
16558TIP3   OH271164   5.408   2.920  14.784 -0.4980 -0.8211  0.0322
16558TIP3    H171165   5.400   2.878  14.698  1.1959  0.2998 -0.7261
16558TIP3    H271166   5.499   2.951  14.787 -1.4179  2.1482  0.7990
16559TIP3   OH271167   0.607   6.380  14.638  0.3975 -0.2280 -0.1896
16559TIP3    H171168   0.525   6.364  14.686  1.0613 -0.9245  0.7334
16559TIP3    H271169   0.579   6.386  14.546 -0.6126 -1.0667  0.0415
16560TIP3   OH271170   1.346   1.450  14.905 -0.2655 -0.2288  0.6089
16560TIP3    H171171   1.407   1.412  14.840 -0.2124  1.1111 -0.1527
16560TIP3    H271172   1.261   1.450  14.860 -0.6030 -0.9427  1.2197
16561TIP3   OH271173   0.451   1.863   2.748 -0.0476 -0.2472 -0.1160
16561TIP3    H171174   0.430   1.776   2.781  0.2177 -0.6487 -0.9659
16561TIP3    H271175   0.545   1.858   2.729  0.1317  0.4744  0.5608
16562TIP3   OH271176   6.283   0.468   2.690  0.3454  0.2196 -0.0404
16562TIP3    H171177   6.266   0.529   2.762  0.3347 -1.2088  1.2193
16562TIP3    H271178   6.222   0.395   2.705  1.2083 -0.6856 -0.7851
16563TIP3   OH271179   6.673   0.143  16.311 -0.1161  0.5695 -0.2996
16563TIP3    H171180   6.647   0.054  16.286  1.3821  0.2862 -1.0082
16563TIP3    H271181   6.594   0.196  16.299 -1.1605 -0.7230  0.5520
16564TIP3   OH271182   6.820   4.314  14.332  0.0066 -0.3220 -0.3756
16564TIP3    H171183   6.750   4.367  14.294  0.2537  1.3183  1.2975
16564TIP3    H271184   6.899   4.341  14.285  0.2664  1.4941  0.9760
16565TIP3   OH271185   5.137   5.742   0.508  0.1993  0.1365  0.4215
16565TIP3    H171186   5.058   5.710   0.466 -0.1262  0.4211  0.8045
16565TIP3    H271187   5.205   5.680   0.482 -0.1008  0.0148 -0.0874
16566TIP3   OH271188   1.492   1.245   0.648  0.1184 -0.5474  0.1220
16566TIP3    H171189   1.500   1.340   0.639 -0.3545 -0.6756 -2.8990
16566TIP3    H271190   1.407   1.231   0.690 -1.2479  0.4073 -2.1578
16567TIP3   OH271191   0.807   4.889   1.219 -0.7847  0.3185  0.0921
16567TIP3    H171192   0.886   4.857   1.175 -0.2408  0.5013  0.9142
16567TIP3    H271193   0.765   4.947   1.155  0.5575  1.4280  0.1761
16568TIP3   OH271194   4.973   6.760   5.081 -0.3630  0.0382 -0.6991
16568TIP3    H171195   5.032   6.686   5.094 -0.6726  0.0985  1.2577
16568TIP3    H271196   5.030   6.830   5.049  0.1191 -0.7121 -1.5230
16569TIP3   OH271197   2.262   1.533  16.374  0.0588  0.3617 -0.0671
16569TIP3    H171198   2.349   1.507  16.345  0.0052 -0.0143  0.0969
16569TIP3    H271199   2.253   1.624  16.348  1.6571  1.3697  2.5262
16570TIP3   OH271200   6.032   5.703   0.349 -0.5306 -0.5950 -0.3066
16570TIP3    H171201   5.989   5.784   0.321  0.7201  0.4150  0.6028
16570TIP3    H271202   6.021   5.643   0.275 -0.5061  0.7773 -1.4539
16571TIP3   OH271203   1.673   4.587   4.433 -0.1180 -0.4804  0.6166
16571TIP3    H171204   1.691   4.680   4.450 -1.8152  0.1119 -0.5306
16571TIP3    H271205   1.617   4.560   4.506 -0.3181 -0.3568  0.5105
16572TIP3   OH271206   1.753   3.239   5.109 -0.4502 -0.0962 -0.3423
16572TIP3    H171207   1.810   3.304   5.068 -0.3304 -1.0468 -1.7488
16572TIP3    H271208   1.725   3.280   5.191 -0.4674  1.7642 -1.2279
16573TIP3   OH271209   6.212   5.763  13.039 -0.1706 -0.2990  0.6040
16573TIP3    H171210   6.192   5.717  13.121  0.3395 -1.1510  0.2709
16573TIP3    H271211   6.299   5.731  13.015 -1.0265 -1.4597 -1.1865
16574TIP3   OH271212   3.449   0.312  12.332 -0.3507  0.0132  0.4549
16574TIP3    H171213   3.476   0.379  12.395 -0.5529 -0.7308  1.3565
16574TIP3    H271214   3.486   0.341  12.249  0.2757  0.8034  0.9937
16575TIP3   OH271215   3.477   5.013  14.651 -0.6158 -0.2466  0.0275
16575TIP3    H171216   3.535   4.942  14.624  0.6311  0.5467  0.5564
16575TIP3    H271217   3.437   5.044  14.570  0.1133 -0.4448 -0.4151
16576TIP3   OH271218   1.143   0.391   4.084 -1.2480 -0.4292 -0.3096
16576TIP3    H171219   1.192   0.439   4.152 -2.8159  0.1791  0.4284
16576TIP3    H271220   1.182   0.304   4.085  1.5911  0.6883 -1.5953
16577TIP3   OH271221   3.484   6.633  13.152  0.9999 -0.8897 -0.7284
16577TIP3    H171222   3.537   6.555  13.170  1.2486 -0.7868 -1.0102
16577TIP3    H271223   3.465   6.669  13.239 -1.4173 -2.7341 -0.3796
16578TIP3   OH271224   5.044   3.147  16.740 -0.3745  0.5188 -0.1488
16578TIP3    H171225   5.032   3.227  16.689  1.2242  2.0770  1.7656
16578TIP3    H271226   5.003   3.165  16.824 -0.9937 -1.1410 -0.0575
16579TIP3   OH271227   3.751   1.446  13.657 -0.3522 -0.0261  0.0745
16579TIP3    H171228   3.750   1.350  13.660 -0.5054 -0.0159  0.4339
16579TIP3    H271229   3.842   1.469  13.643 -0.2489 -0.2155  0.4191
16580TIP3   OH271230   4.567   2.820  13.360  0.4893  0.5433  0.1144
16580TIP3    H171231   4.536   2.906  13.330  0.2525  0.4988  0.2298
16580TIP3    H271232   4.488   2.768  13.371  0.6825  0.0393 -0.7701
16581TIP3   OH271233   4.554   2.939   4.908 -0.4752 -0.6521  0.4304
16581TIP3    H171234   4.604   3.020   4.918  0.1573 -0.8563 -0.8730
16581TIP3    H271235   4.486   2.944   4.976 -0.3451  0.8823  0.4833
16582TIP3   OH271236   4.710   1.658  16.373 -0.1117 -0.3086  0.0211
16582TIP3    H171237   4.648   1.618  16.312  0.7898 -1.8660  0.0602
16582TIP3    H271238   4.792   1.662  16.324  0.1077  0.4112  0.4378
16583TIP3   OH271239   1.245   2.977  14.304  0.0915 -0.2489  0.4493
16583TIP3    H171240   1.224   3.060  14.261  2.2414  1.2494  2.0509
16583TIP3    H271241   1.180   2.969  14.374  0.3874  0.5743  0.8344
16584TIP3   OH271242   6.467   0.962   3.711 -0.3944 -0.0421 -0.2009
16584TIP3    H171243   6.473   0.984   3.618 -0.0074 -1.5696 -0.5610
16584TIP3    H271244   6.375   0.941   3.725 -0.5167  0.4984 -0.1444
16585TIP3   OH271245   1.800   0.584   3.854 -0.2577 -0.3774  0.3139
16585TIP3    H171246   1.805   0.488   3.848 -0.2864 -0.3715  0.1905
16585TIP3    H271247   1.868   0.616   3.794 -0.7291 -0.3164 -0.2008
16586TIP3   OH271248   6.674   4.091  14.289  0.3904  0.0847 -0.0732
16586TIP3    H171249   6.742   4.157  14.304  0.3574  0.1922 -0.3984
16586TIP3    H271250   6.723   4.011  14.267  0.4168  0.1083 -0.1003
16587TIP3   OH271251   2.672   5.172  12.366 -0.3128 -0.4100 -0.0211
16587TIP3    H171252   2.725   5.232  12.418 -1.8116 -0.2884  1.4451
16587TIP3    H271253   2.721   5.090  12.366  2.0310  0.8451 -2.4901
16588TIP3   OH271254   6.780   1.570  14.837 -0.0172 -0.4392 -0.3663
16588TIP3    H171255   6.718   1.519  14.785  0.9071  0.0180 -1.9523
16588TIP3    H271256   6.753   1.661  14.825 -0.1639 -0.3612  0.4710
16589TIP3   OH271257   6.809   3.759   5.002  0.0832 -0.0891  0.6555
16589TIP3    H171258   6.869   3.686   5.021  1.1617  1.0429  1.8383
16589TIP3    H271259   6.822   3.820   5.075 -1.4669  0.8776  0.1781
16590TIP3   OH271260   2.610   1.153   4.899  0.7209  0.2320  0.0987
16590TIP3    H171261   2.539   1.102   4.938  0.8244 -0.3763 -0.4827
16590TIP3    H271262   2.633   1.104   4.820  2.2032  0.0777  0.6005
16591TIP3   OH271263   5.672   4.264   2.896 -0.2192 -0.5974 -0.7643
16591TIP3    H171264   5.664   4.213   2.977 -0.9522 -0.3370 -0.6583
16591TIP3    H271265   5.765   4.266   2.877 -0.0220 -0.5348  0.1695
16592TIP3   OH271266   6.268   5.695   4.348  0.2990  0.2469  0.4378
16592TIP3    H171267   6.201   5.642   4.306  0.1743 -0.0457  1.0117
16592TIP3    H271268   6.340   5.698   4.284  0.3985 -0.7912  0.4856
16593TIP3   OH271269   6.482   4.094   4.259 -0.1637  0.4052  0.3527
16593TIP3    H171270   6.541   4.023   4.285  0.8412  0.3982 -1.7144
16593TIP3    H271271   6.395   4.057   4.268  0.3218 -0.9475 -0.1684
16594TIP3   OH271272   6.616   1.780  16.381 -0.6741 -0.0038  0.1010
16594TIP3    H171273   6.666   1.703  16.356 -0.8629  0.4211 -1.7545
16594TIP3    H271274   6.525   1.751  16.379 -0.7639  0.3052 -0.8606
16595TIP3   OH271275   3.341   4.510   0.905  0.9059  0.0578 -0.2404
16595TIP3    H171276   3.411   4.501   0.841  1.6407  1.4132  0.3321
16595TIP3    H271277   3.355   4.596   0.945  0.0480 -0.4445  1.2357
16596TIP3   OH271278   1.821   6.000  12.941  0.1219 -0.0049 -0.1486
16596TIP3    H171279   1.880   5.963  13.006  3.6053  0.5047 -2.6935
16596TIP3    H271280   1.856   6.088  12.924 -2.0642  0.7715 -1.0797
16597TIP3   OH271281   1.673   0.702  14.199 -0.5109 -0.5201 -0.2254
16597TIP3    H171282   1.589   0.686  14.156 -1.1308  0.7390  0.4561
16597TIP3    H271283   1.736   0.650  14.149 -1.6358 -1.2308 -0.9503
16598TIP3   OH271284   4.937   0.063  12.411  0.0762  0.5374  0.2545
16598TIP3    H171285   4.851   0.060  12.369 -0.1626  1.3671  0.6621
16598TIP3    H271286   4.924   0.119  12.488  1.2310  1.6198 -0.2997
16599TIP3   OH271287   5.066   1.994  11.744 -0.3205 -0.6819  1.0095
16599TIP3    H171288   4.983   2.036  11.767  0.0502 -0.8632  2.7911
16599TIP3    H271289   5.124   2.067  11.724 -0.5090 -0.4855  1.1684
16600TIP3   OH271290   4.377   0.652   5.097 -0.0748 -0.1269 -0.5183
16600TIP3    H171291   4.379   0.702   5.015  1.7439 -0.6730 -0.8376
16600TIP3    H271292   4.326   0.708   5.157  1.2029  1.7735 -1.0984
16601TIP3   OH271293   4.892   2.286  11.585 -0.1141  0.3098 -0.3072
16601TIP3    H171294   4.941   2.310  11.664  0.8072  0.0583 -0.7869
16601TIP3    H271295   4.932   2.203  11.557 -2.3366 -1.1510  0.5669
16602TIP3   OH271296   6.524   0.702  11.285 -0.0322  0.1985  0.2913
16602TIP3    H171297   6.560   0.615  11.305 -0.4963  0.0244  0.3793
16602TIP3    H271298   6.600   0.759  11.283  0.4594 -0.4535 -1.1667
16603TIP3   OH271299   5.447   5.883   6.134  0.2879  0.0265  0.5634
16603TIP3    H171300   5.380   5.858   6.199  1.4016  0.6432  2.0058
16603TIP3    H271301   5.469   5.973   6.157  0.4734  0.3821 -0.9268
16604TIP3   OH271302   3.887   2.674   4.650  0.1244 -0.3877 -0.1893
16604TIP3    H171303   3.868   2.652   4.742  0.3469 -1.3179 -0.3627
16604TIP3    H271304   3.865   2.595   4.601 -1.3782  0.5628 -1.1323
16605TIP3   OH271305   5.836   1.229   2.716  0.8106 -0.3592  0.0576
16605TIP3    H171306   5.861   1.138   2.703 -0.5926 -1.2939  3.0285
16605TIP3    H271307   5.758   1.241   2.662  2.2268 -0.1517 -2.0763
16606TIP3   OH271308   2.853   0.727  14.423 -0.4101 -0.4395 -0.4374
16606TIP3    H171309   2.810   0.684  14.497 -1.2969  0.6586 -0.2850
16606TIP3    H271310   2.902   0.657  14.379  0.4017 -1.0439  1.3561
16607TIP3   OH271311   6.435   1.048   3.458 -0.4566  0.5505  0.2310
16607TIP3    H171312   6.350   1.086   3.431 -2.1520 -1.5767  2.1892
16607TIP3    H271313   6.430   0.957   3.429  1.1714  0.3854  0.4221
16608TIP3   OH271314   0.878   0.487  13.406 -0.3974 -0.0593 -0.1335
16608TIP3    H171315   0.909   0.431  13.477  1.3452  1.0322  0.0078
16608TIP3    H271316   0.811   0.543  13.446 -1.8763 -1.6983 -0.1901
16609TIP3   OH271317   4.369   2.202   6.092 -0.0487  0.1947  0.2468
16609TIP3    H171318   4.439   2.143   6.118  0.3331  1.1679  1.5160
16609TIP3    H271319   4.406   2.250   6.017  0.7202  0.8123  1.0024
16610TIP3   OH271320   0.827   4.858   5.267 -0.4318  0.2002  0.0072
16610TIP3    H171321   0.743   4.898   5.293 -0.5979 -0.8903  1.2477
16610TIP3    H271322   0.891   4.899   5.325 -0.2534  0.3143 -0.2708
16611TIP3   OH271323   6.248   5.525   6.042  0.1432 -0.4264  0.4046
16611TIP3    H171324   6.241   5.472   6.122  0.5785  1.7938  2.0084
16611TIP3    H271325   6.169   5.578   6.040 -0.2906 -1.0834 -1.1682
16612TIP3   OH271326   2.025   3.608  16.497  0.0293  0.3257  0.1412
16612TIP3    H171327   2.021   3.546  16.570 -1.1044 -0.5988 -0.6675
16612TIP3    H271328   2.006   3.555  16.419  4.0431  0.6542 -1.2861
16613TIP3   OH271329   3.301   5.098  14.442  0.4676 -0.1716  0.4182
16613TIP3    H171330   3.322   5.159  14.371  0.5377  1.5367  1.8215
16613TIP3    H271331   3.341   5.015  14.415 -0.1702  0.1792 -1.8655
16614TIP3   OH271332   2.240   6.470   0.759  0.3152 -0.2969  0.8518
16614TIP3    H171333   2.246   6.409   0.833  1.0075  0.7684  1.7020
16614TIP3    H271334   2.330   6.479   0.728  0.1061 -0.3016  0.2213
16615TIP3   OH271335   1.789   0.706  16.083  0.1859  0.0211  0.2761
16615TIP3    H171336   1.808   0.785  16.032  0.2744 -0.1138  0.0993
16615TIP3    H271337   1.696   0.690  16.069 -0.2949  1.2012  1.8629
16616TIP3   OH271338   0.075   4.492   1.211  0.6287  0.3873  0.2615
16616TIP3    H171339   0.113   4.552   1.147  0.3842  2.2874  1.8142
16616TIP3    H271340  -0.020   4.500   1.197  0.6123 -1.5383 -1.1259
16617TIP3   OH271341   6.064   1.567  12.829 -0.1282 -0.2583  0.7080
16617TIP3    H171342   6.155   1.564  12.858  0.1659 -0.3725 -0.1948
16617TIP3    H271343   6.065   1.527  12.742 -1.2151 -1.2142  1.1159
16618TIP3   OH271344   4.771   4.943   4.446 -0.6700 -0.5729  0.3847
16618TIP3    H171345   4.779   4.877   4.377  0.0070 -1.8700  1.6436
16618TIP3    H271346   4.732   4.896   4.520  0.0729  0.3610  1.4090
16619TIP3   OH271347   1.400   0.356  13.354  0.1388 -0.2841  0.1435
16619TIP3    H171348   1.379   0.391  13.268 -0.3237 -0.2477  0.2726
16619TIP3    H271349   1.436   0.269  13.336 -1.7626 -1.0812  0.0260
16620TIP3   OH271350   4.036   0.688   5.510 -0.0970  0.4809 -0.2079
16620TIP3    H171351   4.121   0.720   5.479 -0.5071  1.4796 -0.3274
16620TIP3    H271352   4.058   0.617   5.571  0.8016  0.4276 -0.5770
16621TIP3   OH271353   1.629   0.657   6.063  0.8538 -0.1133 -0.1120
16621TIP3    H171354   1.632   0.570   6.101  0.5054  0.9892  2.7063
16621TIP3    H271355   1.537   0.669   6.039  0.6476 -0.0720  0.6836
16622TIP3   OH271356   4.822   2.936  11.825 -0.1413  0.3582 -0.3575
16622TIP3    H171357   4.779   2.968  11.746 -1.5460  1.8031  0.9101
16622TIP3    H271358   4.864   3.013  11.862 -0.3370 -0.0759  0.8057
16623TIP3   OH271359   6.128   6.194  11.246 -0.1295 -0.1330 -0.5458
16623TIP3    H171360   6.152   6.164  11.158  1.0865  2.7414 -1.2862
16623TIP3    H271361   6.035   6.217  11.239  0.1763  0.9249 -1.3726
16624TIP3   OH271362   1.044   6.470   1.492  0.5024  0.8556 -0.4931
16624TIP3    H171363   1.015   6.472   1.583 -0.8283 -0.3082 -0.8662
16624TIP3    H271364   0.967   6.495   1.441  0.2634 -1.4909 -1.4500
16625TIP3   OH271365   5.165   4.803   1.556 -0.1468 -0.5484  0.1980
16625TIP3    H171366   5.189   4.892   1.583  1.5778 -1.4485  1.8652
16625TIP3    H271367   5.217   4.787   1.477 -1.3262  0.2857 -0.7826
16626TIP3   OH271368   3.906   2.744   0.696 -0.4993  0.4401 -0.4433
16626TIP3    H171369   3.910   2.663   0.646  0.7006  0.1991  0.0057
16626TIP3    H271370   3.898   2.813   0.629  0.5603  0.0903 -0.9594
16627TIP3   OH271371   1.269   1.176  15.290  0.6442  0.6254  0.1997
16627TIP3    H171372   1.334   1.123  15.244 -3.9524 -2.7349 -3.4756
16627TIP3    H271373   1.253   1.129  15.372  0.3901 -0.6248 -0.5456
16628TIP3   OH271374   5.870   2.256  10.105  0.7500 -0.6263 -0.1028
16628TIP3    H171375   5.857   2.347  10.130 -1.8857 -1.1146  0.6511
16628TIP3    H271376   5.801   2.239  10.040  0.5106 -2.3304  0.5367
16629TIP3   OH271377   2.690   6.204   2.939 -0.0075 -0.3559  0.6785
16629TIP3    H171378   2.694   6.274   3.003 -0.3938  0.7434 -0.4564
16629TIP3    H271379   2.599   6.206   2.907 -0.0151 -1.3554  0.6112
16630TIP3   OH271380   5.293   3.886   2.578 -0.4298  0.0273 -0.4168
16630TIP3    H171381   5.219   3.923   2.627 -2.2348 -2.4177 -1.0996
16630TIP3    H271382   5.258   3.869   2.491  0.4260 -2.5706 -0.3427
16631TIP3   OH271383   2.088   1.395  16.158 -0.2827 -0.4862 -0.1997
16631TIP3    H171384   2.060   1.478  16.119  1.8387 -0.4630 -1.8207
16631TIP3    H271385   2.145   1.421  16.231  1.7003 -0.4417 -1.7042
16632TIP3   OH271386   1.994   3.989  13.337 -0.6109 -0.1918 -0.4044
16632TIP3    H171387   1.934   3.957  13.270  0.4414 -0.5022 -1.2147
16632TIP3    H271388   2.052   4.049  13.291  0.5408 -0.9050  0.0646
16633TIP3   OH271389   3.823   2.577  14.587  0.0288  0.2633 -0.1838
16633TIP3    H171390   3.899   2.607  14.637 -0.0036 -0.2941  0.2008
16633TIP3    H271391   3.832   2.482  14.583  0.2045  0.3210 -1.5328
16634TIP3   OH271392   0.457   2.690   5.210 -0.0572  0.6369 -0.5721
16634TIP3    H171393   0.529   2.627   5.199 -0.4774  0.1354 -0.5041
16634TIP3    H271394   0.394   2.667   5.142  0.8228  2.5128 -2.1295
16635TIP3   OH271395   4.019   2.813   4.438  0.0092  0.0152  0.3923
16635TIP3    H171396   3.976   2.763   4.507 -0.3161  1.6362  1.4044
16635TIP3    H271397   3.951   2.823   4.371 -0.1283 -0.2983  0.4806
16636TIP3   OH271398   0.229   4.432  14.295  0.1475  0.4165  0.3004
16636TIP3    H171399   0.220   4.472  14.382  0.5671  1.3457 -0.0639
16636TIP3    H271400   0.289   4.490  14.249  1.5627 -1.1783  0.0436
16637TIP3   OH271401   0.911   5.677   0.517 -0.2619 -0.4888 -0.2368
16637TIP3    H171402   0.910   5.582   0.513 -1.6680 -0.4848 -0.4096
16637TIP3    H271403   0.938   5.704   0.429  1.6211 -0.7157  0.2362
16638TIP3   OH271404   1.354   1.594  15.566  0.5077  0.0590  0.2835
16638TIP3    H171405   1.260   1.599  15.583  0.6608 -1.0023  1.5114
16638TIP3    H271406   1.369   1.504  15.537  1.3562 -0.2536  1.5962
16639TIP3   OH271407   6.734   1.102  14.992  0.1459  0.0618  0.4770
16639TIP3    H171408   6.666   1.167  14.973 -0.1704 -0.5308 -0.4556
16639TIP3    H271409   6.748   1.109  15.086 -0.4413  0.9405  0.5112
16640TIP3   OH271410   2.682   5.135  14.983  0.3243  0.8045  0.3405
16640TIP3    H171411   2.684   5.222  15.023  2.3800 -0.1917  2.6930
16640TIP3    H271412   2.771   5.102  14.995 -0.7412 -2.1494  0.8338
16641TIP3   OH271413   3.556   5.631   2.269  0.1158  0.3902 -0.0842
16641TIP3    H171414   3.494   5.659   2.201  0.0519 -0.4537 -0.3887
16641TIP3    H271415   3.507   5.569   2.322  0.9724 -1.0426 -0.9157
16642TIP3   OH271416   4.917   1.212  10.724  0.4377  0.0143 -0.2077
16642TIP3    H171417   4.876   1.296  10.704 -0.2821  0.0051  1.1589
16642TIP3    H271418   4.958   1.186  10.641 -0.8755  0.8267 -1.1596
16643TIP3   OH271419   0.682   2.156  16.357  0.1475 -0.5689 -0.1967
16643TIP3    H171420   0.752   2.219  16.340  0.6138 -0.9602  0.2596
16643TIP3    H271421   0.687   2.138  16.450 -1.8965  0.9525  0.2812
16644TIP3   OH271422   5.974   1.643   1.169 -0.1804  0.1599  0.1796
16644TIP3    H171423   5.971   1.612   1.260  1.2986  1.6803  0.8010
16644TIP3    H271424   6.067   1.653   1.151 -0.5220  1.5872 -0.9040
16645TIP3   OH271425   4.907   3.323   2.265 -0.1829 -0.3771  0.5129
16645TIP3    H171426   4.951   3.279   2.337  0.1117 -0.0491  0.5390
16645TIP3    H271427   4.814   3.313   2.283 -0.1292 -1.2669  0.3423
16646TIP3   OH271428   6.509   3.705   6.113 -0.0888  0.2024  0.2302
16646TIP3    H171429   6.443   3.696   6.044  1.4482  1.3189 -1.4862
16646TIP3    H271430   6.468   3.668   6.191 -1.5269 -2.0724 -1.5031
16647TIP3   OH271431   4.947   4.595   5.229  0.2451  0.0176  0.4072
16647TIP3    H171432   4.983   4.546   5.155  1.9255 -1.4679  2.0802
16647TIP3    H271433   5.015   4.588   5.296 -1.2171  1.2869  2.0895
16648TIP3   OH271434   5.449   2.341   1.339  0.1526 -0.6086  0.1950
16648TIP3    H171435   5.372   2.398   1.332  1.2996  0.9331 -0.4529
16648TIP3    H271436   5.428   2.266   1.285 -1.6116 -1.0929  1.4669
16649TIP3   OH271437   4.395   5.075   5.913  0.2852  0.1944  0.2993
16649TIP3    H171438   4.486   5.073   5.882  1.5047  1.0874  3.4044
16649TIP3    H271439   4.359   5.156   5.879  1.2099  0.6367  0.3462
16650TIP3   OH271440   1.627   2.745  14.796 -0.0865 -0.0695 -0.4015
16650TIP3    H171441   1.608   2.760  14.889 -0.2195  2.5564 -0.7633
16650TIP3    H271442   1.552   2.694  14.764 -0.3391 -0.4837  0.7841
16651TIP3   OH271443   2.247   2.866  15.063  0.4742  0.5641 -0.0064
16651TIP3    H171444   2.239   2.874  15.158  2.1503  0.4510  0.1657
16651TIP3    H271445   2.317   2.927  15.039  0.4525  0.1885 -1.0941
16652TIP3   OH271446   6.514   4.474   0.232 -0.5306  0.6726  0.2535
16652TIP3    H171447   6.459   4.465   0.154 -0.8756 -0.2353  0.5891
16652TIP3    H271448   6.548   4.385   0.247  1.0053  1.1875  0.0730
16653TIP3   OH271449   0.582   5.574  14.178 -0.1553  0.0968  0.6643
16653TIP3    H171450   0.625   5.653  14.145  0.0990  0.3307  1.5286
16653TIP3    H271451   0.546   5.600  14.263  0.4913 -0.8986  1.2581
16654TIP3   OH271452   5.430   2.899  12.690  0.3767 -0.3100  0.1396
16654TIP3    H171453   5.456   2.844  12.616 -1.5926 -2.7132  1.1255
16654TIP3    H271454   5.494   2.880  12.758 -0.0955 -1.1247  0.3591
16655TIP3   OH271455   2.306   5.604   0.818 -0.0196  0.0331 -0.0423
16655TIP3    H171456   2.227   5.619   0.870  0.0703 -1.6818  0.6317
16655TIP3    H271457   2.359   5.545   0.871 -0.3835 -2.6992 -2.4665
16656TIP3   OH271458   5.660   0.112   1.922  0.2346 -0.7215  0.0968
16656TIP3    H171459   5.637   0.157   2.003 -0.3343  3.0505 -1.9329
16656TIP3    H271460   5.749   0.143   1.902 -0.4587  0.2265 -1.7554
16657TIP3   OH271461   6.562   1.363  13.198 -0.3980 -0.1475 -0.1272
16657TIP3    H171462   6.466   1.356  13.193 -0.5092  0.8164  0.4273
16657TIP3    H271463   6.578   1.399  13.285  0.4781 -0.2842 -0.2275
16658TIP3   OH271464   4.786   1.847   5.668  0.1699  0.7533 -0.8734
16658TIP3    H171465   4.736   1.903   5.729 -0.1253  0.9575 -1.2970
16658TIP3    H271466   4.864   1.898   5.648  0.1320  0.8094 -0.8805
16659TIP3   OH271467   3.445   5.095  13.679  0.1062  0.2033 -0.2226
16659TIP3    H171468   3.448   5.174  13.625  1.8921 -0.6204 -1.4238
16659TIP3    H271469   3.489   5.028  13.626 -1.8893 -1.7948  0.4688
16660TIP3   OH271470   1.324   6.286  14.569  0.0122 -0.3122  0.0503
16660TIP3    H171471   1.341   6.237  14.649 -0.0017  0.6834  0.6908
16660TIP3    H271472   1.406   6.334  14.552 -0.9008  1.7651  1.1557
16661TIP3   OH271473   5.998   0.996  11.904 -0.0371 -0.1586 -0.0195
16661TIP3    H171474   5.940   1.051  11.853 -0.0785 -0.7940 -0.6730
16661TIP3    H271475   6.078   1.048  11.914 -0.2228  0.1780 -0.2834
16662TIP3   OH271476   6.733   4.804   4.622  0.0073  0.3656 -0.1325
16662TIP3    H171477   6.658   4.747   4.641 -0.7565  0.8313 -1.6075
16662TIP3    H271478   6.800   4.775   4.684 -1.7527  0.7766  2.1199
16663TIP3   OH271479   3.463   0.178   0.840  0.1289 -0.1840  0.1788
16663TIP3    H171480   3.370   0.154   0.839  0.1473 -0.2576 -0.2324
16663TIP3    H271481   3.499   0.131   0.915 -0.5319  1.3242  1.5153
16664TIP3   OH271482   5.027   3.199  15.430  0.4345 -0.0995 -0.3801
16664TIP3    H171483   4.983   3.249  15.360 -1.3258 -1.3709 -0.2366
16664TIP3    H271484   5.029   3.260  15.504  0.9172  0.7266 -1.0417
16665TIP3   OH271485   6.574   4.665   2.319 -0.3161 -0.2249  0.4060
16665TIP3    H171486   6.636   4.644   2.388 -0.7307 -4.2501 -0.1675
16665TIP3    H271487   6.497   4.698   2.364  0.6905  0.7843  1.4575
16666TIP3   OH271488   2.853   3.969  15.675 -0.0128  0.1886 -0.1913
16666TIP3    H171489   2.883   3.879  15.660 -1.1607 -0.2357 -0.0360
16666TIP3    H271490   2.860   3.982  15.769 -1.6521 -0.4386  0.0562
16667TIP3   OH271491   5.730   5.656   3.123 -0.3319 -0.0930 -0.5903
16667TIP3    H171492   5.686   5.723   3.176  0.0827 -0.0261 -0.3227
16667TIP3    H271493   5.794   5.705   3.072  1.0471 -0.4448  0.7355
16668TIP3   OH271494   5.981   1.754  17.073  0.4237  0.3049 -0.0086
16668TIP3    H171495   5.987   1.777  17.165  1.0028 -3.1787  0.9863
16668TIP3    H271496   6.056   1.798  17.032  0.7344  1.0936  1.3691
16669TIP3   OH271497   2.505   4.482  13.648 -0.2261  0.5697  0.6660
16669TIP3    H171498   2.500   4.459  13.741  1.2280 -0.9261  0.4130
16669TIP3    H271499   2.427   4.442  13.610 -1.8458  2.7536  1.4785
16670TIP3   OH271500   0.698   3.219   4.477  0.5030  0.1353 -0.0031
16670TIP3    H171501   0.656   3.132   4.472 -0.4571  0.5466  0.6970
16670TIP3    H271502   0.783   3.202   4.517  1.0604 -0.7208 -1.4593
16671TIP3   OH271503   0.785   4.034   5.496 -0.4844 -0.1350  0.0916
16671TIP3    H171504   0.760   3.994   5.413 -2.7006  0.4485  0.4170
16671TIP3    H271505   0.753   4.124   5.490  2.5441  1.0593  0.2046
16672TIP3   OH271506   4.493   6.530   3.668  0.0617  0.6678 -1.1439
16672TIP3    H171507   4.463   6.576   3.746  0.9401  1.3226 -1.1812
16672TIP3    H271508   4.421   6.540   3.605 -0.3925  0.6615 -0.6374
16673TIP3   OH271509   4.757   0.048  15.788 -0.0746  0.2467 -0.1266
16673TIP3    H171510   4.684  -0.011  15.810 -0.1914 -0.1646 -1.5065
16673TIP3    H271511   4.811   0.050  15.866 -1.0476 -0.2410  0.5766
16674TIP3   OH271512   4.531   6.325   5.180  0.0800 -0.3408 -0.4863
16674TIP3    H171513   4.543   6.396   5.243  0.5434 -1.0589  0.2423
16674TIP3    H271514   4.452   6.280   5.208 -0.7747  0.4495 -1.5194
16675TIP3   OH271515   0.508   0.863  13.686  0.1631 -0.2096 -0.1130
16675TIP3    H171516   0.469   0.942  13.649 -0.1719 -0.0524  0.5595
16675TIP3    H271517   0.602   0.880  13.686 -0.0147  1.7263  3.2820
16676TIP3   OH271518   3.447   3.511  14.189 -0.2737  0.4139 -0.1493
16676TIP3    H171519   3.379   3.533  14.126  1.0224 -0.7437 -2.0609
16676TIP3    H271520   3.458   3.416  14.181  2.0510  0.6464 -0.4819
16677TIP3   OH271521   4.959   3.338  14.585 -0.7001  0.1805 -0.0485
16677TIP3    H171522   5.022   3.326  14.515 -0.0350 -1.1183  0.7316
16677TIP3    H271523   4.938   3.431  14.583  0.4236  0.4364 -1.0059
16678TIP3   OH271524   0.207   1.460   3.330 -0.1160 -0.6251  0.6065
16678TIP3    H171525   0.136   1.416   3.285  1.2715 -1.8428 -0.4986
16678TIP3    H271526   0.286   1.413   3.303  1.7626  3.4269 -2.0086
16679TIP3   OH271527   3.184   4.355   4.927  0.1533 -0.5970 -0.0990
16679TIP3    H171528   3.137   4.272   4.929  2.4744 -1.9928  0.0505
16679TIP3    H271529   3.266   4.337   4.972  0.9529  1.6614 -0.5213
16680TIP3   OH271530   6.789   2.902  16.687 -0.1902 -0.3729 -0.0756
16680TIP3    H171531   6.754   2.938  16.769  2.7614  1.3784  0.5797
16680TIP3    H271532   6.836   2.823  16.713  1.0484  0.3767  0.0308
16681TIP3   OH271533   5.026   4.651   3.644  0.3889 -0.2467 -0.2480
16681TIP3    H171534   4.997   4.567   3.609  2.3913 -1.3249  0.5653
16681TIP3    H271535   5.028   4.638   3.739  0.5227  0.7973 -0.0915
16682TIP3   OH271536   0.916   6.748  15.013 -0.1470  0.2427  0.1263
16682TIP3    H171537   0.980   6.789  15.071  0.0463  1.9001 -1.1753
16682TIP3    H271538   0.914   6.656  15.040  0.6560  0.7481  2.0608
16683TIP3   OH271539   1.508   6.143  12.732  0.4087  0.3920 -0.2653
16683TIP3    H171540   1.462   6.225  12.751  1.5739  0.8107  0.8507
16683TIP3    H271541   1.504   6.094  12.815  0.6108 -0.2470 -0.6286
16684TIP3   OH271542   6.434   0.277   0.733 -0.1731 -0.4474 -0.0136
16684TIP3    H171543   6.437   0.337   0.658 -2.0398  0.1084  0.3087
16684TIP3    H271544   6.417   0.192   0.694 -0.3614 -0.2876 -0.2897
16685TIP3   OH271545   6.268   0.624  16.204  0.3441  0.4295 -0.0627
16685TIP3    H171546   6.349   0.650  16.250  0.5429 -1.1158  0.5117
16685TIP3    H271547   6.221   0.570  16.268 -1.9970  2.6494  0.2437
16686TIP3   OH271548   1.817   2.070  15.595  0.1103 -0.3709 -0.0546
16686TIP3    H171549   1.823   1.976  15.614  0.1792 -0.5285 -0.8189
16686TIP3    H271550   1.744   2.101  15.650  0.6990 -0.6684  0.9269
16687TIP3   OH271551   3.287   2.170   1.194 -0.3919  0.1040 -0.1723
16687TIP3    H171552   3.365   2.218   1.220 -0.2764  0.7383 -1.6226
16687TIP3    H271553   3.214   2.223   1.227 -0.2630  1.2769 -1.6439
16688TIP3   OH271554   0.741   5.315   2.072  0.2827  0.0449 -0.4585
16688TIP3    H171555   0.698   5.294   2.155  0.8645  4.8290  1.3722
16688TIP3    H271556   0.835   5.307   2.091  0.4107  0.4348 -0.9211
16689TIP3   OH271557   6.066   6.683  12.118  0.3936 -0.2000 -0.6281
16689TIP3    H171558   6.131   6.616  12.136 -0.7839 -1.0509  0.6970
16689TIP3    H271559   6.006   6.679  12.193 -1.2528  0.4584 -1.8482
16690TIP3   OH271560   5.484   0.128  13.562  0.2245 -0.0460 -0.4325
16690TIP3    H171561   5.530   0.079  13.630  1.3807  1.6406  0.0392
16690TIP3    H271562   5.549   0.142  13.493  0.1009  1.3606 -0.2801
16691TIP3   OH271563   1.779   5.914   0.320 -0.3725 -0.1200  0.4269
16691TIP3    H171564   1.835   5.974   0.271 -0.5442 -0.0319  0.3389
16691TIP3    H271565   1.691   5.951   0.312 -0.3752 -0.0056  0.9491
16692TIP3   OH271566   0.096   2.924  10.415  0.4898 -0.4546  0.2455
16692TIP3    H171567   0.027   2.975  10.373 -0.0290 -2.0528 -0.9275
16692TIP3    H271568   0.112   2.850  10.356  2.7764 -0.4868  0.7974
16693TIP3   OH271569   2.605   2.678  16.516  0.8835 -0.1535  0.1955
16693TIP3    H171570   2.556   2.620  16.574  1.1103 -0.2496  0.2921
16693TIP3    H271571   2.685   2.629  16.496  2.1782  1.0422  2.1307
16694TIP3   OH271572   3.087   6.129   1.160 -0.0275  1.2375  0.9343
16694TIP3    H171573   3.031   6.207   1.151 -0.6388  0.6650 -0.6261
16694TIP3    H271574   3.174   6.164   1.176 -0.4738  2.2111  1.3510
16695TIP3   OH271575   1.088   1.278  12.368  0.0499 -0.3236  0.6134
16695TIP3    H171576   1.106   1.296  12.460 -0.2117 -0.3516  0.6710
16695TIP3    H271577   1.030   1.202  12.369 -0.1002 -0.2142  0.4352
16696TIP3   OH271578   2.326   5.959   6.619 -0.1418  0.1688  0.8555
16696TIP3    H171579   2.292   5.920   6.538  0.4716  0.4248  0.4756
16696TIP3    H271580   2.390   5.896   6.650 -1.5226 -0.7281  2.0277
16697TIP3   OH271581   1.892   1.784  14.101 -0.0198  0.2530  0.4563
16697TIP3    H171582   1.980   1.785  14.063 -0.3362  0.3434 -0.2968
16697TIP3    H271583   1.893   1.710  14.162  0.6883  0.4822  0.7231
16698TIP3   OH271584   4.351   6.548  11.236 -0.4147  0.1935  0.3279
16698TIP3    H171585   4.321   6.637  11.214 -1.7360 -0.2880  0.1032
16698TIP3    H271586   4.327   6.495  11.161  0.8869 -0.2806  0.2160
16699TIP3   OH271587   3.890   2.019  16.990  0.2782 -0.5616 -0.3488
16699TIP3    H171588   3.818   2.043  16.932  1.1316  0.4718 -1.0264
16699TIP3    H271589   3.941   2.100  17.000  0.2438 -0.7399  1.7458
16700TIP3   OH271590   6.017   2.812  11.907  0.0389 -0.5651 -0.2399
16700TIP3    H171591   6.043   2.901  11.881 -0.6337  0.2335  1.6347
16700TIP3    H271592   6.095   2.776  11.950 -0.3709 -0.0079  1.0101
16701TIP3   OH271593   2.780   0.659  11.341  0.1953 -0.2877 -0.7406
16701TIP3    H171594   2.824   0.633  11.422  1.9582  3.1591 -0.3873
16701TIP3    H271595   2.782   0.580  11.286  0.2675 -2.3104  1.9752
16702TIP3   OH271596   3.639   1.231   5.664 -0.6627  0.1475 -0.0287
16702TIP3    H171597   3.638   1.252   5.758 -1.8339  0.4112 -0.0850
16702TIP3    H271598   3.550   1.251   5.635 -0.0812  0.8819 -1.3770
16703TIP3   OH271599   1.185   1.450   4.978 -0.5272  0.4729  0.1578
16703TIP3    H171600   1.186   1.428   5.071 -0.1464  1.8044  0.4959
16703TIP3    H271601   1.202   1.544   4.975 -2.6729  0.8887 -1.1488
16704TIP3   OH271602   5.477   1.527  11.166  0.0196  0.4643 -0.2878
16704TIP3    H171603   5.458   1.537  11.072 -1.3871  0.9127  0.0328
16704TIP3    H271604   5.572   1.539  11.171  0.4401 -1.5131 -1.8909
16705TIP3   OH271605   2.289   4.683  12.098  0.0727 -0.7406  0.1731
16705TIP3    H171606   2.382   4.658  12.101  0.5040  0.8435  0.4929
16705TIP3    H271607   2.251   4.641  12.175  0.2833 -2.1911 -0.4637
16706TIP3   OH271608   4.936   6.807   0.630  0.2743  0.3003  0.4816
16706TIP3    H171609   5.010   6.820   0.689 -0.1053 -0.7741  1.2371
16706TIP3    H271610   4.919   6.893   0.592  1.9416  0.5454  0.2344
16707TIP3   OH271611   1.151   5.660   2.727 -0.0083 -0.3479  0.1335
16707TIP3    H171612   1.209   5.631   2.657 -1.0488 -1.6892 -0.2149
16707TIP3    H271613   1.142   5.584   2.784 -0.2983  0.2898  0.9635
16708TIP3   OH271614   5.189   5.542  13.533  0.0376  0.7052  0.2620
16708TIP3    H171615   5.120   5.598  13.497  0.4307  0.8257 -0.3116
16708TIP3    H271616   5.239   5.600  13.591 -2.4171 -0.1509  3.5942
16709TIP3   OH271617   6.014   3.744  13.250  0.1103  0.3070 -0.3367
16709TIP3    H171618   6.006   3.733  13.155  2.5297  0.9588 -0.6829
16709TIP3    H271619   6.034   3.656  13.283 -0.6684  0.0924 -0.4357
16710TIP3   OH271620   4.053   6.783   5.962  0.8412 -0.4510 -0.0440
16710TIP3    H171621   4.024   6.847   6.027 -0.5309  0.2047 -1.2529
16710TIP3    H271622   4.056   6.700   6.010 -2.1287 -0.3793  0.4482
16711TIP3   OH271623   3.318   0.973  10.945  0.3359 -0.1409 -0.5540
16711TIP3    H171624   3.247   1.002  10.887  0.3359 -0.3114 -0.6375
16711TIP3    H271625   3.397   0.986  10.894  0.3619  0.0074 -0.4765
16712TIP3   OH271626   4.392   4.167  13.096  0.4528  0.5276 -0.1304
16712TIP3    H171627   4.472   4.157  13.148 -0.0279 -0.1787  0.5049
16712TIP3    H271628   4.373   4.079  13.063 -1.3077  0.1563  1.6443
16713TIP3   OH271629   2.365   0.735   5.183 -0.0195 -0.8499  0.0517
16713TIP3    H171630   2.314   0.655   5.170 -0.7371 -0.3016 -0.6505
16713TIP3    H271631   2.363   0.778   5.098 -1.0837  0.7409  0.8390
16714TIP3   OH271632   0.498   1.758  15.355  0.6853  0.4620  0.2296
16714TIP3    H171633   0.468   1.770  15.445 -1.7388  0.5880 -0.5265
16714TIP3    H271634   0.538   1.671  15.354  0.6810  0.4296  1.3996
16715TIP3   OH271635   5.192   4.450  12.631  0.2222  0.0905  0.0164
16715TIP3    H171636   5.240   4.496  12.563  0.3049 -0.2212 -0.1371
16715TIP3    H271637   5.123   4.402  12.584 -0.0378  0.2834  0.2028
16716TIP3   OH271638   2.535   6.450   1.481 -0.0891  0.3800 -0.2698
16716TIP3    H171639   2.466   6.498   1.434 -0.1885  0.6634  0.1613
16716TIP3    H271640   2.565   6.385   1.418 -1.1639 -0.1386 -0.2738
16717TIP3   OH271641   3.190   3.702   5.217  0.0757 -0.2087 -1.0103
16717TIP3    H171642   3.115   3.679   5.272  1.4563  0.4379  1.2610
16717TIP3    H271643   3.234   3.619   5.200  0.4519 -0.2598  0.1493
16718TIP3   OH271644   6.185   2.292   4.844  0.1180  0.4264 -0.2974
16718TIP3    H171645   6.186   2.247   4.760 -1.4223  0.3003 -0.2696
16718TIP3    H271646   6.142   2.231   4.904  2.5838 -0.1539  1.0116
16719TIP3   OH271647   3.883   2.922  12.062  0.1322 -0.2344  0.2781
16719TIP3    H171648   3.915   3.011  12.074 -0.4524  0.1121 -0.6573
16719TIP3    H271649   3.887   2.883  12.149 -0.4324  0.9789  0.8663
16720TIP3   OH271650   1.481   6.094   4.044  0.7178  0.3969 -0.6262
16720TIP3    H171651   1.431   6.036   3.987 -0.1189  1.1326 -0.6712
16720TIP3    H271652   1.569   6.092   4.007  1.0804 -1.9111  0.2173
16721TIP3   OH271653   0.840   1.674   1.641 -0.3221 -0.8473 -0.1270
16721TIP3    H171654   0.786   1.752   1.633  1.0669  0.0149 -1.6031
16721TIP3    H271655   0.790   1.606   1.596 -1.3545 -0.7422  0.8231
16722TIP3   OH271656   2.585   2.098   1.811  0.2021  0.2853  0.1670
16722TIP3    H171657   2.632   2.151   1.875  2.0530  0.6351 -1.3714
16722TIP3    H271658   2.625   2.121   1.727 -2.1687 -0.0880 -1.1538
16723TIP3   OH271659   2.148   6.599   0.347 -0.1059 -0.6365 -0.1188
16723TIP3    H171660   2.183   6.511   0.335 -0.9296 -0.8322 -1.3345
16723TIP3    H271661   2.053   6.587   0.353 -0.1018 -0.0072  1.7691
16724TIP3   OH271662   5.306   1.198   3.311 -0.2300  0.4217 -0.0999
16724TIP3    H171663   5.285   1.113   3.348 -0.4676  0.4819 -0.0922
16724TIP3    H271664   5.227   1.224   3.263 -0.2286  0.7159  0.0483
16725TIP3   OH271665   4.742   2.120   3.676  0.0587 -1.0342 -0.1181
16725TIP3    H171666   4.712   2.209   3.696 -0.4701 -1.3767  0.6679
16725TIP3    H271667   4.705   2.066   3.745 -0.9855 -2.1292 -1.4651
16726TIP3   OH271668   0.853   5.651  12.150  0.4624 -0.0723 -0.0100
16726TIP3    H171669   0.862   5.699  12.233  0.7329  0.3090 -0.2567
16726TIP3    H271670   0.762   5.666  12.123  0.5026  0.1801 -0.0101
16727TIP3   OH271671   0.758   2.718   4.619  0.3090 -0.0416  0.1701
16727TIP3    H171672   0.769   2.771   4.698 -0.4928  0.6534 -0.1735
16727TIP3    H271673   0.847   2.710   4.584  0.6332 -0.1413  0.9976
16728TIP3   OH271674   5.423   5.090   6.110  0.2255  0.4983 -0.7455
16728TIP3    H171675   5.513   5.098   6.140  0.4667 -2.1916 -0.5832
16728TIP3    H271676   5.370   5.124   6.184  0.9181 -3.4999  1.8831
16729TIP3   OH271677   1.533   3.897   5.363 -0.8875 -0.1251  0.0387
16729TIP3    H171678   1.565   3.904   5.273 -1.2429  0.1794 -0.0694
16729TIP3    H271679   1.566   3.976   5.406 -0.1258 -0.6155  0.3710
16730TIP3   OH271680   4.157   5.701  13.558  0.4824  0.3283 -0.5135
16730TIP3    H171681   4.190   5.642  13.490  0.9178 -0.0924  0.0553
16730TIP3    H271682   4.062   5.702  13.546 -0.1000 -3.6799  1.9187
16731TIP3   OH271683   2.769   4.632  13.137 -0.5993 -0.3963  0.3589
16731TIP3    H171684   2.819   4.631  13.219 -1.0592 -0.7569  0.6403
16731TIP3    H271685   2.827   4.593  13.072 -0.1783  0.0228  0.4801
16732TIP3   OH271686   1.674   1.922   2.759 -0.1732 -0.6527  0.3741
16732TIP3    H171687   1.735   1.907   2.831  0.2175  2.2336  0.7502
16732TIP3    H271688   1.626   2.001   2.785 -1.2457 -0.5447 -1.7591
16733TIP3   OH271689   3.698   4.099  16.001 -0.0989  0.0647  0.4644
16733TIP3    H171690   3.712   4.168  16.065  0.0257 -0.1524  0.6718
16733TIP3    H271691   3.615   4.059  16.027  0.4262 -0.6564  1.0783
16734TIP3   OH271692   3.915   6.271   2.051 -0.2366  0.0942 -0.3272
16734TIP3    H171693   3.850   6.327   2.093  0.1917 -0.1845  0.7588
16734TIP3    H271694   3.864   6.203   2.008 -0.7349 -1.9409  3.0612
16735TIP3   OH271695   1.987   3.932  14.968  0.3644 -0.1940  0.2825
16735TIP3    H171696   2.048   3.874  14.923  0.0640 -0.7573  0.5921
16735TIP3    H271697   2.027   3.947  15.054  0.4526  0.0854  0.1962
16736TIP3   OH271698   4.643   6.297   0.956 -0.2128 -0.1625  0.1982
16736TIP3    H171699   4.731   6.279   0.924 -0.5645 -1.8212  0.0407
16736TIP3    H271700   4.624   6.224   1.015 -1.6884 -0.1790 -0.2503
16737TIP3   OH271701   4.526   5.618  13.386  0.3826  0.4757  0.2437
16737TIP3    H171702   4.539   5.609  13.480 -0.5951 -1.8814  0.2204
16737TIP3    H271703   4.432   5.608  13.373  0.5090  0.6683 -0.9886
16738TIP3   OH271704   5.349   6.459  10.913 -0.4353 -0.1605  0.5597
16738TIP3    H171705   5.264   6.496  10.937  1.3645  4.3306  1.0099
16738TIP3    H271706   5.362   6.487  10.822  1.6881  1.9179  1.4101
16739TIP3   OH271707   2.522   6.273  11.658  0.0437  0.3096  0.3001
16739TIP3    H171708   2.589   6.319  11.707  0.1068 -0.2635  0.7632
16739TIP3    H271709   2.532   6.181  11.683  0.0988 -0.0045 -0.8043
16740TIP3   OH271710   4.333   6.322  14.418  0.3075  0.1267  0.2675
16740TIP3    H171711   4.308   6.314  14.510  2.3863  1.2972  0.9830
16740TIP3    H271712   4.400   6.390  14.417  1.9503 -1.3989 -1.7936
16741TIP3   OH271713   3.557   2.617   4.603  0.0865  0.1114 -0.3028
16741TIP3    H171714   3.564   2.676   4.678 -0.3405 -0.8341  0.5019
16741TIP3    H271715   3.620   2.651   4.540 -0.8856  2.0538 -0.3153
16742TIP3   OH271716   5.971   1.496  11.301 -0.4412 -0.6179  0.3172
16742TIP3    H171717   6.051   1.482  11.350 -0.7416  1.1014  1.4072
16742TIP3    H271718   5.996   1.554  11.229 -0.4462 -1.2903 -0.2434
16743TIP3   OH271719   5.644   1.410  14.300 -0.9944  0.2774 -0.5988
16743TIP3    H171720   5.640   1.317  14.319 -2.9283 -0.0780 -2.4028
16743TIP3    H271721   5.613   1.453  14.380 -0.4730 -0.6339  0.1003
16744TIP3   OH271722   3.443   0.197  15.332 -0.0503 -0.6887 -0.0280
16744TIP3    H171723   3.516   0.254  15.356 -0.5633 -0.6002  1.4040
16744TIP3    H271724   3.434   0.137  15.405 -1.6103 -0.4786 -0.0157
16745TIP3   OH271725   0.425   1.514  12.334  0.5596  0.7561 -0.1401
16745TIP3    H171726   0.520   1.502  12.336  0.3688 -0.8226  0.5589
16745TIP3    H271727   0.411   1.576  12.262  2.1215  1.1433 -0.1500
16746TIP3   OH271728   4.184   0.018   4.587  0.3314 -0.0175 -0.0900
16746TIP3    H171729   4.153   0.108   4.581  0.5083 -0.0083 -1.0951
16746TIP3    H271730   4.252   0.020   4.654  1.7534  1.0288 -1.4930
16747TIP3   OH271731   5.420   6.042   0.862  0.0395 -0.5026 -0.0549
16747TIP3    H171732   5.472   5.965   0.888 -0.4536 -1.2967 -1.3332
16747TIP3    H271733   5.339   6.005   0.826 -0.9360  0.6835  0.8461
16748TIP3   OH271734   4.472   3.056  14.290  0.1201  0.1596  0.1083
16748TIP3    H171735   4.518   3.042  14.373 -1.1574  0.5403  0.9034
16748TIP3    H271736   4.541   3.052  14.224  1.3187  0.8085  1.2622
16749TIP3   OH271737   0.605   2.948   1.246 -0.0111 -0.5692  0.3356
16749TIP3    H171738   0.536   2.914   1.189  0.7391 -0.4348 -0.6875
16749TIP3    H271739   0.633   3.029   1.203  0.6700 -0.5404  0.8169
16750TIP3   OH271740   3.233   5.598   0.296  0.5892  0.0150 -0.2933
16750TIP3    H171741   3.156   5.602   0.353  0.6972  0.1253 -0.1532
16750TIP3    H271742   3.287   5.672   0.324  0.2353  0.5980 -1.1328
16751TIP3   OH271743   2.566   6.588   1.097  0.1161 -0.0882  0.1774
16751TIP3    H171744   2.515   6.634   1.031 -0.4509 -2.2870 -0.9994
16751TIP3    H271745   2.528   6.500   1.100  1.6217 -0.7422  1.7876
16752TIP3   OH271746   0.252   4.286   3.633 -0.7237  0.1126 -0.1772
16752TIP3    H171747   0.214   4.214   3.584  0.2559  0.2432 -1.1661
16752TIP3    H271748   0.333   4.251   3.669 -1.5005 -0.0383  1.5586
16753TIP3   OH271749   1.862   1.123  11.796 -0.5128 -0.4491  0.1671
16753TIP3    H171750   1.947   1.079  11.799 -1.3685 -2.2323 -0.2015
16753TIP3    H271751   1.865   1.176  11.716  0.7845  0.7503  0.9649
16754TIP3   OH271752   6.090   3.474  13.322 -0.0475  0.3607  0.4883
16754TIP3    H171753   6.055   3.386  13.338 -2.0344  0.9916 -0.1258
16754TIP3    H271754   6.080   3.519  13.406 -0.9224  0.5910  0.2700
16755TIP3   OH271755   1.983   1.304  12.231 -0.0690 -0.6386 -0.3312
16755TIP3    H171756   2.063   1.254  12.250  0.5131  0.7910  1.2310
16755TIP3    H271757   1.913   1.253  12.271  0.3313 -0.8889  0.0538
16756TIP3   OH271758   3.933   4.871   2.234 -0.1141  0.1447  0.2107
16756TIP3    H171759   3.932   4.781   2.200 -0.2752  0.0581  0.4429
16756TIP3    H271760   3.896   4.864   2.322 -0.1741  0.4479  0.2101
16757TIP3   OH271761   4.423   1.166  14.440 -0.4274  0.2492  0.0182
16757TIP3    H171762   4.500   1.152  14.386 -0.1082  0.4714  0.4089
16757TIP3    H271763   4.349   1.156  14.380 -0.0870  0.2661 -0.4051
16758TIP3   OH271764   3.690   1.094  12.525 -0.7255 -0.5142 -0.5887
16758TIP3    H171765   3.762   1.082  12.462 -0.6536 -2.2168 -0.2239
16758TIP3    H271766   3.678   1.189  12.530 -0.1849 -0.3044 -2.5506
16759TIP3   OH271767   6.509   3.159   6.167  0.2473  0.3216 -0.0614
16759TIP3    H171768   6.573   3.099   6.129 -1.3472 -0.4932 -1.6073
16759TIP3    H271769   6.560   3.238   6.188  1.5446  0.2584 -2.5451
16760TIP3   OH271770   5.258   2.491  13.312  0.1517  0.0501 -0.2212
16760TIP3    H171771   5.281   2.574  13.271 -0.3611  0.6345  0.6405
16760TIP3    H271772   5.163   2.483  13.297  0.1284 -0.1744  0.0469
16761TIP3   OH271773   4.660   0.856  13.966  0.2188  0.4975 -0.0895
16761TIP3    H171774   4.708   0.802  14.028  0.9480  0.4680 -0.6604
16761TIP3    H271775   4.570   0.824  13.970  0.5851 -0.6023 -0.2289
16762TIP3   OH271776   2.984   3.755   5.415  0.3359  0.3680 -0.0221
16762TIP3    H171777   2.900   3.801   5.413 -0.2738 -0.7049 -0.5752
16762TIP3    H271778   2.990   3.719   5.503 -0.2117 -0.2840 -0.2444
16763TIP3   OH271779   2.059   6.215  15.251 -0.7029 -0.1496 -0.4811
16763TIP3    H171780   1.996   6.280  15.283  1.2176  2.1556 -1.1635
16763TIP3    H271781   2.060   6.227  15.156 -1.3133 -2.2018 -0.8044
16764TIP3   OH271782   4.668   1.508   5.173 -0.7308  0.8515 -0.2890
16764TIP3    H171783   4.577   1.500   5.201 -0.1586  1.6132  2.0282
16764TIP3    H271784   4.718   1.508   5.255  1.5256 -1.2308 -1.5184
16765TIP3   OH271785   0.408   5.301   2.013  0.0405  0.0444  0.2177
16765TIP3    H171786   0.472   5.291   2.083  1.6701 -0.9393 -1.3325
16765TIP3    H271787   0.367   5.386   2.030 -1.5633 -1.2284  3.8170
16766TIP3   OH271788   0.250   6.337   5.262 -0.0379  0.1396 -0.9084
16766TIP3    H171789   0.181   6.307   5.203 -0.2145  0.5751 -0.9279
16766TIP3    H271790   0.309   6.262   5.270 -0.8888 -0.4693 -0.3136
16767TIP3   OH271791   4.144   1.407   3.381 -0.3789 -0.3075 -0.2370
16767TIP3    H171792   4.085   1.457   3.437  0.2818 -0.7700  0.9153
16767TIP3    H271793   4.198   1.472   3.338 -0.7179  0.0476 -0.1317
16768TIP3   OH271794   5.775   4.486  13.200 -0.0532 -0.1591  0.8141
16768TIP3    H171795   5.783   4.438  13.117 -0.3897  0.7325  0.2573
16768TIP3    H271796   5.744   4.420  13.262 -1.0125 -0.5600 -0.0642
16769TIP3   OH271797   3.581   2.148   1.609 -0.1193  0.3265 -0.0389
16769TIP3    H171798   3.576   2.102   1.693 -1.0346 -0.7582 -0.6546
16769TIP3    H271799   3.632   2.089   1.553 -0.6078  0.4259 -0.6051
16770TIP3   OH271800   6.440   5.891   1.224  0.0103  0.6569  0.7177
16770TIP3    H171801   6.466   5.808   1.264  1.1244  0.1843 -0.8957
16770TIP3    H271802   6.404   5.866   1.139 -2.6156  1.6005  1.4250
16771TIP3   OH271803   5.797   5.970   2.272  0.4410 -0.2589 -0.2844
16771TIP3    H171804   5.825   6.019   2.350 -0.2036  0.3087 -0.3991
16771TIP3    H271805   5.815   5.879   2.294  1.8894  0.0245 -0.1564
16772TIP3   OH271806   0.824   4.680   0.591 -0.3632 -0.7750 -0.5548
16772TIP3    H171807   0.744   4.628   0.588 -0.2463 -1.1304  1.4446
16772TIP3    H271808   0.892   4.618   0.618  0.7019 -0.5507 -2.5205
16773TIP3   OH271809   2.661   0.500  15.355 -0.2567  0.6888  0.2352
16773TIP3    H171810   2.599   0.573  15.350  0.7034  1.4933 -0.3472
16773TIP3    H271811   2.736   0.536  15.402 -0.6698 -0.6266  2.0146
16774TIP3   OH271812   3.474   1.157   0.484 -0.7633  0.4250  0.2678
16774TIP3    H171813   3.497   1.142   0.392  0.7521  0.8791  0.5506
16774TIP3    H271814   3.462   1.252   0.490 -0.1373  0.4815  0.6840
16775TIP3   OH271815   6.237   1.757   0.511 -0.1402 -0.4418  0.1273
16775TIP3    H171816   6.202   1.686   0.565  0.5411  0.1804  1.4063
16775TIP3    H271817   6.308   1.794   0.562 -0.6177  1.3186 -0.4249
16776TIP3   OH271818   2.023   4.637  12.480  0.0139  0.0957 -0.4454
16776TIP3    H171819   2.001   4.730  12.477 -0.5839  0.0213  0.9635
16776TIP3    H271820   2.012   4.607  12.390 -0.2934  1.2708 -0.8180
16777TIP3   OH271821   0.376   6.365   2.930  0.3007  0.0848 -0.2648
16777TIP3    H171822   0.411   6.276   2.927  1.1737  0.3915  0.4304
16777TIP3    H271823   0.435   6.416   2.874  0.5360  0.4572  0.3124
16778TIP3   OH271824   4.035   6.313   3.161 -0.3138  0.3067  0.3268
16778TIP3    H171825   4.055   6.262   3.082  2.5825 -0.3921  1.4054
16778TIP3    H271826   3.986   6.253   3.217 -1.5717  0.5089 -0.5229
16779TIP3   OH271827   5.738   5.967   2.005 -0.7842 -0.4879 -0.3082
16779TIP3    H171828   5.754   5.873   1.997  0.5975 -0.3283  0.3271
16779TIP3    H271829   5.791   5.994   2.080 -1.9793  0.6226  0.1796
16780TIP3   OH271830   5.280   3.852  13.667  0.2806  0.7114 -0.1524
16780TIP3    H171831   5.293   3.939  13.705 -0.6434 -0.2820  2.7218
16780TIP3    H271832   5.347   3.798  13.709  1.0123  0.0174 -2.0908
16781TIP3   OH271833   5.572   5.772   0.332 -0.5357  0.6030  0.0700
16781TIP3    H171834   5.532   5.843   0.281 -0.2210  1.7949  1.4136
16781TIP3    H271835   5.589   5.811   0.418 -0.0826 -1.0333  0.7599
16782TIP3   OH271836   0.656   5.789  14.574 -0.0417 -0.6653 -0.8279
16782TIP3    H171837   0.685   5.836  14.496  0.5028  0.0043 -0.2329
16782TIP3    H271838   0.705   5.828  14.646 -2.2335  0.3738  0.2075
16783TIP3   OH271839   6.378   3.009   3.936  0.1909 -0.6330 -0.4515
16783TIP3    H171840   6.408   3.080   3.880 -0.5960 -0.8560 -1.1665
16783TIP3    H271841   6.283   3.009   3.927  0.1524 -1.5118 -0.1321
16784TIP3   OH271842   2.407   5.181   2.020 -0.0311 -0.0612  0.3562
16784TIP3    H171843   2.332   5.240   2.016  0.5110  0.6094 -0.1267
16784TIP3    H271844   2.436   5.186   2.111 -1.2558 -1.2165  0.8405
16785TIP3   OH271845   1.404   5.775  12.666 -0.1313 -0.3807  0.1459
16785TIP3    H171846   1.491   5.815  12.670  0.0140 -0.7425  0.8563
16785TIP3    H271847   1.345   5.848  12.651  0.4858 -0.4103 -3.0229
16786TIP3   OH271848   6.616   5.876   4.470  0.5315 -0.6480  0.0762
16786TIP3    H171849   6.604   5.786   4.441 -0.4358  0.2880 -2.7910
16786TIP3    H271850   6.532   5.900   4.510  1.4924 -1.5772  2.9262
16787TIP3   OH271851   4.696   4.460  16.977  0.7142 -0.3422 -0.2502
16787TIP3    H171852   4.660   4.371  16.985 -0.6212  0.1679 -0.2825
16787TIP3    H271853   4.717   4.485  17.067  0.0155 -0.2736 -0.0999
16788TIP3   OH271854   2.433   4.591   0.577  0.6930  0.3204 -0.0144
16788TIP3    H171855   2.493   4.653   0.618 -0.3152  1.0773  0.3597
16788TIP3    H271856   2.489   4.523   0.541  1.8992  1.9678 -1.3693
16789TIP3   OH271857   5.816   0.188   5.269 -0.6268 -0.6538 -0.7700
16789TIP3    H171858   5.726   0.178   5.301 -0.7093  1.3952 -0.1553
16789TIP3    H271859   5.867   0.128   5.323 -1.1995  0.6059  1.2991
16790TIP3   OH271860   3.105   4.973  16.372  0.4769 -0.0890  0.6216
16790TIP3    H171861   3.019   4.933  16.388  0.5033 -0.3408  0.1391
16790TIP3    H271862   3.103   5.054  16.424 -0.5875  0.5982 -0.4352
16791TIP3   OH271863   2.769   0.160  13.442 -0.3543 -0.2376  0.2651
16791TIP3    H171864   2.681   0.143  13.407 -0.3236 -0.3426  0.2395
16791TIP3    H271865   2.758   0.237  13.497 -0.8555 -1.3600  1.8115
16792TIP3   OH271866   1.007   0.625  14.247  0.0757 -0.0967  0.3396
16792TIP3    H171867   1.073   0.635  14.315  0.6554 -0.7392 -0.1137
16792TIP3    H271868   0.931   0.589  14.293 -0.4551  1.8887  1.1154
16793TIP3   OH271869   6.652   6.101  11.444 -0.0246 -0.1313  0.2862
16793TIP3    H171870   6.696   6.107  11.529 -2.2019  2.3595  1.3741
16793TIP3    H271871   6.646   6.191  11.414  1.2938 -0.9669 -2.9823
16794TIP3   OH271872   2.520   1.840   1.018  0.1602 -0.1031 -0.0130
16794TIP3    H171873   2.569   1.860   0.938  0.3413 -1.2215 -0.1881
16794TIP3    H271874   2.562   1.762   1.054  0.4168  0.6836  1.4720
16795TIP3   OH271875   4.375   2.265   2.315  0.0536  0.0631  0.4741
16795TIP3    H171876   4.432   2.189   2.322 -0.5814 -0.2878  2.4555
16795TIP3    H271877   4.289   2.229   2.293  0.0971  0.3830 -0.2540
16796TIP3   OH271878   0.392   3.740   0.943 -0.0997 -0.1406  0.3107
16796TIP3    H171879   0.380   3.725   0.850 -1.5185  1.5335  0.1794
16796TIP3    H271880   0.311   3.781   0.972 -0.1952 -1.7256  2.5653
16797TIP3   OH271881   0.647   4.701   6.512  0.3777  0.0235  0.4158
16797TIP3    H171882   0.555   4.713   6.492  0.1124  0.4230  1.7307
16797TIP3    H271883   0.661   4.607   6.510 -0.3871 -0.1344  1.4418
16798TIP3   OH271884   2.147   4.178   5.402  0.1358  0.0204 -0.1239
16798TIP3    H171885   2.100   4.171   5.319  0.3180 -0.8490 -0.1706
16798TIP3    H271886   2.100   4.118   5.460 -1.0434  1.9003  0.9264
16799TIP3   OH271887   6.288   5.997   6.011 -0.3200 -0.6294  0.0627
16799TIP3    H171888   6.328   5.919   5.974  1.0826  0.1841 -0.1993
16799TIP3    H271889   6.229   6.029   5.943 -2.7948 -2.7329  1.0536
16800TIP3   OH271890   1.999   1.860  15.317 -0.2281 -0.0501  0.2997
16800TIP3    H171891   1.952   1.799  15.260  1.3536  0.9704 -2.2661
16800TIP3    H271892   2.075   1.811  15.348 -0.1361 -0.0596  0.0583
16801TIP3   OH271893   3.355   3.736  11.044 -0.1323 -0.2236 -0.6665
16801TIP3    H171894   3.437   3.784  11.035  0.2233 -0.8696 -0.9035
16801TIP3    H271895   3.314   3.773  11.122  0.4921 -0.0620 -0.4123
16802TIP3   OH271896   6.742   6.086  13.666 -0.7088 -0.2948 -0.6777
16802TIP3    H171897   6.672   6.085  13.600 -0.3948  0.7649 -1.0523
16802TIP3    H271898   6.818   6.120  13.619 -0.3351 -0.0523  0.0956
16803TIP3   OH271899   5.635   6.809   4.980 -0.1126  0.1322  0.3580
16803TIP3    H171900   5.678   6.878   4.929  0.0828 -0.9679 -1.0085
16803TIP3    H271901   5.544   6.811   4.952 -0.0670 -0.2791  0.1678
16804TIP3   OH271902   6.451   4.421  11.875 -0.0034  0.2822 -1.1911
16804TIP3    H171903   6.421   4.512  11.871 -0.3588  0.2222 -0.1133
16804TIP3    H271904   6.478   4.408  11.965 -0.6571 -0.8922 -1.1435
16805TIP3   OH271905   4.111   3.495   2.304  0.0472  0.1219 -0.3633
16805TIP3    H171906   4.103   3.590   2.293  1.4904  0.2318 -0.6657
16805TIP3    H271907   4.194   3.473   2.263 -0.1997 -1.2637 -0.1697
16806TIP3   OH271908   1.698   3.976   3.423 -0.8153 -0.3113  0.0883
16806TIP3    H171909   1.710   3.907   3.488 -0.0644  0.7285  1.0811
16806TIP3    H271910   1.610   3.961   3.388 -1.0671 -1.1426  1.0360
16807TIP3   OH271911   6.213   3.118  16.969 -0.4675  0.0758  0.2287
16807TIP3    H171912   6.189   3.172  16.894  0.0950  0.5960  0.4271
16807TIP3    H271913   6.140   3.129  17.030 -0.3097  0.6740  0.3077
16808TIP3   OH271914   1.490   1.337   6.523 -0.3865  0.1278  0.3806
16808TIP3    H171915   1.529   1.251   6.508 -2.9051 -1.1232  0.4836
16808TIP3    H271916   1.552   1.382   6.580  2.3279 -0.5234 -1.8040
16809TIP3   OH271917   3.362   3.113   1.843 -0.1358 -0.5952  0.0579
16809TIP3    H171918   3.438   3.168   1.825 -0.8560 -0.0491 -1.5227
16809TIP3    H271919   3.287   3.173   1.839 -0.8695 -1.5269 -0.9751
16810TIP3   OH271920   4.637   6.496   4.015  0.3428 -0.6645  0.2000
16810TIP3    H171921   4.628   6.588   4.038 -2.7872 -0.6493 -0.5333
16810TIP3    H271922   4.669   6.496   3.925 -2.4158 -0.0322 -0.9064
16811TIP3   OH271923   4.259   6.143  15.613 -0.1388  0.2865  0.4144
16811TIP3    H171924   4.245   6.080  15.685  0.7061  0.5456  0.8151
16811TIP3    H271925   4.313   6.095  15.550 -1.1418 -0.0479 -0.2145
16812TIP3   OH271926   3.104   3.735   5.994 -0.4921 -0.3477 -0.4863
16812TIP3    H171927   3.093   3.647   6.029  1.7423 -0.6051 -0.2651
16812TIP3    H271928   3.047   3.790   6.047  0.8807 -1.1064  1.9488
16813TIP3   OH271929   5.082   1.225  16.402  0.1201  0.1448  0.6356
16813TIP3    H171930   5.134   1.237  16.482 -2.3365 -0.2185  2.3933
16813TIP3    H271931   5.132   1.163  16.350  2.4645  1.4349  1.2097
16814TIP3   OH271932   5.390   3.190   1.993  0.3386  0.4953 -0.1021
16814TIP3    H171933   5.400   3.176   2.087 -0.5323  0.4888 -0.0033
16814TIP3    H271934   5.347   3.276   1.986  0.7670  0.6783 -0.5068
16815TIP3   OH271935   6.188   5.362   1.585 -0.2973 -0.6682  0.2143
16815TIP3    H171936   6.119   5.306   1.622 -0.1217  0.7107  2.8494
16815TIP3    H271937   6.148   5.448   1.578  0.6533 -0.2208  0.1487
16816TIP3   OH271938   0.658   3.299  11.997  0.1432 -0.3842  0.3661
16816TIP3    H171939   0.698   3.215  12.020 -1.9475 -1.7041 -0.4765
16816TIP3    H271940   0.592   3.313  12.065  1.3102  1.2798  1.2250
16817TIP3   OH271941   4.951   3.564   0.496  0.6807  0.3946  0.6629
16817TIP3    H171942   5.033   3.606   0.522  1.1667 -0.3828  0.4074
16817TIP3    H271943   4.905   3.632   0.445  1.2908  0.7358  0.5541
16818TIP3   OH271944   2.205   4.477  11.359  0.5877  0.0816 -0.4836
16818TIP3    H171945   2.265   4.466  11.432  2.1705 -1.7600 -1.9394
16818TIP3    H271946   2.216   4.568  11.333  1.1171  0.3555  0.6364
16819TIP3   OH271947   4.332   0.349   4.183  0.7705 -0.0973  0.0893
16819TIP3    H171948   4.318   0.295   4.105  2.5721 -0.7783  0.1942
16819TIP3    H271949   4.356   0.435   4.148  1.0631 -0.2543 -0.0978
16820TIP3   OH271950   2.655   5.390   6.040  0.2010  0.2089  0.3781
16820TIP3    H171951   2.630   5.376   5.949  1.4431 -2.8282  0.3911
16820TIP3    H271952   2.633   5.482   6.057 -0.7926  0.6578 -2.7099
16821TIP3   OH271953   1.279   1.578   3.684 -0.2917  0.1813  0.4807
16821TIP3    H171954   1.293   1.659   3.733 -0.7642 -0.0555  1.0213
16821TIP3    H271955   1.277   1.510   3.751  2.8591 -0.6731 -0.1483
16822TIP3   OH271956   5.445   2.668  14.638 -0.3105 -0.4912 -0.3486
16822TIP3    H171957   5.366   2.640  14.592 -1.1581  0.5483  0.4084
16822TIP3    H271958   5.425   2.653  14.731 -0.3329  1.3655 -0.0053
16823TIP3   OH271959   5.232   4.067   1.122  0.1849 -0.0530 -0.4029
16823TIP3    H171960   5.194   4.153   1.105  3.6952  1.7040 -0.1993
16823TIP3    H271961   5.263   4.037   1.037 -2.1440 -1.8732 -0.7317
16824TIP3   OH271962   2.365   6.079   1.617 -0.4543  0.4576 -0.0385
16824TIP3    H171963   2.454   6.114   1.628 -0.9434  2.0627 -0.8344
16824TIP3    H271964   2.326   6.134   1.549 -2.4892  0.5759  1.1562
16825TIP3   OH271965   3.461   6.160  13.372 -0.4161 -0.3006 -0.1313
16825TIP3    H171966   3.427   6.247  13.352 -2.5527 -1.2312 -0.9618
16825TIP3    H271967   3.396   6.122  13.431  0.3694 -1.3972  0.0613
16826TIP3   OH271968   2.524   2.482   6.282  0.0147  0.2763 -0.3456
16826TIP3    H171969   2.505   2.431   6.361 -0.7928 -0.5472 -1.0499
16826TIP3    H271970   2.611   2.452   6.255 -0.0113  0.0324 -0.1684
16827TIP3   OH271971   6.677   6.376   2.800 -0.3944  0.1057 -0.0297
16827TIP3    H171972   6.762   6.392   2.842  0.5085  0.8612 -2.0186
16827TIP3    H271973   6.681   6.284   2.772 -0.7392 -0.2039  0.8705
16828TIP3   OH271974   1.551   5.506   5.592 -0.9565 -0.0813  0.0573
16828TIP3    H171975   1.565   5.543   5.679 -1.4247 -1.1019  0.5825
16828TIP3    H271976   1.462   5.472   5.594 -0.9295 -0.2229 -0.7853
16829TIP3   OH271977   3.450   6.279   4.908  0.3808  0.2616 -0.1960
16829TIP3    H171978   3.435   6.258   5.000  0.4713 -1.2040 -0.4981
16829TIP3    H271979   3.482   6.369   4.909  0.3779  0.2647  1.2008
16830TIP3   OH271980   5.306   0.902  15.733 -0.3223 -0.0064 -0.1219
16830TIP3    H171981   5.373   0.839  15.706  0.7741  1.0751 -0.0338
16830TIP3    H271982   5.319   0.912  15.827 -0.8938 -0.0959 -0.0320
16831TIP3   OH271983   4.581   1.076  15.813 -0.5225  0.3691 -0.6276
16831TIP3    H171984   4.546   1.021  15.743  0.3051 -0.9711 -0.0323
16831TIP3    H271985   4.659   1.116  15.775  0.6012 -1.2698 -0.1776
16832TIP3   OH271986   4.761   6.027  15.574 -0.0777 -0.2397 -0.3421
16832TIP3    H171987   4.752   5.932  15.576  0.8362 -0.3490 -1.0749
16832TIP3    H271988   4.824   6.047  15.644 -1.0501 -0.0504  0.5212
16833TIP3   OH271989   0.852   2.978   5.879 -0.3116 -0.2214  0.0656
16833TIP3    H171990   0.898   2.917   5.822 -1.0385 -1.0027  0.2993
16833TIP3    H271991   0.915   3.049   5.894  0.6887 -1.1069  0.1165
16834TIP3   OH271992   4.817   6.680   0.881 -0.5594 -0.0424  0.3322
16834TIP3    H171993   4.771   6.601   0.851  1.3774 -0.1546 -2.8460
16834TIP3    H271994   4.826   6.733   0.802  3.0463  0.7611  1.0971
16835TIP3   OH271995   2.656   2.399   5.338 -0.1853  0.1374  0.2434
16835TIP3    H171996   2.650   2.443   5.253 -0.5931  0.0225  0.2128
16835TIP3    H271997   2.722   2.331   5.326  0.0061  0.3449  0.1179
16836TIP3   OH271998   0.702   0.370   3.973  0.5716 -0.4846  0.3222
16836TIP3    H171999   0.645   0.295   3.958 -0.4256  0.4700 -0.9788
16836TIP3    H272000   0.736   0.392   3.886 -0.4597  1.5140  0.3593
16837TIP3   OH272001   6.760   5.202  11.877 -1.0480  0.0962 -0.1601
16837TIP3    H172002   6.683   5.251  11.907 -0.6529  1.0333 -0.6391
16837TIP3    H272003   6.834   5.256  11.905 -0.4251 -1.7957  2.1739
16838TIP3   OH272004   3.949   3.295  14.970  0.5593 -0.6428  0.8940
16838TIP3    H172005   3.895   3.234  15.020  1.2426 -1.8830  0.1725
16838TIP3    H272006   4.001   3.340  15.036 -0.7300 -0.0191  1.5317
16839TIP3   OH272007   4.556   0.225  15.263 -0.0255  0.1350 -0.2446
16839TIP3    H172008   4.559   0.217  15.358 -0.8004  1.8191 -0.0360
16839TIP3    H272009   4.631   0.281  15.242 -0.5630  0.7741 -0.4790
16840TIP3   OH272010   1.635   4.498  16.129  0.1019 -0.4778 -0.2513
16840TIP3    H172011   1.686   4.498  16.211 -0.2981  1.4705  0.0304
16840TIP3    H272012   1.696   4.532  16.064 -0.4122  0.6372 -0.1712
16841TIP3   OH272013   6.214   6.278   5.412 -0.3837 -0.0433 -0.1334
16841TIP3    H172014   6.260   6.207   5.368  0.6599  0.4422  0.1285
16841TIP3    H272015   6.252   6.358   5.375  1.3272  0.4066  2.3181
16842TIP3   OH272016   5.157   6.529   1.132 -0.1513  0.2896  0.2485
16842TIP3    H172017   5.085   6.500   1.076  0.6738  1.0618 -1.2666
16842TIP3    H272018   5.141   6.622   1.146 -0.0069  0.2384  0.8075
16843TIP3   OH272019   4.643   1.706   1.843  0.4672  0.1934  0.0009
16843TIP3    H172020   4.688   1.622   1.847  0.3821  0.1775  0.9899
16843TIP3    H272021   4.565   1.694   1.897  1.4258  1.4481  1.7886
16844TIP3   OH272022   6.692   5.648  17.026 -0.4376  0.0599 -0.3302
16844TIP3    H172023   6.693   5.735  17.065 -0.3546 -0.5516  1.0710
16844TIP3    H272024   6.610   5.609  17.057 -1.3050  0.1940 -2.2765
16845TIP3   OH272025   1.883   5.458  14.316 -0.5055 -0.2830  0.3241
16845TIP3    H172026   1.850   5.369  14.320 -0.5228 -0.2601  0.7811
16845TIP3    H272027   1.939   5.460  14.239 -0.3500 -0.7397  0.4247
16846TIP3   OH272028   0.016   2.933   0.859 -0.3761 -0.6827  0.1814
16846TIP3    H172029   0.010   3.028   0.854 -0.6876 -0.7754 -1.8717
16846TIP3    H272030  -0.068   2.905   0.894 -2.0020 -0.3806 -3.1195
16847TIP3   OH272031   4.458   0.853   0.099  0.4166  0.7447  0.3010
16847TIP3    H172032   4.459   0.918   0.170  0.8979  2.0569 -0.8801
16847TIP3    H272033   4.521   0.787   0.127  0.5212  1.1864  1.1471
16848TIP3   OH272034   1.871   0.896   5.772  0.0157  0.2765 -0.0012
16848TIP3    H172035   1.958   0.915   5.737  0.0071 -2.3307 -1.7576
16848TIP3    H272036   1.877   0.804   5.800 -1.8277  0.4250  0.9967
16849TIP3   OH272037   1.894   5.137  16.728 -0.3892  0.0352  0.2255
16849TIP3    H172038   1.890   5.048  16.762 -0.6079  0.8882  2.5771
16849TIP3    H272039   1.894   5.193  16.805  0.5836  2.0769 -1.1664
16850TIP3   OH272040   1.942   2.317   2.749  0.0517  0.4053 -0.1483
16850TIP3    H172041   1.871   2.287   2.693 -0.6435  2.4472 -0.4513
16850TIP3    H272042   2.016   2.328   2.689 -0.1287  0.7271 -0.3148
16851TIP3   OH272043   1.126   6.408  14.043  0.3878 -0.0358  0.3480
16851TIP3    H172044   1.144   6.496  14.075  1.3855 -0.0578 -0.1009
16851TIP3    H272045   1.129   6.416  13.947 -1.1925 -0.2361  0.2622
16852TIP3   OH272046   5.598   1.533   1.045  0.1512 -0.1338 -0.5363
16852TIP3    H172047   5.567   1.623   1.054 -0.8056 -0.2343 -2.4172
16852TIP3    H272048   5.584   1.494   1.132 -1.5396  0.8910 -0.3147
16853TIP3   OH272049   0.740   4.105   2.182 -0.2583  0.1422 -0.1417
16853TIP3    H172050   0.829   4.069   2.190  0.0878  0.9840 -0.1676
16853TIP3    H272051   0.749   4.177   2.120 -0.3173  2.2992  2.1967
16854TIP3   OH272052   4.771   1.063   2.743  0.2305  0.4084 -0.3047
16854TIP3    H172053   4.752   1.130   2.677  0.4374  2.5390  1.6645
16854TIP3    H272054   4.864   1.073   2.761  0.9950 -2.5273 -2.0621
16855TIP3   OH272055   4.947   0.228  13.893  0.1641 -0.6225  0.1082
16855TIP3    H172056   4.895   0.214  13.814 -0.6240  1.6824  0.1613
16855TIP3    H272057   4.934   0.148  13.944 -3.8797 -0.0093  0.3834
16856TIP3   OH272058   3.515   0.562  12.890  0.2341 -0.0124  0.3090
16856TIP3    H172059   3.424   0.533  12.892 -0.8934  3.1071 -0.0905
16856TIP3    H272060   3.526   0.614  12.969  1.0504  1.2024 -0.5618
16857TIP3   OH272061   4.037   2.700  14.179  0.2126  0.1746 -0.2633
16857TIP3    H172062   4.053   2.777  14.124  4.0321  0.5057  1.0482
16857TIP3    H272063   3.989   2.735  14.254  0.2782  0.9072 -0.5505
16858TIP3   OH272064   5.266   2.481   2.555 -0.1859  0.1678  0.2460
16858TIP3    H172065   5.223   2.405   2.595  0.2138 -0.2631 -0.1335
16858TIP3    H272066   5.198   2.521   2.501 -0.2254 -0.2871 -0.0479
16859TIP3   OH272067   4.887   0.764   1.702 -0.0554 -0.5245  0.4221
16859TIP3    H172068   4.868   0.822   1.629 -0.3967  1.1162  1.7534
16859TIP3    H272069   4.934   0.691   1.663 -0.7925 -0.0282 -1.5245
16860TIP3   OH272070   2.395   5.763   4.173 -0.0391 -0.1782 -0.1289
16860TIP3    H172071   2.340   5.782   4.250 -0.2388  0.1709 -0.3565
16860TIP3    H272072   2.358   5.817   4.103  1.3797  1.0723  0.0332
16861TIP3   OH272073   1.595   4.468  14.172  0.3939  0.1917 -0.0571
16861TIP3    H172074   1.617   4.544  14.226 -0.2305 -0.4848  1.1807
16861TIP3    H272075   1.680   4.436  14.140  1.0719 -0.8146  2.4922
16862TIP3   OH272076   3.239   2.921  11.957  0.1230  0.2315 -0.3237
16862TIP3    H172077   3.174   2.990  11.942 -0.8315 -0.5977 -0.0789
16862TIP3    H272078   3.192   2.853  12.004  0.3872 -1.6421 -2.6052
16863TIP3   OH272079   5.582   4.066  13.240 -0.3061  0.1720 -0.1669
16863TIP3    H172080   5.560   4.025  13.323 -0.0266 -1.3297 -0.8029
16863TIP3    H272081   5.673   4.042  13.224  0.4772  2.5509  0.2693
16864TIP3   OH272082   2.158   3.514  14.247 -0.0797  0.6529  0.0778
16864TIP3    H172083   2.131   3.602  14.221  0.6498  0.3818 -1.7345
16864TIP3    H272084   2.137   3.458  14.173 -0.1565 -0.6533  1.0384
16865TIP3   OH272085   6.550   4.167  13.206 -0.0568  0.0541  0.3023
16865TIP3    H172086   6.488   4.236  13.181 -0.5478 -0.4565  0.0830
16865TIP3    H272087   6.524   4.142  13.294  0.6351  0.7069  0.7009
16866TIP3   OH272088   4.501   1.055   5.187 -0.0805  0.0875 -0.1664
16866TIP3    H172089   4.516   1.146   5.164  0.4311 -0.3349 -1.5989
16866TIP3    H272090   4.568   1.035   5.252  1.0915  0.1855 -1.3234
16867TIP3   OH272091   5.559   2.420  12.056  0.4170 -0.6454  0.2407
16867TIP3    H172092   5.617   2.346  12.069  3.9322  1.7516 -0.5142
16867TIP3    H272093   5.610   2.496  12.082 -2.4237  1.7203 -0.5155
16868TIP3   OH272094   1.201   5.203   2.698 -0.6768 -0.3635 -0.0401
16868TIP3    H172095   1.192   5.292   2.733 -0.1818 -1.4059  3.0847
16868TIP3    H272096   1.294   5.193   2.680 -0.6963 -0.3213 -0.1636
16869TIP3   OH272097   5.879   1.389  11.553  0.3362  0.2853 -0.4661
16869TIP3    H172098   5.903   1.408  11.462 -0.1746  0.2711 -0.6078
16869TIP3    H272099   5.872   1.476  11.594  1.7851  0.2525 -0.1129
16870TIP3   OH272100   1.310   0.283  13.807 -0.0183 -0.1985 -0.1030
16870TIP3    H172101   1.230   0.239  13.780 -1.1931  1.5005  0.4447
16870TIP3    H272102   1.296   0.375  13.782  1.3119  0.3212  0.9576
16871TIP3   OH272103   3.716   0.194   2.258  0.1204 -0.2308 -0.2966
16871TIP3    H172104   3.796   0.144   2.241 -0.1331 -0.6944 -0.1590
16871TIP3    H272105   3.656   0.130   2.297 -0.9853 -0.3947 -2.1383
16872TIP3   OH272106   1.882   4.373  17.092  0.3076 -0.0850 -0.4314
16872TIP3    H172107   1.965   4.344  17.053 -0.0614 -1.2026 -0.4194
16872TIP3    H272108   1.900   4.378  17.186  0.6363  0.6675 -0.5273
16873TIP3   OH272109   0.844   2.351  12.807 -0.1427  0.2757 -0.6698
16873TIP3    H172110   0.783   2.299  12.859  0.2685  1.5192  1.1850
16873TIP3    H272111   0.793   2.382  12.733 -1.3127 -0.0202 -0.0036
16874TIP3   OH272112   5.151   4.639  12.206  0.4183  0.1772 -0.4771
16874TIP3    H172113   5.185   4.720  12.169  2.1166 -0.0747  0.4146
16874TIP3    H272114   5.063   4.661  12.235  0.6051  1.5134 -0.8513
16875TIP3   OH272115   5.295   4.899   0.630 -0.1761 -0.3499 -0.2467
16875TIP3    H172116   5.353   4.831   0.662  0.6721 -0.4566 -1.8735
16875TIP3    H272117   5.270   4.870   0.542  0.1974  1.3779 -0.9846
16876TIP3   OH272118   4.893   1.479   5.431 -0.2588  0.3080 -0.6408
16876TIP3    H172119   4.863   1.390   5.450  0.4078 -0.3686 -2.5914
16876TIP3    H272120   4.914   1.516   5.517  1.7219 -2.2310  0.0845
16877TIP3   OH272121   0.919   6.589  11.420  0.4370 -0.3124 -0.6490
16877TIP3    H172122   0.986   6.618  11.359  0.3118  0.2516 -0.5246
16877TIP3    H272123   0.841   6.576  11.365  0.2003  0.6296 -0.5517
16878TIP3   OH272124   1.337   4.681   4.203 -0.3338  0.1953 -0.2158
16878TIP3    H172125   1.310   4.758   4.153 -0.5888  0.3644  0.1760
16878TIP3    H272126   1.312   4.607   4.148 -2.6344  0.3008  0.5769
16879TIP3   OH272127   6.468   2.232   5.381 -0.8159  0.8407  0.0925
16879TIP3    H172128   6.461   2.254   5.474 -2.1435 -0.9641  0.4645
16879TIP3    H272129   6.395   2.278   5.340 -1.3272  0.1684  0.2466
16880TIP3   OH272130   4.176   3.528  14.715 -0.2688  0.1267 -0.7840
16880TIP3    H172131   4.223   3.510  14.796 -2.1744  0.6123  0.4933
16880TIP3    H272132   4.245   3.534  14.648  1.2565 -1.4496  0.5477
16881TIP3   OH272133   0.876   0.202  11.512 -0.4259  0.5141  0.2914
16881TIP3    H172134   0.884   0.295  11.491 -1.6065  0.2937 -1.2620
16881TIP3    H272135   0.948   0.160  11.465 -0.2650  0.5481  0.5006
16882TIP3   OH272136   0.216   2.478  10.314  0.2838 -0.2687 -0.2060
16882TIP3    H172137   0.158   2.553  10.309  0.3224 -0.2337 -0.1230
16882TIP3    H272138   0.292   2.509  10.363  1.3156  0.3036 -2.0822
16883TIP3   OH272139   2.202   2.292  11.923 -0.3890 -0.3401  0.1695
16883TIP3    H172140   2.189   2.317  11.832  0.3458 -2.0204 -0.4331
16883TIP3    H272141   2.135   2.225  11.939 -0.5720  0.0082  0.8997
16884TIP3   OH272142   6.052   1.971  15.515 -0.2913 -0.1719  0.5435
16884TIP3    H172143   6.122   2.021  15.473 -0.9438 -0.7244 -1.3013
16884TIP3    H272144   6.065   1.985  15.608  2.3023 -0.2688  0.2636
16885TIP3   OH272145   3.238   6.075   5.059 -0.4710  0.3730 -0.2949
16885TIP3    H172146   3.163   6.029   5.021 -0.8077  0.0386  0.7277
16885TIP3    H272147   3.314   6.040   5.014 -0.7080 -1.2992  0.5358
16886TIP3   OH272148   5.281   0.209   4.386  0.5514  0.1646  0.4953
16886TIP3    H172149   5.264   0.273   4.454  0.5766 -1.1592  1.8085
16886TIP3    H272150   5.234   0.242   4.309 -2.3844  0.0293  2.1051
16887TIP3   OH272151   3.622   2.412   3.731 -0.5939  0.5089  0.5479
16887TIP3    H172152   3.660   2.428   3.817  0.0165 -2.2746  0.8661
16887TIP3    H272153   3.536   2.375   3.749  0.1526 -1.5797  0.0605
16888TIP3   OH272154   0.872   4.196   0.380 -0.7451 -0.2794  0.2312
16888TIP3    H172155   0.870   4.206   0.475  1.4349 -0.3383  0.3277
16888TIP3    H272156   0.949   4.141   0.363 -1.4978 -0.8794 -1.5346
16889TIP3   OH272157   1.981   4.802  15.993 -0.8593 -0.3122  0.2361
16889TIP3    H172158   1.980   4.847  15.908  0.5656 -0.8506 -0.0926
16889TIP3    H272159   1.991   4.710  15.972  2.6680 -0.2333  0.9628
16890TIP3   OH272160   1.134   4.640   1.453 -0.2222  0.4379 -0.0514
16890TIP3    H172161   1.098   4.605   1.534 -1.0091 -2.3156 -1.4552
16890TIP3    H272162   1.221   4.599   1.446 -1.0604 -1.1999 -1.6248
16891TIP3   OH272163   1.388   6.489  12.446  0.6389  0.0464 -0.4422
16891TIP3    H172164   1.357   6.398  12.450  0.1323  0.1994 -0.7847
16891TIP3    H272165   1.467   6.485  12.392  0.1229 -0.0653 -1.2097
16892TIP3   OH272166   2.902   1.557   0.471  0.6808 -0.6319 -0.2073
16892TIP3    H172167   2.883   1.641   0.430  1.0125 -0.8112 -0.7322
16892TIP3    H272168   2.827   1.502   0.448  0.6989 -0.6256 -0.2831
16893TIP3   OH272169   2.169   5.832   6.070  0.5919 -0.0498  0.2211
16893TIP3    H172170   2.142   5.921   6.094  0.9341  0.4566 -1.1746
16893TIP3    H272171   2.251   5.819   6.119 -0.5766 -0.4874  2.1730
16894TIP3   OH272172   6.235   6.192   5.801 -0.2043 -0.0502 -0.4877
16894TIP3    H172173   6.304   6.259   5.807 -0.1947 -0.0995 -0.0252
16894TIP3    H272174   6.270   6.127   5.741  0.5621 -0.5575  0.4821
16895TIP3   OH272175   3.115   6.013   5.595  0.4760  0.7596  0.4010
16895TIP3    H172176   3.076   5.930   5.567 -3.4207  1.6285  2.5136
16895TIP3    H272177   3.112   6.069   5.518 -0.8657  0.1817  0.0095
16896TIP3   OH272178   0.276   0.622  16.274  0.1419  0.0142  0.1906
16896TIP3    H172179   0.259   0.662  16.360  1.0874 -0.2458  0.5138
16896TIP3    H272180   0.241   0.685  16.211 -0.0321  0.4880  0.7490
16897TIP3   OH272181   2.827   1.724  10.596  0.0166  0.4773  0.2143
16897TIP3    H172182   2.823   1.819  10.589 -0.1902  0.4834  0.4266
16897TIP3    H272183   2.750   1.694  10.547  0.2235  0.4078 -0.0751
16898TIP3   OH272184   2.835   6.384  17.074 -0.4971 -0.0150  0.7420
16898TIP3    H172185   2.780   6.455  17.040  1.7967  0.4025 -2.5396
16898TIP3    H272186   2.888   6.426  17.142  0.3788  1.3798 -0.7166
16899TIP3   OH272187   4.438   1.803  16.377  0.2221  0.3227  0.1538
16899TIP3    H172188   4.491   1.730  16.347  1.4191  0.9727  0.6392
16899TIP3    H272189   4.407   1.776  16.464 -0.8265 -0.3264 -0.3900
16900TIP3   OH272190   5.787   4.556  11.822 -0.8683 -0.4104  0.0494
16900TIP3    H172191   5.824   4.587  11.905 -0.2204  0.5659 -0.5870
16900TIP3    H272192   5.696   4.588  11.823 -0.6216  0.3113  0.0298
16901TIP3   OH272193   1.599   4.179   3.650  0.1344  0.2271  0.2627
16901TIP3    H172194   1.644   4.131   3.581  0.0047 -1.1744  1.1137
16901TIP3    H272195   1.664   4.188   3.720 -0.3501 -0.1862  0.7728
16902TIP3   OH272196   1.200   0.152   3.214 -0.8114 -0.0257  0.3278
16902TIP3    H172197   1.115   0.141   3.256 -0.9024  0.2909  0.2260
16902TIP3    H272198   1.180   0.189   3.128 -0.6078 -0.4369  0.0990
16903TIP3   OH272199   6.371   2.096   5.840 -0.0468  0.5512  0.2331
16903TIP3    H172200   6.421   2.153   5.782  1.1879 -0.7443 -0.0559
16903TIP3    H272201   6.280   2.119   5.826  0.2203  0.3276 -2.1769
16904TIP3   OH272202   5.813   3.152   3.452 -0.3059  0.0785 -0.0510
16904TIP3    H172203   5.785   3.201   3.530 -0.9744  0.7378 -0.6891
16904TIP3    H272204   5.772   3.066   3.463 -0.4127  0.1708  0.3130
16905TIP3   OH272205   5.442   4.374   2.787  0.0672  0.2693  0.0930
16905TIP3    H172206   5.528   4.335   2.802 -0.1317 -0.5902 -0.8880
16905TIP3    H272207   5.439   4.394   2.694  0.8929  4.5692  0.7700
16906TIP3   OH272208   4.927   5.230  11.605  0.0990 -0.0779  0.0299
16906TIP3    H172209   4.858   5.211  11.541  0.2296 -2.2000  0.4361
16906TIP3    H272210   5.005   5.247  11.553 -0.5014  1.4659 -0.4133
16907TIP3   OH272211   5.552   3.830  12.747  0.5040  0.5961  0.1044
16907TIP3    H172212   5.531   3.879  12.667  2.7687  0.0963 -0.8650
16907TIP3    H272213   5.500   3.750  12.740  0.4281  0.7023 -0.7179
16908TIP3   OH272214   5.424   2.929  17.022  0.4040  0.5450  0.2571
16908TIP3    H172215   5.471   3.002  17.061  0.2400  0.5239  0.5021
16908TIP3    H272216   5.400   2.958  16.935  2.0607  0.0563 -0.3963
16909TIP3   OH272217   0.895   6.431  17.197 -0.3740  0.0595 -0.1452
16909TIP3    H172218   0.829   6.458  17.133 -1.0202 -0.8893  0.1019
16909TIP3    H272219   0.884   6.493  17.270  1.3346  2.0796 -1.4737
16910TIP3   OH272220   1.244   3.760   6.053  0.3788  0.1190 -0.1285
16910TIP3    H172221   1.277   3.687   6.001 -1.4425 -0.9301  0.1157
16910TIP3    H272222   1.150   3.743   6.062  0.0635  2.0328  0.6911
16911TIP3   OH272223   5.101   5.548  11.533 -0.3846 -0.6268 -0.0008
16911TIP3    H172224   5.064   5.537  11.620  0.9623  0.6911  0.7839
16911TIP3    H272225   5.033   5.593  11.483 -0.0812  1.3553  1.2763
16912TIP3   OH272226   5.721   4.757  11.030 -0.2194 -0.0233  0.2231
16912TIP3    H172227   5.663   4.830  11.053 -0.3315  0.5235 -1.5790
16912TIP3    H272228   5.798   4.799  10.993  1.7203 -0.7134  3.1476
16913TIP3   OH272229   4.843   6.502  16.514 -0.0686  0.1902 -0.0976
16913TIP3    H172230   4.858   6.544  16.598 -0.8089  0.2989 -0.0099
16913TIP3    H272231   4.838   6.408  16.534 -0.6588  0.2492  0.0479
16914TIP3   OH272232   4.184   1.860   5.603 -0.9487 -0.1208 -0.6514
16914TIP3    H172233   4.176   1.873   5.698  1.8877 -1.2194 -0.1811
16914TIP3    H272234   4.103   1.897   5.568 -0.9237  2.8714  1.9346
16915TIP3   OH272235   6.348   3.471   0.477 -0.0828  0.0766 -0.0718
16915TIP3    H172236   6.357   3.392   0.530 -0.6946 -0.0795 -0.1929
16915TIP3    H272237   6.438   3.493   0.451  0.0826 -0.6242 -0.1042
16916TIP3   OH272238   1.809   6.829  12.583 -0.4455 -0.0405  0.1416
16916TIP3    H172239   1.896   6.868  12.583 -0.4534 -0.0223  0.3186
16916TIP3    H272240   1.795   6.801  12.674 -0.2038 -0.9839 -0.0996
16917TIP3   OH272241   2.079   5.560  16.593 -0.1493 -0.0535 -0.5608
16917TIP3    H172242   2.024   5.633  16.565  0.6213  1.2053  1.0448
16917TIP3    H272243   2.053   5.544  16.684  0.3008 -1.2167 -0.6234
16918TIP3   OH272244   1.519   3.012   0.846  1.1463  0.5091 -0.1402
16918TIP3    H172245   1.549   2.931   0.886 -0.3407  0.1312  0.2607
16918TIP3    H272246   1.527   2.996   0.752  0.9381 -0.0628 -0.0621
16919TIP3   OH272247   3.539   6.667  12.692 -0.4170 -0.3276  0.9139
16919TIP3    H172248   3.595   6.594  12.719  0.2382  0.0207  0.5155
16919TIP3    H272249   3.450   6.636  12.711 -0.1925 -1.4478  0.2722
16920TIP3   OH272250   4.762   1.508   0.836  0.6127 -0.3553 -0.7435
16920TIP3    H172251   4.819   1.454   0.890  0.6303 -0.9729 -1.3550
16920TIP3    H272252   4.788   1.487   0.746  0.0058  0.0045 -1.0083
16921TIP3   OH272253   4.890   2.290   2.468 -0.5631  0.3169  0.1206
16921TIP3    H172254   4.856   2.367   2.512 -0.9101  0.0447  0.3327
16921TIP3    H272255   4.966   2.264   2.521  0.0216  0.9493 -0.3795
16922TIP3   OH272256   5.610   1.900  13.128 -0.2677 -0.2125 -0.6908
16922TIP3    H172257   5.701   1.929  13.115 -0.3841  0.0030 -1.0444
16922TIP3    H272258   5.591   1.848  13.050 -1.2163  1.6824 -1.8020
16923TIP3   OH272259   1.133   0.437   5.667  0.4476 -0.3946 -0.0817
16923TIP3    H172260   1.072   0.496   5.713  0.4095 -0.5100  0.0167
16923TIP3    H272261   1.134   0.470   5.577  0.5473 -0.1463  0.0067
16924TIP3   OH272262   0.734   5.521   4.360 -0.0353  0.0207  0.0280
16924TIP3    H172263   0.816   5.558   4.391 -0.3577 -0.3185  1.3936
16924TIP3    H272264   0.674   5.530   4.435 -0.9450 -0.6210 -0.5956
16925TIP3   OH272265   6.371   0.784  14.898 -0.3754 -0.0165  0.5758
16925TIP3    H172266   6.427   0.811  14.825 -0.6121 -0.6924  0.1316
16925TIP3    H272267   6.429   0.783  14.974  0.2189 -0.6835  0.1265
16926TIP3   OH272268   1.292   5.839   0.226 -0.1044 -0.3635 -0.4537
16926TIP3    H172269   1.299   5.811   0.135 -3.7092  0.3799 -1.1090
16926TIP3    H272270   1.268   5.931   0.221 -0.0302 -0.2228  1.2616
16927TIP3   OH272271   1.132   5.015  11.059  0.2606  0.1041  0.3747
16927TIP3    H172272   1.104   5.038  10.970  1.9027 -1.2382 -0.5462
16927TIP3    H272273   1.082   4.936  11.080  0.3302  0.0684  0.4042
16928TIP3   OH272274   5.987   0.812   4.765 -0.8297 -0.0643 -0.1752
16928TIP3    H172275   5.964   0.801   4.673 -0.3479 -1.6517 -0.1329
16928TIP3    H272276   5.950   0.736   4.808 -0.4173  0.2929  0.8275
16929TIP3   OH272277   2.783   5.669   3.115 -0.0537  0.0505 -0.5566
16929TIP3    H172278   2.703   5.667   3.062 -1.0241 -0.5882  0.8578
16929TIP3    H272279   2.811   5.761   3.113 -0.5521  0.1880 -1.4699
16930TIP3   OH272280   1.600   2.840  12.678  0.6490 -0.1869 -0.1022
16930TIP3    H172281   1.553   2.759  12.660 -0.2302  0.3845 -0.4519
16930TIP3    H272282   1.624   2.833  12.770 -1.7948  0.2896  0.6621
16931TIP3   OH272283   3.818   4.573   5.976  0.1775 -0.3243  0.2998
16931TIP3    H172284   3.798   4.661   5.945  0.2516 -0.6206 -0.6172
16931TIP3    H272285   3.912   4.575   5.995 -0.0131  0.0781  1.2897
16932TIP3   OH272286   1.619   0.685  16.885 -0.3902 -0.7719 -0.6707
16932TIP3    H172287   1.551   0.621  16.867 -1.0540 -0.3137  0.1350
16932TIP3    H272288   1.629   0.733  16.803 -0.2766 -1.5323 -1.1143
16933TIP3   OH272289   1.064   3.102  12.787 -0.3921 -1.0284  0.1591
16933TIP3    H172290   1.066   3.192  12.754 -0.4213 -1.2336 -0.4277
16933TIP3    H272291   1.014   3.106  12.868 -2.2697 -0.8604 -0.9621
16934TIP3   OH272292   0.459   3.799  15.749  0.6491 -0.0036 -0.1873
16934TIP3    H172293   0.523   3.816  15.818  1.5136 -0.5459 -0.8392
16934TIP3    H272294   0.375   3.816  15.790  1.0980 -1.0719  1.2473
16935TIP3   OH272295   0.783   5.887   4.280  0.7341  0.7869 -0.3626
16935TIP3    H172296   0.843   5.962   4.283 -0.0549  1.4714 -1.0624
16935TIP3    H272297   0.781   5.862   4.187  1.9981 -0.9801  0.0212
16936TIP3   OH272298   2.094   3.878  12.244  0.0093 -0.0907 -0.3246
16936TIP3    H172299   2.179   3.921  12.229 -0.7379  1.4381 -0.3780
16936TIP3    H272300   2.086   3.873  12.339 -0.9412  2.1706 -0.2279
16937TIP3   OH272301   2.857   5.516  10.930  0.0749 -0.4173 -0.3868
16937TIP3    H172302   2.866   5.564  10.848  0.2949 -1.9481 -1.2823
16937TIP3    H272303   2.921   5.445  10.924 -0.0030 -0.6422  1.0600
16938TIP3   OH272304   5.406   3.637  11.660  0.5402  0.2813  0.1497
16938TIP3    H172305   5.428   3.728  11.681  0.5419  0.8879 -2.2013
16938TIP3    H272306   5.474   3.608  11.600 -0.9909 -0.2609 -1.4297
16939TIP3   OH272307   5.093   0.866  13.442  0.1967 -0.4338  0.2049
16939TIP3    H172308   5.081   0.808  13.517  0.8996 -1.0089 -0.1049
16939TIP3    H272309   5.020   0.927  13.446 -0.7611 -1.5578  0.3571
16940TIP3   OH272310   4.405   5.972   2.299  0.6501  0.1785  0.1680
16940TIP3    H172311   4.398   5.881   2.328 -1.0349  0.0549 -0.4934
16940TIP3    H272312   4.380   6.024   2.376 -0.3526 -0.0149 -0.0123
16941TIP3   OH272313   3.121   5.258   5.566  0.6352 -0.6761 -0.1654
16941TIP3    H172314   3.080   5.308   5.637  1.4450  0.2663 -0.3354
16941TIP3    H272315   3.105   5.166   5.589  1.5158 -0.4141  1.6261
16942TIP3   OH272316   2.252   5.850  12.261 -0.6737 -0.4821  0.0849
16942TIP3    H172317   2.243   5.936  12.304 -1.9956 -1.0198  0.9380
16942TIP3    H272318   2.305   5.868  12.183  4.2739  0.1457  3.0991
16943TIP3   OH272319   1.884   0.737   6.038  0.3935  0.2559  0.3488
16943TIP3    H172320   1.924   0.668   6.091  0.2665  1.7930  2.5573
16943TIP3    H272321   1.789   0.724   6.049  0.3504  0.2998  0.0571
16944TIP3   OH272322   4.302   1.978   3.381 -0.1600  0.3124  0.4453
16944TIP3    H172323   4.221   1.936   3.353  0.2222 -1.2109  1.5294
16944TIP3    H272324   4.359   1.974   3.305 -1.1297  1.5663 -0.3894
16945TIP3   OH272325   6.501   6.627  13.104 -0.4593  0.3284 -0.1284
16945TIP3    H172326   6.512   6.685  13.029 -2.0248 -0.0015 -0.6510
16945TIP3    H272327   6.459   6.683  13.170 -1.4729 -0.0338 -0.4426
16946TIP3   OH272328   6.579   3.225   0.057 -0.1339 -0.8048 -0.5132
16946TIP3    H172329   6.505   3.166   0.068 -0.2762 -0.3832  0.9903
16946TIP3    H272330   6.634   3.182  -0.009 -0.3285 -2.5289  0.3943
16947TIP3   OH272331   2.103   4.348   0.322 -0.2511  0.0423  0.2670
16947TIP3    H172332   2.138   4.428   0.360 -2.3133  1.0740  0.1243
16947TIP3    H272333   2.108   4.361   0.228  0.7232 -0.6294  0.2102
16948TIP3   OH272334   3.775   5.485  16.065 -0.3182  0.6955 -0.0791
16948TIP3    H172335   3.735   5.512  16.148  0.7455  0.7119  0.4541
16948TIP3    H272336   3.720   5.414  16.033 -1.7143  1.7936 -0.2172
16949TIP3   OH272337   3.771   4.616   3.287  0.1760 -0.2381 -0.1971
16949TIP3    H172338   3.723   4.621   3.204 -0.1649 -1.0208 -0.0519
16949TIP3    H272339   3.724   4.551   3.338 -0.0808  0.7972  0.9274
16950TIP3   OH272340   3.785   1.505   4.650  0.2945 -0.0082  0.5860
16950TIP3    H172341   3.692   1.515   4.671  0.2804  1.3980 -0.0269
16950TIP3    H272342   3.804   1.413   4.669 -1.5211 -0.6432 -0.4372
16951TIP3   OH272343   3.817   5.349   2.140 -0.3479  0.4922  0.7526
16951TIP3    H172344   3.769   5.413   2.088 -0.6529  0.0176  0.4417
16951TIP3    H272345   3.753   5.317   2.204 -0.7848 -0.9221 -0.3421
16952TIP3   OH272346   0.630   1.371  11.615  0.0414  0.2429 -0.8243
16952TIP3    H172347   0.712   1.376  11.664 -0.1588 -0.0835 -0.4559
16952TIP3    H272348   0.598   1.282  11.629  0.4609 -0.1822 -2.3333
16953TIP3   OH272349   2.846   6.342   6.317  0.4821  0.3454 -0.3353
16953TIP3    H172350   2.782   6.399   6.360 -0.7705 -1.2995  0.0693
16953TIP3    H272351   2.885   6.397   6.249  0.5630  2.1921  1.1060
16954TIP3   OH272352   0.445   0.282  14.417 -0.1006 -0.3974 -0.0547
16954TIP3    H172353   0.432   0.201  14.368 -0.9701  0.4659 -1.3337
16954TIP3    H272354   0.367   0.290  14.472 -0.5220  0.0838 -0.7127
16955TIP3   OH272355   4.846   5.460   4.660  0.2189  0.2169  0.2748
16955TIP3    H172356   4.859   5.553   4.640  0.2591 -0.1879 -1.7102
16955TIP3    H272357   4.828   5.419   4.576  0.3835 -1.6304  1.0890
16956TIP3   OH272358   6.098   6.452   4.225 -0.4424  0.5286 -0.2187
16956TIP3    H172359   6.040   6.376   4.212 -0.1324 -0.0456  1.4637
16956TIP3    H272360   6.168   6.440   4.161 -0.4179 -0.5972 -0.0013
16957TIP3   OH272361   5.589   1.168   2.544  0.0589 -0.2672 -0.5148
16957TIP3    H172362   5.540   1.159   2.625  0.5185 -0.3842 -0.2421
16957TIP3    H272363   5.523   1.169   2.475 -0.4383  1.1169 -0.0611
16958TIP3   OH272364   4.445   0.548  11.840 -0.5567 -0.2748  0.0790
16958TIP3    H172365   4.534   0.532  11.871 -0.2689 -0.3004 -0.7313
16958TIP3    H272366   4.391   0.483  11.886 -0.3482  0.4670  1.4157
16959TIP3   OH272367   0.064   0.662  11.089 -0.1195  0.5738 -0.5439
16959TIP3    H172368  -0.026   0.662  11.058 -0.2106  0.1761 -0.2846
16959TIP3    H272369   0.116   0.635  11.013 -0.5822 -3.0382  0.2579
16960TIP3   OH272370   0.488   1.650  16.534  0.9949 -0.5748  0.9471
16960TIP3    H172371   0.539   1.593  16.591  0.2498 -0.8124  1.3896
16960TIP3    H272372   0.438   1.591  16.478  1.7248 -0.3443  0.0190
16961TIP3   OH272373   1.871   1.606   4.481 -0.3862 -0.3632  0.1690
16961TIP3    H172374   1.934   1.657   4.532  0.9097 -1.3055 -0.4385
16961TIP3    H272375   1.920   1.577   4.404 -1.8277 -0.3622 -0.7906
16962TIP3   OH272376   4.529   0.328  13.788  0.3119 -0.2249  0.7642
16962TIP3    H172377   4.597   0.354  13.725 -1.1637 -1.0894 -1.2920
16962TIP3    H272378   4.493   0.410  13.820 -0.7186  0.3174 -1.6198
16963TIP3   OH272379   2.936   3.699   2.817 -0.7458  0.0280  0.1759
16963TIP3    H172380   2.901   3.788   2.822 -2.4485 -0.6096  0.4049
16963TIP3    H272381   3.026   3.706   2.850 -1.4496  1.3719  1.9966
16964TIP3   OH272382   4.537   1.248  10.622  0.3553 -0.0134  0.1197
16964TIP3    H172383   4.560   1.326  10.572  1.7280  0.2299  1.0884
16964TIP3    H272384   4.447   1.228  10.595  0.6552  0.7562 -1.5809
16965TIP3   OH272385   1.380   6.429   3.073 -0.6241 -0.1027 -0.6031
16965TIP3    H172386   1.315   6.364   3.100 -1.4933 -0.0125 -2.3821
16965TIP3    H272387   1.336   6.480   3.005  1.8423 -1.1032 -3.1020
16966TIP3   OH272388   0.729   6.010   5.262  0.0392 -0.8509  0.2720
16966TIP3    H172389   0.680   5.984   5.340 -2.4542  0.7227 -0.6472
16966TIP3    H272390   0.757   5.928   5.223 -0.1642 -1.7398  1.8916
16967TIP3   OH272391   3.065   2.139  11.912 -0.0932  0.2611  0.2072
16967TIP3    H172392   3.100   2.151  12.001  0.0311  0.2024  0.1668
16967TIP3    H272393   2.978   2.103  11.925  0.5529 -1.3764  0.2837
16968TIP3   OH272394   1.181   4.811  13.459  0.2311 -0.5689  0.0947
16968TIP3    H172395   1.201   4.797  13.366 -1.1625  1.0488 -0.4962
16968TIP3    H272396   1.157   4.903  13.464  0.9285 -0.4623  2.2193
16969TIP3   OH272397   4.686   5.901  16.876  0.2888  0.1664  0.8602
16969TIP3    H172398   4.594   5.925  16.864  0.4140  0.6367  0.7970
16969TIP3    H272399   4.684   5.826  16.935 -0.1001  0.5663  1.3603
16970TIP3   OH272400   0.621   4.756  13.520  0.7696  0.0505 -0.7106
16970TIP3    H172401   0.559   4.811  13.472  0.5189  0.6748  0.2879
16970TIP3    H272402   0.698   4.812  13.533  0.7760 -0.0610 -0.2654
16971TIP3   OH272403   5.609   0.755  11.225  0.1724  0.3058  0.3507
16971TIP3    H172404   5.544   0.769  11.156 -0.5807 -0.8163  0.8080
16971TIP3    H272405   5.557   0.749  11.306  0.9599  0.6275  0.8895
16972TIP3   OH272406   2.988   6.150   5.036  0.0250 -0.2098  0.1552
16972TIP3    H172407   2.992   6.196   4.953 -1.6449  0.4118  0.3773
16972TIP3    H272408   3.076   6.160   5.073  0.2663  1.0924 -0.6985
16973TIP3   OH272409   3.315   2.955  12.722 -0.2171 -0.0142 -0.3395
16973TIP3    H172410   3.399   2.915  12.700 -0.3646 -0.3800 -0.2540
16973TIP3    H272411   3.337   3.044  12.748 -0.0705  0.5946 -2.3502
16974TIP3   OH272412   5.561   0.705   1.955  0.3673  0.1404 -0.0112
16974TIP3    H172413   5.556   0.754   2.037 -0.2301 -0.2249  0.1748
16974TIP3    H272414   5.617   0.630   1.974 -0.2116 -0.2387  0.2207
16975TIP3   OH272415   2.992   6.199  11.659  0.0738 -0.0847 -0.3479
16975TIP3    H172416   2.974   6.105  11.664 -1.0606  0.1870  1.1672
16975TIP3    H272417   2.983   6.230  11.749  0.2048  1.5286 -0.8721
16976TIP3   OH272418   1.923   0.928  15.974 -0.9476  0.2762  0.2859
16976TIP3    H172419   2.014   0.909  15.999 -0.6909  0.6524 -0.3428
16976TIP3    H272420   1.917   1.023  15.977 -0.9074  0.3371 -1.0527
16977TIP3   OH272421   2.473   4.275  15.562  0.1557  0.4313  0.1184
16977TIP3    H172422   2.515   4.190  15.573 -3.0285 -1.6139 -1.6719
16977TIP3    H272423   2.514   4.312  15.483 -0.8848 -1.2743 -1.3044
16978TIP3   OH272424   0.134   5.369  14.993 -0.1001  0.0700 -0.3433
16978TIP3    H172425   0.137   5.454  14.948 -0.6934  0.1215 -0.2833
16978TIP3    H272426   0.139   5.391  15.086  3.2810 -0.1194 -0.3561
16979TIP3   OH272427   3.621   2.827   0.816 -0.4217  0.3745  0.2522
16979TIP3    H172428   3.616   2.732   0.818 -0.9564  0.4139  0.8419
16979TIP3    H272429   3.711   2.847   0.843 -0.4430  0.0557  0.5538
16980TIP3   OH272430   4.754   1.594   5.748 -0.2307 -0.0238  0.2632
16980TIP3    H172431   4.763   1.674   5.696  0.3366 -1.8892 -2.7636
16980TIP3    H272432   4.831   1.594   5.805 -0.1941  1.5331  0.2553
16981TIP3   OH272433   3.886   3.735  15.702 -0.3423  0.1259 -0.0343
16981TIP3    H172434   3.801   3.697  15.724  0.1165 -1.6319 -1.1374
16981TIP3    H272435   3.899   3.803  15.768 -1.5310 -1.1696  1.6190
16982TIP3   OH272436   4.321   4.192   5.799 -0.0439 -0.5578  1.0660
16982TIP3    H172437   4.334   4.224   5.888 -0.3415  1.0917  0.5622
16982TIP3    H272438   4.266   4.114   5.808  2.2334 -2.1233  2.5176
16983TIP3   OH272439   1.889   0.734  15.608  0.2885 -0.0221 -0.1272
16983TIP3    H172440   1.875   0.658  15.665  1.0484  0.7174  1.0868
16983TIP3    H272441   1.961   0.708  15.551 -0.2301 -0.6290 -0.5280
16984TIP3   OH272442   6.716   6.588  12.000  0.0807 -0.1244  0.1635
16984TIP3    H172443   6.767   6.634  12.067  1.9519 -0.0116 -1.2441
16984TIP3    H272444   6.705   6.652  11.930  2.4236 -1.5569 -1.6884
16985TIP3   OH272445   6.166   3.453   6.411  0.1223  0.2467 -0.0070
16985TIP3    H172446   6.096   3.468   6.475 -0.1861  0.3431 -0.3638
16985TIP3    H272447   6.225   3.391   6.454  0.1640  0.6681  0.5551
16986TIP3   OH272448   6.368   0.214  11.558 -0.6254  0.3537 -0.1505
16986TIP3    H172449   6.277   0.198  11.531 -1.1128  1.1680  0.9548
16986TIP3    H272450   6.420   0.160  11.498 -1.8100  0.1327 -1.0259
16987TIP3   OH272451   0.061   5.160  14.276  0.3064 -0.0546 -0.1199
16987TIP3    H172452   0.069   5.213  14.355 -3.2300  0.4313  0.0893
16987TIP3    H272453   0.030   5.221  14.209 -1.4992 -1.3106 -0.5099
16988TIP3   OH272454   3.512   4.206   3.026  0.1758 -0.1112 -0.2429
16988TIP3    H172455   3.563   4.207   2.945 -0.4989  0.9471 -0.6615
16988TIP3    H272456   3.433   4.256   3.006  0.2891  0.7106  1.2522
16989TIP3   OH272457   4.454   2.782  15.169  0.2896 -0.1902  0.2035
16989TIP3    H172458   4.484   2.849  15.230 -0.8072  0.5259 -0.0033
16989TIP3    H272459   4.474   2.817  15.082  3.0811 -1.7915  0.0768
16990TIP3   OH272460   2.967   2.022   6.850 -0.0920 -0.3264 -0.0560
16990TIP3    H172461   2.964   2.085   6.778  0.0454 -1.0387 -0.6977
16990TIP3    H272462   2.877   1.989   6.856 -0.3776  0.5488  0.8627
16991TIP3   OH272463   6.028   5.490  13.766 -0.6687 -0.3001 -0.4362
16991TIP3    H172464   5.968   5.418  13.747 -1.2607 -0.4364  1.7518
16991TIP3    H272465   5.970   5.565  13.780 -0.2689 -0.1941  0.6737
16992TIP3   OH272466   5.532   6.160   5.939  0.0366 -0.2341  0.0655
16992TIP3    H172467   5.518   6.159   6.034  0.5617  0.3904  0.1580
16992TIP3    H272468   5.537   6.068   5.915 -0.3156 -0.4028  0.6097
16993TIP3   OH272469   5.917   2.399   0.942 -0.0376 -0.0183  0.2836
16993TIP3    H172470   5.832   2.357   0.957 -0.0710  0.4021  1.4389
16993TIP3    H272471   5.896   2.493   0.937  0.1661 -0.0298 -1.1212
16994TIP3   OH272472   5.408   2.394   2.999  0.0164 -0.1720 -0.0554
16994TIP3    H172473   5.499   2.380   2.973  0.2397 -2.1645  1.5558
16994TIP3    H272474   5.408   2.482   3.036  1.0168  0.2824 -1.0535
16995TIP3   OH272475   5.114   0.102  15.652  0.0754 -0.7398 -0.1500
16995TIP3    H172476   5.149   0.191  15.640 -0.0788 -0.9288 -2.5011
16995TIP3    H272477   5.128   0.060  15.567  0.6453 -3.1777  1.0865
16996TIP3   OH272478   3.497   5.505  16.677 -0.2191 -0.1361 -0.3322
16996TIP3    H172479   3.560   5.554  16.729  1.1463 -1.1174 -1.0028
16996TIP3    H272480   3.412   5.522  16.719  0.5599  0.7198  0.9479
16997TIP3   OH272481   3.954   0.878  12.066 -0.3460  0.1189  0.1497
16997TIP3    H172482   4.020   0.824  12.023 -0.1269 -0.3233  1.0187
16997TIP3    H272483   3.908   0.818  12.125 -1.5574  0.4089 -0.4667
16998TIP3   OH272484   6.095   4.717   1.203  0.1863 -0.3677  0.3667
16998TIP3    H172485   6.019   4.669   1.169 -0.2883 -0.9597  2.1551
16998TIP3    H272486   6.170   4.660   1.183  0.0249 -0.3221 -0.3912
16999TIP3   OH272487   1.959   3.950   0.957  0.1727 -0.4692  0.3669
16999TIP3    H172488   1.918   3.948   0.870  0.8860 -2.0298  0.0307
16999TIP3    H272489   1.888   3.932   1.018 -0.0427 -0.9627 -0.0257
17000TIP3   OH272490   4.971   6.701  14.188  0.0873  0.7174 -0.6074
17000TIP3    H172491   5.003   6.791  14.199  0.9031  0.1912  1.9866
17000TIP3    H272492   5.045   6.655  14.147  0.4288  0.8086 -0.1053
17001TIP3   OH272493   4.151   0.262   0.168 -0.2557  0.3704 -0.5515
17001TIP3    H172494   4.079   0.203   0.148  0.2026 -0.7184  0.7988
17001TIP3    H272495   4.129   0.299   0.253  0.0830  1.1524 -0.7984
17002TIP3   OH272496   1.644   3.460   4.848 -0.3028  0.6241 -0.2981
17002TIP3    H172497   1.604   3.430   4.767 -1.5301 -0.6140  0.7316
17002TIP3    H272498   1.572   3.466   4.911  0.4626  2.4547  0.4909
17003TIP3   OH272499   4.858   6.752  15.378 -0.8160  0.2921  0.8851
17003TIP3    H172500   4.812   6.823  15.424  0.2019  0.7790  1.1854
17003TIP3    H272501   4.813   6.744  15.294 -1.4930  0.7023  1.2040
17004TIP3   OH272502   0.133   5.784  17.018  0.0946  0.1245 -0.9527
17004TIP3    H172503   0.112   5.795  16.925 -0.7737 -1.0366 -0.9064
17004TIP3    H272504   0.062   5.828  17.064  1.7075  2.8103 -0.7771
17005TIP3   OH272505   3.844   5.228  17.074 -0.0903  0.1043 -0.0467
17005TIP3    H172506   3.870   5.183  16.994  1.7249  1.8213 -0.5010
17005TIP3    H272507   3.916   5.214  17.135 -0.2833  0.9253  0.3909
17006TIP3   OH272508   3.027   1.636  12.047 -0.1899  0.2127  0.6576
17006TIP3    H172509   2.961   1.696  12.082  0.5301  1.3560  0.0953
17006TIP3    H272510   3.106   1.689  12.038  0.7849 -1.0875  1.1535
17007TIP3   OH272511   1.869   3.829  15.771 -0.2647 -0.6185  0.0894
17007TIP3    H172512   1.925   3.819  15.848 -0.9824  0.0553  0.7107
17007TIP3    H272513   1.924   3.803  15.697 -0.0005 -2.6930  0.9568
17008TIP3   OH272514   1.543   5.797   2.938 -0.0241 -0.2463 -0.8179
17008TIP3    H172515   1.518   5.712   2.901 -0.9555 -0.4439  0.2087
17008TIP3    H272516   1.595   5.776   3.015  0.4514  0.1356 -1.0294
17009TIP3   OH272517   5.451   3.900   5.668 -0.1823 -0.4546 -0.3729
17009TIP3    H172518   5.396   3.823   5.685 -0.0797 -0.8135 -1.5587
17009TIP3    H272519   5.414   3.938   5.588 -0.7373  1.2207  0.6394
17010TIP3   OH272520   3.812   6.127  16.761 -0.3622 -0.7808 -0.1459
17010TIP3    H172521   3.737   6.117  16.702  0.4264 -4.0970 -0.7804
17010TIP3    H272522   3.803   6.055  16.823  1.7339 -0.6429  0.3935
17011TIP3   OH272523   1.157   2.471   2.164 -0.2536  0.0764 -0.4845
17011TIP3    H172524   1.091   2.441   2.103  0.0588  1.3160 -1.4894
17011TIP3    H272525   1.178   2.560   2.134 -1.0144  1.2567  2.1690
17012TIP3   OH272526   0.465   5.505  13.105 -0.2361  0.2374  0.3331
17012TIP3    H172527   0.372   5.522  13.094 -0.0675 -0.0949 -2.0927
17012TIP3    H272528   0.481   5.425  13.056  0.9206 -1.1458  2.7809
17013TIP3   OH272529   5.518   5.102   4.697 -0.4499  0.2003 -0.0113
17013TIP3    H172530   5.581   5.060   4.756  0.3279  0.1272 -0.8786
17013TIP3    H272531   5.436   5.056   4.714 -0.3754  0.5434  1.3994
17014TIP3   OH272532   1.134   4.791  10.327 -0.2070 -0.3851 -0.8910
17014TIP3    H172533   1.062   4.788  10.263 -1.2418  1.2066  0.1124
17014TIP3    H272534   1.114   4.867  10.381  1.3805 -0.8854  0.4747
17015TIP3   OH272535   3.219   0.337  16.899 -0.4443 -0.2324 -0.0372
17015TIP3    H172536   3.231   0.430  16.917  1.5788 -0.6532  1.0391
17015TIP3    H272537   3.224   0.331  16.803 -1.2704  0.8129 -0.1708
17016TIP3   OH272538   0.081   4.092   2.477 -0.1306 -0.1333  0.3723
17016TIP3    H172539   0.157   4.035   2.471  0.1182  0.0911  1.2766
17016TIP3    H272540   0.013   4.047   2.427  0.6149 -0.2901 -0.5129
17017TIP3   OH272541   3.593   4.014  12.200  0.8877 -0.0906 -0.7304
17017TIP3    H172542   3.634   3.928  12.195 -1.2702 -1.2214 -0.2615
17017TIP3    H272543   3.553   4.025  12.113 -1.1965 -0.8951  0.0516
17018TIP3   OH272544   6.535   1.659   6.206  0.8081  0.2894  0.9035
17018TIP3    H172545   6.545   1.583   6.263  0.1389  0.7194  1.5974
17018TIP3    H272546   6.523   1.622   6.118 -0.5378 -0.4472  1.3755
17019TIP3   OH272547   5.645   6.060   4.669 -0.6171 -0.1746 -0.2940
17019TIP3    H172548   5.552   6.072   4.688 -1.1577 -3.1126 -0.6916
17019TIP3    H272549   5.687   6.053   4.755 -1.2232 -1.5999 -0.0960
17020TIP3   OH272550   1.352   1.793   2.418 -0.2687 -0.2562 -0.1652
17020TIP3    H172551   1.359   1.769   2.326 -2.8882  2.2851 -1.1922
17020TIP3    H272552   1.406   1.872   2.426 -0.9926  0.2214  0.1311
17021TIP3   OH272553   0.028   0.638   4.198  0.1583 -0.0568  0.2366
17021TIP3    H172554  -0.004   0.559   4.241 -3.0556 -1.0269 -3.4382
17021TIP3    H272555   0.117   0.615   4.169 -0.0805 -1.6664  0.7041
17022TIP3   OH272556   4.956   4.232   0.086  0.3179 -0.2846 -0.0147
17022TIP3    H172557   4.948   4.305   0.147  0.2398  0.8933 -1.3687
17022TIP3    H272558   4.938   4.154   0.138 -3.2233  0.8769  0.7765
17023TIP3   OH272559   5.778   0.296  10.697 -1.1972  0.3675 -0.1982
17023TIP3    H172560   5.839   0.365  10.724 -0.1571 -0.1803 -1.0376
17023TIP3    H272561   5.738   0.329  10.617  0.4391 -0.5723 -1.4722
17024TIP3   OH272562   6.352   0.023  14.050  0.1029  0.4055 -0.6953
17024TIP3    H172563   6.361  -0.031  13.972  0.6686  1.5855 -1.4680
17024TIP3    H272564   6.270   0.070  14.038 -0.2298 -0.0298 -0.1741
17025TIP3   OH272565   0.135   0.778  15.604 -0.2659  0.3818 -0.1595
17025TIP3    H172566   0.179   0.839  15.664  0.9991  0.0871 -0.7650
17025TIP3    H272567   0.198   0.707  15.593 -1.3475 -0.5829 -0.2034
17026TIP3   OH272568   3.897   4.965   4.840  0.3061 -0.3789  0.4154
17026TIP3    H172569   3.851   4.881   4.831 -1.2490  0.3021  1.6407
17026TIP3    H272570   3.862   5.003   4.920  0.0488  2.0067 -0.7531
17027TIP3   OH272571   6.096   5.640   3.857 -0.6454  0.2717  0.5437
17027TIP3    H172572   6.186   5.613   3.842 -1.0077 -0.3868 -0.4724
17027TIP3    H272573   6.078   5.705   3.789 -0.5610  1.3271  1.4912
17028TIP3   OH272574   5.901   1.169   2.345 -0.3852  0.1233  0.3777
17028TIP3    H172575   5.926   1.169   2.253  2.8409  3.3367  1.0623
17028TIP3    H272576   5.835   1.238   2.352 -0.8161 -0.2915  0.4562
17029TIP3   OH272577   5.026   4.096  14.424 -0.3047  0.1810  0.0301
17029TIP3    H172578   5.077   4.029  14.468  2.2615  1.9270 -0.0882
17029TIP3    H272579   5.027   4.071  14.332  1.3200  0.7417 -0.1280
17030TIP3   OH272580   4.911   3.210  10.851 -0.0475 -0.5792  0.1786
17030TIP3    H172581   4.839   3.269  10.869 -0.8751 -2.1342  2.4115
17030TIP3    H272582   4.990   3.263  10.864 -0.7392  0.7459 -0.8133
17031TIP3   OH272583   0.749   5.754   5.610 -0.0397 -0.2377 -0.3853
17031TIP3    H172584   0.657   5.768   5.591 -0.7564 -3.1002  0.5080
17031TIP3    H272585   0.762   5.789   5.699 -0.9696 -2.1270  0.5405
17032TIP3   OH272586   0.893   6.250  14.091  0.2291 -0.2835 -0.2945
17032TIP3    H172587   0.863   6.187  14.026  0.3222 -0.2642 -0.3567
17032TIP3    H272588   0.939   6.317  14.040  1.5243 -0.9850 -0.0773
17033TIP3   OH272589   0.047   1.940   3.452 -0.1383 -0.2605 -0.0944
17033TIP3    H172590   0.142   1.938   3.459 -0.1277 -0.7354 -0.2811
17033TIP3    H272591   0.016   1.916   3.539 -0.0761 -0.7760 -0.2109
17034TIP3   OH272592   2.260   4.675  14.460 -0.6202 -0.4725  0.3208
17034TIP3    H172593   2.253   4.583  14.486  0.0343  0.1994  3.1575
17034TIP3    H272594   2.289   4.720  14.539  5.7170  1.3098 -2.4039
17035TIP3   OH272595   2.595   5.113  12.101  0.3340  0.4148  0.2905
17035TIP3    H172596   2.639   5.159  12.172  0.5285  1.7181 -0.6389
17035TIP3    H272597   2.649   5.130  12.024  0.0946 -0.9156 -0.2038
17036TIP3   OH272598   5.748   6.811  11.651  0.2686  1.0773 -0.0679
17036TIP3    H172599   5.774   6.862  11.728  0.4456  0.6184  0.1839
17036TIP3    H272600   5.653   6.804  11.657 -0.0151  3.1346 -1.2217
17037TIP3   OH272601   1.644   1.274  13.051  0.0283  1.2298 -0.6777
17037TIP3    H172602   1.706   1.323  13.106  0.8338 -0.3930 -0.0786
17037TIP3    H272603   1.561   1.319  13.064  0.0481  0.6662  2.3613
17038TIP3   OH272604   3.579   0.182   1.884 -0.1425  0.4452  0.0512
17038TIP3    H172605   3.560   0.097   1.924  0.5902  1.1876  2.1392
17038TIP3    H272606   3.616   0.161   1.798 -2.2793 -1.2221 -0.5256
17039TIP3   OH272607   6.315   0.130   5.615  0.1588 -0.0339 -0.4421
17039TIP3    H172608   6.248   0.062   5.624  0.2106 -0.1681 -1.0434
17039TIP3    H272609   6.299   0.189   5.689  0.1586 -0.7326  0.1163
17040TIP3   OH272610   5.947   5.739  14.486  0.2181 -0.9012  0.0155
17040TIP3    H172611   5.981   5.788  14.411 -1.8838  0.1031 -0.3385
17040TIP3    H272612   6.015   5.674  14.505  3.1192  1.9775  0.4314
17041TIP3   OH272613   5.679   1.328   2.281  0.1762  0.1754 -0.4214
17041TIP3    H172614   5.636   1.322   2.196  0.6290  0.6566 -0.6839
17041TIP3    H272615   5.610   1.306   2.344 -0.5541  1.2570 -0.8175
17042TIP3   OH272616   2.621   4.202   2.355  0.1281  0.0459  0.3559
17042TIP3    H172617   2.679   4.219   2.281 -1.4775 -1.1528 -1.2832
17042TIP3    H272618   2.547   4.262   2.343  0.4159  0.7223  1.7292
17043TIP3   OH272619   0.170   2.849  10.656 -0.3902 -0.4179 -0.2271
17043TIP3    H172620   0.108   2.915  10.687 -1.4796 -1.8272  0.7251
17043TIP3    H272621   0.180   2.868  10.563 -2.2330 -0.1190 -0.4015
17044TIP3   OH272622   4.870   0.565  16.865 -0.0718 -0.2666  0.2543
17044TIP3    H172623   4.957   0.564  16.826 -0.1092  0.1548  0.1508
17044TIP3    H272624   4.885   0.552  16.958  0.1289  0.1086  0.2764
17045TIP3   OH272625   1.503   6.274   0.567  0.3779  0.3176 -0.1101
17045TIP3    H172626   1.532   6.198   0.617 -1.3096 -2.4686 -2.9514
17045TIP3    H272627   1.577   6.335   0.570  1.4113 -0.9097  3.1555
17046TIP3   OH272628   3.308   5.448  12.960  0.1328 -0.3354 -0.5005
17046TIP3    H172629   3.341   5.523  13.010 -1.9393  0.6714 -0.5098
17046TIP3    H272630   3.304   5.479  12.870  0.4484 -0.8907 -0.7074
17047TIP3   OH272631   6.084   0.653  14.804 -0.4135  0.2354 -0.0758
17047TIP3    H172632   6.159   0.690  14.850 -1.0236  0.5638  0.6793
17047TIP3    H272633   6.053   0.724  14.748 -0.5917  0.3365  0.1495
17048TIP3   OH272634   1.864   3.922  11.288 -0.1904 -0.5769  0.3257
17048TIP3    H172635   1.932   3.988  11.274 -0.3884 -0.5014 -0.3559
17048TIP3    H272636   1.893   3.846  11.238 -0.0996 -0.9046  0.8827
17049TIP3   OH272637   2.134   4.840  13.346  0.3562  0.1552 -0.2809
17049TIP3    H172638   2.215   4.803  13.383  0.1770  0.8885  0.8947
17049TIP3    H272639   2.106   4.905  13.410 -0.8825  0.2999 -0.9403
17050TIP3   OH272640   4.299   4.733   0.334 -0.5022 -0.2325 -0.0944
17050TIP3    H172641   4.298   4.797   0.406 -2.6262  0.2352 -0.4796
17050TIP3    H272642   4.219   4.751   0.285  0.6447 -0.8412 -2.3361
17051TIP3   OH272643   5.054   4.116   1.803  0.3318 -0.3114 -0.0432
17051TIP3    H172644   5.108   4.037   1.808 -1.5570 -1.6528  0.0715
17051TIP3    H272645   5.020   4.117   1.714  0.6344  0.6018 -0.1596
17052TIP3   OH272646   0.261   0.333   1.445 -0.6456 -0.4174  0.2105
17052TIP3    H172647   0.182   0.381   1.422 -0.4277 -0.3360 -0.3727
17052TIP3    H272648   0.297   0.303   1.362  1.0152  1.2458  0.2331
17053TIP3   OH272649   0.588   1.030  10.526  0.2616 -0.2152 -0.2793
17053TIP3    H172650   0.650   0.958  10.529 -1.4290 -1.7779  2.8058
17053TIP3    H272651   0.518   1.004  10.586 -2.3258  2.3775 -1.8681
17054TIP3   OH272652   2.473   2.035   4.051 -0.3175  0.0829 -0.2980
17054TIP3    H172653   2.390   1.988   4.061 -1.0288  1.5519  0.9897
17054TIP3    H272654   2.539   1.974   4.085 -0.9427 -0.8071 -0.6421
17055TIP3   OH272655   4.779   5.531  12.042  0.8244 -0.2386  0.6697
17055TIP3    H172656   4.691   5.503  12.068  0.0160  1.5835  0.0941
17055TIP3    H272657   4.835   5.455  12.059 -1.3122 -2.5072 -1.6273
17056TIP3   OH272658   6.440   4.581  13.778  0.2500 -0.4651  0.4307
17056TIP3    H172659   6.482   4.535  13.851 -1.4791 -3.0058 -0.0472
17056TIP3    H272660   6.354   4.606  13.812  0.4331  0.7093  0.0539
17057TIP3   OH272661   1.684   1.576   1.879  0.6770  0.0113 -0.6499
17057TIP3    H172662   1.721   1.491   1.855 -1.7504 -1.9972  2.0308
17057TIP3    H272663   1.732   1.602   1.957 -1.5780 -1.3617  1.3304
17058TIP3   OH272664   0.386   5.174  16.540  0.0055 -0.1198  0.2301
17058TIP3    H172665   0.462   5.218  16.501 -0.2238 -0.4487 -0.6016
17058TIP3    H272666   0.348   5.240  16.599  1.1908 -0.1082  1.0201
17059TIP3   OH272667   0.612   4.031  12.474 -0.4280  0.3606  0.0999
17059TIP3    H172668   0.551   4.018  12.546  2.2310 -3.1673  2.0109
17059TIP3    H272669   0.631   3.943  12.441  2.4043  1.3917 -1.4093
17060TIP3   OH272670   2.644   2.232   3.931 -0.0610  0.0530  0.6349
17060TIP3    H172671   2.623   2.310   3.982  1.1068  0.0067  1.2205
17060TIP3    H272672   2.572   2.171   3.950 -1.0594  1.0242  0.0487
17061TIP3   OH272673   4.877   1.277  11.704  0.5607 -0.0968  0.5459
17061TIP3    H172674   4.840   1.244  11.786 -0.1731  1.7734  1.0071
17061TIP3    H272675   4.816   1.344  11.675  1.4610  0.1347 -0.8854
17062TIP3   OH272676   5.813   1.230   5.613  0.0316  0.4186  0.2199
17062TIP3    H172677   5.790   1.144   5.578 -0.6135  0.6525  0.0636
17062TIP3    H272678   5.759   1.291   5.563  0.2427  0.8895  0.5651
17063TIP3   OH272679   0.218   1.457  15.475 -0.3032  0.2092  0.1068
17063TIP3    H172680   0.187   1.474  15.387  0.4103 -1.0258 -0.4091
17063TIP3    H272681   0.313   1.469  15.470 -0.1949 -0.4059  0.5595
17064TIP3   OH272682   6.051   4.053   2.511  0.1271 -0.0239  0.0212
17064TIP3    H172683   6.002   3.973   2.528 -2.3860  1.5927  1.0398
17064TIP3    H272684   6.134   4.041   2.559 -0.4789 -1.7071  0.7242
17065TIP3   OH272685   2.517   4.860   3.715  0.0530 -0.2655  0.2189
17065TIP3    H172686   2.476   4.782   3.752  0.4799 -0.5701  0.0555
17065TIP3    H272687   2.605   4.831   3.689  0.2526  0.2930  0.2540
17066TIP3   OH272688   3.247   6.579  16.555  0.5304 -0.1441  0.1937
17066TIP3    H172689   3.317   6.577  16.490  0.6357  1.2610  0.2284
17066TIP3    H272690   3.292   6.578  16.640  0.4143 -1.4192  0.2527
17067TIP3   OH272691   5.418   3.808   3.054  0.0996 -0.2851 -0.0267
17067TIP3    H172692   5.347   3.773   3.109 -2.3546  1.6150 -1.7547
17067TIP3    H272693   5.428   3.899   3.082 -0.3483  0.3536 -1.8119
17068TIP3   OH272694   0.101   4.886  13.759  0.0007 -0.0351  0.1988
17068TIP3    H172695   0.103   4.924  13.847 -1.3684 -0.8658  0.6177
17068TIP3    H272696   0.131   4.796  13.772 -0.8577 -0.3591 -0.0702
17069TIP3   OH272697   1.486   0.925   0.374 -0.5827 -0.4736 -0.5624
17069TIP3    H172698   1.553   0.950   0.310  0.4607 -0.7744  0.3838
17069TIP3    H272699   1.416   0.885   0.322 -0.1754  0.1304 -1.6004
17070TIP3   OH272700   5.870   5.987  14.893  0.4839  0.9406 -0.4007
17070TIP3    H172701   5.937   5.941  14.843  0.5613 -0.0281  0.5486
17070TIP3    H272702   5.870   5.944  14.979 -2.6914 -0.4304 -0.9325
17071TIP3   OH272703   6.354   4.313   1.709 -0.1032 -0.3240  0.6598
17071TIP3    H172704   6.395   4.271   1.633  0.0432 -0.2947  0.7215
17071TIP3    H272705   6.337   4.403   1.681  2.1226  0.3972  1.4208
17072TIP3   OH272706   5.935   4.404  16.257  0.0867  0.7906 -0.1828
17072TIP3    H172707   5.939   4.406  16.161 -0.0765 -0.0117 -0.2140
17072TIP3    H272708   6.003   4.465  16.285  0.1574  1.0107 -0.8098
17073TIP3   OH272709   5.117   5.954   4.674 -0.0391  0.6464  0.0935
17073TIP3    H172710   5.066   6.005   4.611  0.5675  1.9563  0.6317
17073TIP3    H272711   5.058   5.944   4.750 -0.3201  0.1352 -0.1845
17074TIP3   OH272712   6.656   5.128   3.687 -0.5975  0.1624 -0.4305
17074TIP3    H172713   6.641   5.218   3.714  1.7793  0.6495 -0.5076
17074TIP3    H272714   6.747   5.110   3.712 -0.6022 -1.7835 -1.5886
17075TIP3   OH272715   3.496   0.066   4.337 -0.5864  0.0938  0.2323
17075TIP3    H172716   3.409   0.046   4.371 -1.5193  2.4952 -0.5721
17075TIP3    H272717   3.526  -0.017   4.299 -2.1869 -0.9761  1.1712
17076TIP3   OH272718   5.687   0.403   4.634  0.1383  0.2196  0.2641
17076TIP3    H172719   5.622   0.381   4.700 -0.1254  0.7902  0.2011
17076TIP3    H272720   5.657   0.358   4.555 -0.8946  1.5058 -0.0998
17077TIP3   OH272721   3.658   5.318   0.845  0.7774  0.6196  0.0381
17077TIP3    H172722   3.597   5.246   0.831 -0.7714  2.0364 -0.7956
17077TIP3    H272723   3.722   5.283   0.907 -0.2101 -1.2940  0.0484
17078TIP3   OH272724   3.944   1.263   1.785 -0.4024 -0.0097  0.5892
17078TIP3    H172725   3.918   1.296   1.871 -1.3549 -1.6753  0.9842
17078TIP3    H272726   3.861   1.241   1.741 -0.0065 -5.5730  1.9188
17079TIP3   OH272727   4.273   0.303  13.304  0.0042 -0.2727  0.2508
17079TIP3    H172728   4.178   0.302  13.289 -0.0439  1.2652  0.3250
17079TIP3    H272729   4.282   0.319  13.398  0.3204  1.4803 -0.0526
17080TIP3   OH272730   6.728   0.518   0.580  0.1822 -0.0600 -0.0384
17080TIP3    H172731   6.676   0.531   0.500 -0.1539 -2.3715 -0.2785
17080TIP3    H272732   6.672   0.551   0.650 -0.2110  0.4918 -0.5963
17081TIP3   OH272733   2.128   0.189   0.081 -0.1602  0.6615  0.1431
17081TIP3    H172734   2.130   0.200   0.176 -0.6647 -0.4927  0.2923
17081TIP3    H272735   2.220   0.176   0.056  0.1585  2.4000  0.2725
17082TIP3   OH272736   2.902   3.083  16.622  0.0842 -0.0618 -0.1037
17082TIP3    H172737   2.886   3.167  16.578  0.4974 -0.3827 -0.8987
17082TIP3    H272738   2.815   3.045  16.632 -0.0009 -0.0797 -0.8618
17083TIP3   OH272739   5.100   0.230   2.517 -0.2895  0.2066 -0.7564
17083TIP3    H172740   5.092   0.316   2.559  2.2146 -0.2271  0.7930
17083TIP3    H272741   5.085   0.167   2.588  1.7787 -0.5735 -0.9360
17084TIP3   OH272742   3.096   1.335   1.378 -0.4493 -0.1629  0.5623
17084TIP3    H172743   3.055   1.281   1.445 -0.5447  0.4571  1.0112
17084TIP3    H272744   3.169   1.378   1.423 -0.3740  0.0818  0.2110
17085TIP3   OH272745   0.752   1.263   2.725 -0.3860  0.2642 -0.6943
17085TIP3    H172746   0.734   1.287   2.816  0.4209  1.7199 -0.8717
17085TIP3    H272747   0.668   1.274   2.680 -0.4908  0.8714 -0.3651
17086TIP3   OH272748   3.234   1.674  12.494  0.2036 -0.0968 -0.5151
17086TIP3    H172749   3.273   1.739  12.552  0.0882  0.1818 -0.7460
17086TIP3    H272750   3.177   1.622  12.550  1.6559 -1.1658  0.0438
17087TIP3   OH272751   5.111   3.479   3.556 -0.1602 -0.3656  0.3726
17087TIP3    H172752   5.114   3.392   3.596  0.8875 -0.0565  1.0213
17087TIP3    H272753   5.199   3.514   3.569  0.2414 -0.2279 -2.2253
17088TIP3   OH272754   6.781   5.093  11.082 -0.8537 -0.1310  0.2398
17088TIP3    H172755   6.770   5.187  11.066 -1.0281  0.0026  1.0952
17088TIP3    H272756   6.835   5.088  11.161 -2.4212 -0.7094  1.3327
17089TIP3   OH272757   4.824   1.234   5.913 -0.3996 -0.0080  0.5805
17089TIP3    H172758   4.750   1.292   5.893  0.1971  0.2515 -1.0470
17089TIP3    H272759   4.811   1.157   5.857  0.3606 -0.1134  0.5307
17090TIP3   OH272760   5.763   4.073  15.987  0.2776 -0.0835  0.4548
17090TIP3    H172761   5.763   3.981  15.960  0.0706 -0.7568  2.5721
17090TIP3    H272762   5.853   4.090  16.015 -0.0623 -0.1262  1.5840
17091TIP3   OH272763   2.041   5.534  11.948  0.3018 -0.0808 -0.0276
17091TIP3    H172764   2.012   5.624  11.935  3.5691  1.6474  2.7709
17091TIP3    H272765   1.999   5.506  12.029  0.5956 -0.4246  0.0122
17092TIP3   OH272766   3.121   5.249  12.894 -0.1138 -0.1865 -0.2223
17092TIP3    H172767   3.162   5.317  12.948 -1.8479  0.8675 -0.1772
17092TIP3    H272768   3.082   5.189  12.957  0.4804 -0.6540 -0.2862
17093TIP3   OH272769   0.135   0.858   2.281 -0.3188  0.2204  0.3889
17093TIP3    H172770   0.172   0.893   2.200  0.7203 -0.1119  0.7054
17093TIP3    H272771   0.040   0.859   2.266 -0.1372 -0.1014 -0.9358
17094TIP3   OH272772   0.454   2.383   4.462 -0.4385  0.3533 -0.4353
17094TIP3    H172773   0.529   2.387   4.523 -0.2579 -1.2762 -0.5273
17094TIP3    H272774   0.419   2.472   4.463  0.2829  0.6628  1.1541
17095TIP3   OH272775   2.452   3.507  11.238  0.2467  0.4591 -0.0176
17095TIP3    H172776   2.447   3.597  11.269  1.9748  0.3936  0.5386
17095TIP3    H272777   2.538   3.500  11.197 -0.3146 -0.6364 -1.0792
17096TIP3   OH272778   0.279   2.803   2.619 -0.3845 -0.0312 -0.0422
17096TIP3    H172779   0.234   2.778   2.539  0.1972 -2.9492  0.3898
17096TIP3    H272780   0.209   2.816   2.683 -0.8072  1.4434 -0.7788
17097TIP3   OH272781   2.312   3.287   0.758  0.1783  0.0320  0.2585
17097TIP3    H172782   2.307   3.263   0.850 -0.1202 -0.1008  0.2074
17097TIP3    H272783   2.233   3.249   0.718 -1.6987  3.1926  0.6466
17098TIP3   OH272784   2.347   3.998  12.263  0.2044  0.1279 -0.4544
17098TIP3    H172785   2.347   4.071  12.202 -0.2458 -1.0252 -1.8938
17098TIP3    H272786   2.373   4.036  12.347 -0.5627  2.0208 -1.0398
17099TIP3   OH272787   5.441   1.562   4.946  0.2009  0.6030  0.5848
17099TIP3    H172788   5.522   1.604   4.917  0.5854 -0.1920  0.4716
17099TIP3    H272789   5.398   1.627   5.002  0.6154  1.2584  0.1507
17100TIP3   OH272790   4.262   5.875  15.993 -0.6099 -0.1118 -0.9448
17100TIP3    H172791   4.261   5.809  16.062  0.9063  2.3058  1.6455
17100TIP3    H272792   4.346   5.920  16.004 -1.7763  2.6136 -2.1164
17101TIP3   OH272793   1.060   6.814   4.802  0.2472 -0.1861  0.5516
17101TIP3    H172794   1.025   6.860   4.725  0.0616 -0.8384  0.2431
17101TIP3    H272795   0.988   6.818   4.866  0.0804 -0.4064  0.3785
17102TIP3   OH272796   2.996   1.205  14.376  0.5845  0.2564  0.6301
17102TIP3    H172797   2.932   1.272  14.400 -1.1581 -1.3159  0.5318
17102TIP3    H272798   3.054   1.249  14.313 -0.5023  1.6612  0.5696
17103TIP3   OH272799   6.339   1.172  13.127 -0.0623 -0.2082  0.2809
17103TIP3    H172800   6.300   1.095  13.170 -1.0178  0.1921  0.1510
17103TIP3    H272801   6.274   1.241  13.138 -0.1315  0.0312 -1.4322
17104TIP3   OH272802   2.054   3.378   0.609 -0.1381  0.6598 -0.1610
17104TIP3    H172803   1.989   3.310   0.594 -0.0915  0.6138 -0.1535
17104TIP3    H272804   2.002   3.459   0.618 -0.3407  0.4012  1.4130
17105TIP3   OH272805   1.121   3.456   1.647 -0.6170 -0.6283  0.6553
17105TIP3    H172806   1.040   3.433   1.603  0.1151  0.0509 -1.1457
17105TIP3    H272807   1.102   3.445   1.741 -2.3165 -1.8470  0.2131
17106TIP3   OH272808   2.588   5.377   3.740  0.4076  0.7375 -0.3268
17106TIP3    H172809   2.610   5.307   3.802 -0.5722 -0.1817 -0.9746
17106TIP3    H272810   2.571   5.453   3.795 -1.1644 -0.2424  0.6401
17107TIP3   OH272811   1.673   5.215  13.664  0.2958  0.3699 -0.4557
17107TIP3    H172812   1.596   5.271  13.674 -0.5142 -0.9744  1.6360
17107TIP3    H272813   1.699   5.226  13.573 -2.9800  0.1128 -1.5544
17108TIP3   OH272814   5.411   5.856  13.003 -0.0665  0.7273 -0.0033
17108TIP3    H172815   5.473   5.782  13.004  0.6177  1.2553  2.5436
17108TIP3    H272816   5.355   5.839  12.927  0.5301 -2.0265  0.0691
17109TIP3   OH272817   0.970   1.620   2.850  0.0987 -0.5654  0.0348
17109TIP3    H172818   1.032   1.603   2.922  2.1494  0.7900 -1.3010
17109TIP3    H272819   0.975   1.541   2.796  2.0958  0.1626 -0.9686
17110TIP3   OH272820   1.663   4.172   2.468  0.3392  0.3740  0.3662
17110TIP3    H172821   1.660   4.254   2.518 -0.5955  1.3191 -1.1709
17110TIP3    H272822   1.713   4.194   2.390  0.6237 -0.7122  0.2319
17111TIP3   OH272823   0.371   5.893  16.666 -0.2614  0.0420  0.3649
17111TIP3    H172824   0.421   5.893  16.584  0.3651  1.4335  0.7297
17111TIP3    H272825   0.426   5.846  16.728 -0.2710 -0.0971  0.2695
17112TIP3   OH272826   5.625   4.724  15.132  0.1300 -0.4068 -0.3902
17112TIP3    H172827   5.566   4.770  15.192  0.9915 -0.8949  0.8549
17112TIP3    H272828   5.567   4.692  15.063 -1.1088 -1.0111  0.8762
17113TIP3   OH272829   2.726   6.503   5.955 -0.5346  0.6033 -0.1089
17113TIP3    H172830   2.818   6.514   5.933 -0.9469 -0.5624 -2.7841
17113TIP3    H272831   2.719   6.412   5.984 -1.0674  0.0901 -1.7036
17114TIP3   OH272832   5.549   5.142  12.014 -0.0039  0.3070  0.5695
17114TIP3    H172833   5.533   5.080  12.085  1.5594 -0.7443  0.0803
17114TIP3    H272834   5.632   5.113  11.976  0.5750  2.4822  0.0378
17115TIP3   OH272835   4.458   1.371   2.785  0.9283 -0.1959 -0.3748
17115TIP3    H172836   4.497   1.386   2.698  3.5587  0.9836  0.9048
17115TIP3    H272837   4.480   1.450   2.835 -0.5718 -0.8250  1.3875
17116TIP3   OH272838   0.538   1.073   3.596 -0.4321 -0.1872 -0.5126
17116TIP3    H172839   0.531   1.008   3.526  0.1648  0.3380 -1.0689
17116TIP3    H272840   0.447   1.092   3.620 -0.6284 -0.7530 -0.7905
17117TIP3   OH272841   5.233   2.059  13.413  0.3303 -0.0803  0.3296
17117TIP3    H172842   5.299   1.993  13.434 -0.0965 -0.6530 -0.0775
17117TIP3    H272843   5.260   2.094  13.328  0.1366 -0.2865  0.1813
17118TIP3   OH272844   6.398   0.617  16.799 -0.1498 -0.0433  0.1047
17118TIP3    H172845   6.349   0.697  16.782  0.4185  0.6223  1.4580
17118TIP3    H272846   6.330   0.551  16.816 -0.6307  0.8156  1.7484
17119TIP3   OH272847   3.357   1.883  12.633  0.0527  0.3550 -0.1345
17119TIP3    H172848   3.269   1.914  12.657 -0.2623  0.0290 -0.8105
17119TIP3    H272849   3.409   1.892  12.713 -0.7525 -0.0127  0.4438
17120TIP3   OH272850   4.331   6.333   0.897 -0.5004 -0.5406 -0.0679
17120TIP3    H172851   4.396   6.316   0.966 -0.4441  0.7079  0.2107
17120TIP3    H272852   4.247   6.326   0.941 -0.5624 -1.7289 -0.3348
17121TIP3   OH272853   3.652   3.658   6.088  0.2484  0.0177 -0.3861
17121TIP3    H172854   3.604   3.693   6.163  1.5285 -1.1683  1.0522
17121TIP3    H272855   3.741   3.646   6.121  0.4290 -2.2646 -1.5357
17122TIP3   OH272856   3.011   2.172  13.322 -0.0787  0.0121 -0.1951
17122TIP3    H172857   3.064   2.234  13.372 -0.2371  1.2311 -1.4717
17122TIP3    H272858   3.072   2.135  13.258  0.3451 -2.1986  1.3798
17123TIP3   OH272859   3.222   3.375  14.422 -0.3358 -0.4521 -0.1894
17123TIP3    H172860   3.195   3.361  14.332 -0.1268 -2.5339  0.0174
17123TIP3    H272861   3.185   3.460  14.446  0.8947  0.9022 -2.6863
17124TIP3   OH272862   2.171   1.168   3.322 -0.1853  0.3538 -0.0615
17124TIP3    H172863   2.176   1.264   3.321  0.4590  0.3157 -0.9179
17124TIP3    H272864   2.139   1.148   3.410 -5.4209  1.5678 -1.3456
17125TIP3   OH272865   4.035   2.450  14.327 -0.4817  0.0470  0.2025
17125TIP3    H172866   3.985   2.532  14.328  0.6411  0.8429 -1.9254
17125TIP3    H272867   4.118   2.473  14.368 -0.1831 -0.0257 -0.3548
17126TIP3   OH272868   2.787   1.028   0.151  0.6239 -0.0025 -0.3346
17126TIP3    H172869   2.794   0.938   0.119  0.7042 -0.3783  0.7080
17126TIP3    H272870   2.775   1.019   0.246  1.5121  1.1003 -0.0918
17127TIP3   OH272871   2.709   3.173  10.952 -0.3617  0.1628 -0.0301
17127TIP3    H172872   2.673   3.183  10.864  1.0224 -0.3164 -0.6839
17127TIP3    H272873   2.689   3.082  10.976  1.4514 -0.5438 -0.9458
17128TIP3   OH272874   5.013   3.949  15.010  0.0471 -0.1686  0.0873
17128TIP3    H172875   5.030   3.894  14.933 -1.0368 -1.3722  0.6693
17128TIP3    H272876   5.031   3.891  15.084  0.7360  0.8675  0.7632
17129TIP3   OH272877   6.264   5.043  14.439 -0.5996  0.0136  0.1612
17129TIP3    H172878   6.299   5.015  14.354  1.4540  3.1756 -0.2274
17129TIP3    H272879   6.304   4.984  14.502 -0.4876 -1.1004 -0.9075
17130TIP3   OH272880   2.781   6.650  13.124 -0.3884 -0.2508  0.2015
17130TIP3    H172881   2.854   6.649  13.186  0.2045 -0.8002 -0.4780
17130TIP3    H272882   2.747   6.561  13.125  0.2962 -0.5568 -0.9973
17131TIP3   OH272883   6.768   0.511   6.387  0.3847  0.2810  0.4792
17131TIP3    H172884   6.676   0.538   6.386  0.2231 -0.1355  2.0703
17131TIP3    H272885   6.805   0.554   6.310 -1.7778 -1.9635 -2.0539
17132TIP3   OH272886   3.962   1.521  15.581 -0.1581 -0.0708  0.0815
17132TIP3    H172887   3.920   1.441  15.549  0.4714  0.0573 -1.1114
17132TIP3    H272888   4.003   1.495  15.664 -0.3183 -0.8692 -0.0841
17133TIP3   OH272889   1.874   0.463  15.938  0.1866 -0.0433 -0.1029
17133TIP3    H172890   1.873   0.533  16.003 -2.0190 -0.3547  0.2754
17133TIP3    H272891   1.808   0.489  15.873 -0.4417 -1.5784 -0.1303
17134TIP3   OH272892   6.042   1.451  13.359 -0.3261  0.3353  0.2098
17134TIP3    H172893   6.023   1.377  13.416  0.0443  2.1445  2.8590
17134TIP3    H272894   5.958   1.473  13.318 -1.3661  0.8018  2.4363
17135TIP3   OH272895   3.456   0.948  17.146 -0.5063  0.0623  0.0853
17135TIP3    H172896   3.489   0.859  17.144  2.4581  1.0873 -0.5878
17135TIP3    H272897   3.361   0.938  17.159 -0.1461 -3.1011  1.0699
17136TIP3   OH272898   0.446   2.913  14.048  0.0909  0.3088  1.0113
17136TIP3    H172899   0.463   2.979  14.115 -2.5425 -0.5831  2.7023
17136TIP3    H272900   0.375   2.950  13.996  0.3838 -0.0988  0.3174
17137TIP3   OH272901   0.347   1.661  16.893  0.3006  0.3504 -0.2230
17137TIP3    H172902   0.388   1.580  16.862 -0.0324  0.5697 -1.2658
17137TIP3    H272903   0.406   1.731  16.864  0.4092  0.5132  0.3715
17138TIP3   OH272904   4.630   5.115   1.625  0.0524 -0.0269 -0.2666
17138TIP3    H172905   4.591   5.170   1.693 -1.2141 -0.0621 -0.9453
17138TIP3    H272906   4.595   5.149   1.543 -0.2728 -1.4493 -0.7490
17139TIP3   OH272907   0.225   4.587   1.918  0.4203 -0.3847  0.5015
17139TIP3    H172908   0.316   4.614   1.903  1.1365 -1.5210  2.4400
17139TIP3    H272909   0.191   4.651   1.980 -0.2589  0.2420 -0.4837
17140TIP3   OH272910   6.673   6.167  11.723 -0.3808  0.0262 -0.1802
17140TIP3    H172911   6.700   6.259  11.723 -0.7604  0.1420 -0.2183
17140TIP3    H272912   6.578   6.170  11.738 -0.8516 -0.2053 -2.6730
17141TIP3   OH272913   0.074   3.505  16.514  0.4813 -0.1193 -0.1039
17141TIP3    H172914   0.018   3.428  16.514  0.0752  0.1663  0.8011
17141TIP3    H272915   0.083   3.528  16.421 -2.2536  0.8035 -0.2271
17142TIP3   OH272916   1.604   2.603  15.320 -0.0289 -0.0033 -0.4486
17142TIP3    H172917   1.628   2.695  15.303 -0.5635  0.0064 -1.2541
17142TIP3    H272918   1.686   2.560  15.341  0.7455  0.0625 -2.9476
17143TIP3   OH272919   3.404   3.946  13.552  0.4501 -0.7543 -0.3915
17143TIP3    H172920   3.330   3.969  13.496 -0.9801 -3.0391  0.4250
17143TIP3    H272921   3.474   4.005  13.524 -0.9456 -0.1092 -2.8489
17144TIP3   OH272922   6.100   0.262   2.747  0.1412 -0.3306  0.2814
17144TIP3    H172923   6.006   0.274   2.731  0.0919 -1.0366  0.0131
17144TIP3    H272924   6.123   0.185   2.696  1.3783  1.1612 -1.5402
17145TIP3   OH272925   4.712   6.260   4.702 -0.5893  0.0817 -0.3471
17145TIP3    H172926   4.791   6.252   4.756 -1.0586 -3.1192  0.0028
17145TIP3    H272927   4.741   6.312   4.627  1.8435 -0.9079 -0.1903
17146TIP3   OH272928   6.390   6.226   6.733 -0.4646 -0.1967 -0.6014
17146TIP3    H172929   6.366   6.137   6.759 -0.3435  0.2778  1.3278
17146TIP3    H272930   6.465   6.214   6.675  0.6096 -1.3371  0.9171
17147TIP3   OH272931   6.752   2.932  15.783  0.3384 -0.0463 -0.4782
17147TIP3    H172932   6.743   2.877  15.861  0.7668  1.1126  0.4175
17147TIP3    H272933   6.667   2.923  15.738  0.4736 -1.5835 -0.4848
17148TIP3   OH272934   5.508   4.658  16.783  0.3625 -0.1815  0.1245
17148TIP3    H172935   5.495   4.577  16.734 -0.7514  0.2435 -0.3149
17148TIP3    H272936   5.500   4.727  16.718 -0.3696  0.3537  0.7668
17149TIP3   OH272937   0.282   1.525  14.539  0.2451  0.7260 -0.1520
17149TIP3    H172938   0.273   1.617  14.514 -0.4902  0.6409 -0.2278
17149TIP3    H272939   0.325   1.528  14.625  1.5204  1.0729 -0.7686
17150TIP3   OH272940   3.821   2.122   4.148  0.1194 -0.2455  0.1364
17150TIP3    H172941   3.755   2.143   4.214 -0.2271  1.6806 -0.7382
17150TIP3    H272942   3.904   2.141   4.190 -0.0618  0.2768  0.2613
17151TIP3   OH272943   2.771   0.188   3.826 -0.0188 -0.0678 -0.4987
17151TIP3    H172944   2.864   0.180   3.803  0.0863  0.6573 -0.3329
17151TIP3    H272945   2.726   0.199   3.743  0.0957  0.0911 -0.5391
17152TIP3   OH272946   2.641   1.145  15.363 -0.0254  0.6025  0.0667
17152TIP3    H172947   2.637   1.185  15.450  1.1528  0.0690  0.3958
17152TIP3    H272948   2.581   1.197  15.310 -0.4148  1.2309  1.0810
17153TIP3   OH272949   2.824   5.305  16.426  0.1308  0.4287  0.3759
17153TIP3    H172950   2.894   5.329  16.487  0.4705 -0.7385  0.4557
17153TIP3    H272951   2.765   5.251  16.477  0.1326 -0.1119 -0.1843
17154TIP3   OH272952   6.334   5.112  15.604 -0.2711  0.2131 -0.0163
17154TIP3    H172953   6.262   5.063  15.645  1.4111 -1.8361  0.6569
17154TIP3    H272954   6.308   5.119  15.512 -1.4574 -0.2072  0.2676
17155TIP3   OH272955   1.893   3.282   5.358  0.6231  0.4821  0.2849
17155TIP3    H172956   1.858   3.310   5.443  0.4514 -0.7706  0.6490
17155TIP3    H272957   1.904   3.188   5.367 -0.2454  0.1845 -1.4082
17156TIP3   OH272958   0.757   1.851   3.384  0.3023 -0.0642  0.4553
17156TIP3    H172959   0.811   1.900   3.323 -0.6610 -0.8118 -1.0479
17156TIP3    H272960   0.814   1.779   3.413  0.7751  0.3091  0.4706
17157TIP3   OH272961   0.646   0.099  11.925  0.2585 -0.6997 -0.2950
17157TIP3    H172962   0.645   0.005  11.943  0.9626 -0.2776  2.3958
17157TIP3    H272963   0.656   0.139  12.011 -4.4044  2.0464 -0.7046
17158TIP3   OH272964   3.438   0.940   2.904 -0.2518  0.7233 -0.7514
17158TIP3    H172965   3.426   0.994   2.825 -0.5905  0.6273 -0.7678
17158TIP3    H272966   3.354   0.895   2.914  0.0781  0.0939 -0.8147
17159TIP3   OH272967   1.507   6.776  14.813  0.2207 -0.0818 -0.4568
17159TIP3    H172968   1.479   6.690  14.779  1.7948 -1.6529  1.9057
17159TIP3    H272969   1.600   6.780  14.793 -0.0184  1.6093 -1.4194
17160TIP3   OH272970   1.891   6.466   2.281  0.6880  0.4358 -0.2971
17160TIP3    H172971   1.922   6.501   2.364 -0.6970 -1.1307  0.9798
17160TIP3    H272972   1.954   6.496   2.216  3.0562 -0.0653  1.6417
17161TIP3   OH272973   3.952   4.250   5.737 -0.0710  0.5143 -0.1327
17161TIP3    H172974   3.974   4.338   5.768  2.4374  0.0669 -0.4395
17161TIP3    H272975   3.933   4.200   5.816  1.3523  0.6449  0.3173
17162TIP3   OH272976   0.228   3.947  16.663 -0.1388 -0.3409  0.8687
17162TIP3    H172977   0.303   3.895  16.692  1.4365 -0.2120 -2.4449
17162TIP3    H272978   0.264   4.035  16.653 -0.6187 -0.3156 -0.9383
17163TIP3   OH272979   1.178   3.332  16.603  0.2119  0.6137  0.5005
17163TIP3    H172980   1.169   3.241  16.630 -0.8304  0.1706 -1.1984
17163TIP3    H272981   1.259   3.361  16.644 -0.2470 -0.5718  2.3859
17164TIP3   OH272982   3.434   5.099   4.920 -0.3070 -0.7754 -0.2005
17164TIP3    H172983   3.348   5.127   4.888  0.0317 -0.2038 -0.6295
17164TIP3    H272984   3.495   5.131   4.854  0.1731 -1.8751 -0.3222
17165TIP3   OH272985   0.823   0.117   4.073  0.2746  0.1423 -0.1203
17165TIP3    H172986   0.887   0.128   4.004 -0.9181 -0.2969 -1.3447
17165TIP3    H272987   0.743   0.089   4.028 -0.3185 -0.9770  1.5005
17166TIP3   OH272988   0.868   5.963  15.067 -0.3061  0.2294  0.4158
17166TIP3    H172989   0.796   5.966  15.130 -1.2537  0.8905 -0.6443
17166TIP3    H272990   0.863   6.047  15.021  0.7258  0.0029 -0.1462
17167TIP3   OH272991   3.476   4.069  13.779 -0.3586 -0.0478 -0.0271
17167TIP3    H172992   3.534   4.145  13.767 -1.4893  0.7171 -0.7802
17167TIP3    H272993   3.506   4.005  13.714  0.0077  0.1070 -0.0151
17168TIP3   OH272994   2.095   2.676   1.580  0.0045 -0.1784  0.1198
17168TIP3    H172995   2.133   2.633   1.504 -1.1649  1.0297 -1.2141
17168TIP3    H272996   2.144   2.642   1.655  1.9491 -0.5597 -1.2610
17169TIP3   OH272997   6.743   3.624   0.219  0.2138 -0.6805 -0.0594
17169TIP3    H172998   6.808   3.652   0.283 -0.3543 -1.3605  0.8295
17169TIP3    H272999   6.725   3.703   0.167 -0.6788  0.4146  1.7957
17170TIP3   OH273000   3.160   5.084   0.746 -0.8753 -0.0495  0.0478
17170TIP3    H173001   3.068   5.109   0.732 -1.1266 -0.5388  0.8184
17170TIP3    H273002   3.175   5.013   0.683 -1.3888 -0.8068  0.7655
17171TIP3   OH273003   6.403   1.810  12.793  0.1201  0.1959 -0.2050
17171TIP3    H173004   6.410   1.904  12.774 -1.1733 -0.0578 -2.2255
17171TIP3    H273005   6.324   1.782  12.746  1.6128 -2.3171 -1.4041
17172TIP3   OH273006   5.140   0.888   1.796  0.5736 -0.0486  0.2389
17172TIP3    H173007   5.046   0.881   1.781  0.4392 -0.9923  1.4429
17172TIP3    H273008   5.180   0.834   1.728  0.0758 -2.3329  1.6685
17173TIP3   OH273009   1.890   4.697   2.533  0.1406 -0.1152 -1.1908
17173TIP3    H173010   1.882   4.657   2.446 -0.6932  0.7201 -1.5110
17173TIP3    H273011   1.807   4.742   2.547  0.3211 -0.1132 -0.0111
17174TIP3   OH273012   3.270   5.751  11.606 -0.1962  0.2596  0.1059
17174TIP3    H173013   3.325   5.692  11.555 -0.3803 -0.9045  1.2309
17174TIP3    H273014   3.197   5.772  11.547 -2.3373 -3.9008  0.9218
17175TIP3   OH273015   0.498   5.172  12.685  0.0572  0.4491 -0.3512
17175TIP3    H173016   0.583   5.186  12.644  0.0731  0.9405 -0.1497
17175TIP3    H273017   0.435   5.199  12.618  0.0135 -1.0272 -0.9537
17176TIP3   OH273018   2.969   6.498   0.119  0.5483 -0.0625 -0.1060
17176TIP3    H173019   2.999   6.575   0.168 -1.2545  0.8909 -0.4225
17176TIP3    H273020   3.007   6.424   0.167 -0.6878  0.8406  2.4800
17177TIP3   OH273021   1.145   1.860   1.102 -0.3029  0.9740  1.0510
17177TIP3    H173022   1.053   1.866   1.076 -0.3154 -0.2464  0.7401
17177TIP3    H273023   1.144   1.801   1.178  0.3021  0.3238  0.5665
17178TIP3   OH273024   2.400   1.549   4.260  0.1576 -0.4161  0.0069
17178TIP3    H173025   2.320   1.527   4.306 -1.3776  2.8492 -0.7783
17178TIP3    H273026   2.456   1.591   4.326  0.1208 -0.3628  0.0042
17179TIP3   OH273027   5.081   1.233   4.194  0.2659 -0.1880  0.2445
17179TIP3    H173028   5.165   1.248   4.150  1.2339 -0.0589  2.0210
17179TIP3    H273029   5.077   1.139   4.206  0.3598 -0.1562  0.5302
17180TIP3   OH273030   1.382   0.633  16.497 -0.0561 -0.4931  0.0678
17180TIP3    H173031   1.428   0.695  16.554 -2.3851 -0.1607  1.7263
17180TIP3    H273032   1.443   0.559  16.488  1.4737  0.6514  0.7028
17181TIP3   OH273033   4.776   6.001   0.955 -0.0308  0.2543  0.1743
17181TIP3    H173034   4.816   5.914   0.961 -2.7654 -1.1591 -0.3170
17181TIP3    H273035   4.846   6.062   0.977  1.8995 -2.0846  0.8770
17182TIP3   OH273036   4.150   0.056  15.075  0.0600 -0.4041 -0.2683
17182TIP3    H173037   4.064   0.095  15.058 -1.0936 -2.7471 -0.2513
17182TIP3    H273038   4.188   0.041  14.988  0.4201  0.5564 -0.2784
17183TIP3   OH273039   0.593   5.205   2.264 -0.8149 -0.1560  0.3250
17183TIP3    H173040   0.631   5.120   2.285 -1.2941 -0.7475 -1.0875
17183TIP3    H273041   0.514   5.210   2.317 -0.2551 -0.1454  1.1669
17184TIP3   OH273042   3.687   3.019   4.879  0.4481 -0.2539  0.0057
17184TIP3    H173043   3.738   3.065   4.944  0.4419  1.1309 -0.9322
17184TIP3    H273044   3.702   3.066   4.797 -1.9133 -0.0738 -0.4188
17185TIP3   OH273045   4.963   3.689  16.220 -0.0848  0.0792 -0.0687
17185TIP3    H173046   5.055   3.715  16.216 -0.1160  0.0902 -0.7818
17185TIP3    H273047   4.955   3.619  16.156 -0.8289  0.8773 -0.8694
17186TIP3   OH273048   3.118   0.717   0.680 -0.1057 -0.0772  0.4998
17186TIP3    H173049   3.206   0.689   0.652  0.0992  0.1390  0.9299
17186TIP3    H273050   3.103   0.799   0.633 -0.6469 -0.8078 -0.6496
17187TIP3   OH273051   2.400   0.962  13.822 -0.3679 -0.4675 -0.0772
17187TIP3    H173052   2.467   0.944  13.756  0.4934 -0.6156  0.8212
17187TIP3    H273053   2.430   0.917  13.900 -2.6686 -2.4837 -0.2396
17188TIP3   OH273054   1.117   3.569   4.491  0.1229 -0.5130 -0.2099
17188TIP3    H173055   1.188   3.582   4.428  1.6383 -1.0864  1.2992
17188TIP3    H273056   1.080   3.484   4.469  2.9365 -2.4137  1.6433
17189TIP3   OH273057   3.310   1.919   3.681 -0.6536  0.1698 -0.0977
17189TIP3    H173058   3.247   1.966   3.736 -1.3457 -0.6197 -0.1981
17189TIP3    H273059   3.359   1.988   3.636 -0.2191  0.8332  1.3212
17190TIP3   OH273060   0.452   0.492   0.336 -0.4864  0.6477  0.3952
17190TIP3    H173061   0.401   0.443   0.401 -0.0611 -0.2616  0.0564
17190TIP3    H273062   0.543   0.471   0.356 -0.3096  1.0704  0.0502
17191TIP3   OH273063   5.798   5.070  15.568 -0.1906 -0.1206 -0.5389
17191TIP3    H173064   5.788   5.159  15.600  0.0765  0.5239 -2.1204
17191TIP3    H273065   5.734   5.018  15.617 -0.6362  1.0175  0.1011
17192TIP3   OH273066   4.418   5.944   4.690  0.1182 -0.3971 -0.2711
17192TIP3    H173067   4.416   5.921   4.597  0.0463 -0.7475 -0.1841
17192TIP3    H273068   4.442   5.863   4.734 -0.5021 -0.3960  0.0745
17193TIP3   OH273069   1.231   1.476  11.322 -0.1233 -0.1529  0.1187
17193TIP3    H173070   1.220   1.382  11.312  2.7010 -0.5505  0.0062
17193TIP3    H273071   1.270   1.505  11.239  0.2874  0.8774  0.6478
17194TIP3   OH273072   2.466   0.190  10.704  0.6537  0.2923  0.9696
17194TIP3    H173073   2.535   0.129  10.727  1.0882 -0.3811 -1.7358
17194TIP3    H273074   2.507   0.276  10.706  1.2546  0.0170  0.5125
17195TIP3   OH273075   2.935   5.235  15.861  0.0706  0.5072 -0.3216
17195TIP3    H173076   2.843   5.211  15.865  0.3801 -0.8366 -0.8847
17195TIP3    H273077   2.979   5.173  15.918  0.6493  1.1012 -0.1085
17196TIP3   OH273078   5.409   2.562  16.869  0.7404 -0.3710  0.4069
17196TIP3    H173079   5.353   2.580  16.945  0.0197 -0.4253 -0.1060
17196TIP3    H273080   5.402   2.468  16.856  1.2853 -0.4417  0.5893
17197TIP3   OH273081   3.709   4.941   0.667 -0.5153 -0.2371  0.1302
17197TIP3    H173082   3.658   4.977   0.739 -1.7445 -0.7448 -0.4547
17197TIP3    H273083   3.647   4.887   0.618  0.4711 -0.4964 -0.8845
17198TIP3   OH273084   5.140   5.613   4.682  0.1215 -0.0694 -0.0269
17198TIP3    H173085   5.056   5.568   4.676  0.7764 -1.2203 -0.9237
17198TIP3    H273086   5.168   5.623   4.592  0.6812  0.8513  0.2397
17199TIP3   OH273087   6.647   0.393   3.735  0.0192  0.4743 -0.7201
17199TIP3    H173088   6.598   0.319   3.699 -1.3725  1.5782 -1.1672
17199TIP3    H273089   6.660   0.369   3.827  1.9780 -1.5134 -1.4121
17200TIP3   OH273090   5.314   2.203  14.342  0.8676 -0.0580 -0.2442
17200TIP3    H173091   5.268   2.164  14.267  0.0040 -1.6312  1.0442
17200TIP3    H273092   5.266   2.283  14.361 -2.0182 -2.0125  1.5343
17201TIP3   OH273093   6.386   5.375  14.612 -0.0835  0.2612 -0.4605
17201TIP3    H173094   6.429   5.456  14.586 -1.2508  0.5893 -1.5060
17201TIP3    H273095   6.410   5.363  14.704  1.4741  0.8791 -0.7665
17202TIP3   OH273096   1.282   5.187  14.877 -0.1666  0.1693 -0.1967
17202TIP3    H173097   1.261   5.278  14.899  0.7197  0.4167 -0.3525
17202TIP3    H273098   1.376   5.180  14.889  0.0321 -0.2804 -1.8164
17203TIP3   OH273099   5.671   6.808  13.748 -0.5119  0.9751  0.1075
17203TIP3    H173100   5.722   6.737  13.710 -2.2178 -0.7270  0.8004
17203TIP3    H273101   5.730   6.848  13.812  0.9211  1.0667 -1.2252
17204TIP3   OH273102   4.203   6.773  12.481  0.5102 -0.1458  0.2568
17204TIP3    H173103   4.138   6.819  12.534 -0.0015 -0.0331 -0.4538
17204TIP3    H273104   4.172   6.682  12.478  1.6249 -0.6306  1.8276
17205TIP3   OH273105   1.179   2.096  15.783 -0.2589 -0.1478  0.4767
17205TIP3    H173106   1.109   2.152  15.748  0.7278  0.3646 -0.7579
17205TIP3    H273107   1.174   2.016  15.730  0.1625 -0.0587  0.3016
17206TIP3   OH273108   3.800   6.639   2.005 -0.1875  0.0038  0.0928
17206TIP3    H173109   3.893   6.634   2.025 -0.1283  0.4056 -0.0693
17206TIP3    H273110   3.758   6.583   2.071  0.0213  1.1007  1.2145
17207TIP3   OH273111   2.260   5.375   5.215 -0.4242  0.3352  0.0915
17207TIP3    H173112   2.224   5.290   5.241 -2.0161  1.0966  0.5598
17207TIP3    H273113   2.217   5.438   5.275 -0.7132  1.6449 -1.4257
17208TIP3   OH273114   3.082   0.114  13.351  0.2872  0.2145 -0.4227
17208TIP3    H173115   3.156   0.095  13.294  1.0619  2.1353 -0.1320
17208TIP3    H273116   3.009   0.130  13.292 -0.0706 -2.0701 -0.7049
17209TIP3   OH273117   6.782   3.771   1.565  0.5298  0.4577 -0.4016
17209TIP3    H173118   6.733   3.853   1.569  0.3066  0.3833 -1.4253
17209TIP3    H273119   6.744   3.724   1.491 -0.6215 -1.3872  1.2409
17210TIP3   OH273120   1.079   6.744   3.282  0.2564  0.2705 -0.0764
17210TIP3    H173121   1.012   6.810   3.299 -0.0233  0.1186 -0.5653
17210TIP3    H273122   1.152   6.768   3.338 -0.1133  0.5866  0.2739
17211TIP3   OH273123   1.480   2.052   2.440 -0.2116  0.2014 -0.3501
17211TIP3    H173124   1.407   2.097   2.481  0.0163  0.7842 -0.5679
17211TIP3    H273125   1.507   2.111   2.369  1.1030  0.4889  0.3484
17212TIP3   OH273126   3.025   0.176   3.715 -0.3384  0.0822 -0.4503
17212TIP3    H173127   3.046   0.085   3.695 -1.2570 -0.6061  1.4371
17212TIP3    H273128   3.102   0.225   3.687  1.3673 -1.6140  0.9659
17213TIP3   OH273129   5.532   3.991  15.698  0.1006  0.0122 -0.0975
17213TIP3    H173130   5.492   3.906  15.681  0.5947 -0.5898  1.5319
17213TIP3    H273131   5.481   4.026  15.771  1.5370 -0.0863  0.9856
17214TIP3   OH273132   3.239   0.400  14.086  0.3154  0.1931 -0.2824
17214TIP3    H173133   3.267   0.360  14.168  0.0631  0.8928  0.1528
17214TIP3    H273134   3.145   0.383  14.082  0.1850  0.8446 -0.0347
17215TIP3   OH273135   5.193   5.133  13.210 -0.0694  0.3591  0.1785
17215TIP3    H173136   5.111   5.154  13.165  0.4800 -0.0859 -1.0668
17215TIP3    H273137   5.204   5.203  13.274 -1.7817  0.0429  0.8744
17216TIP3   OH273138   5.499   2.755  11.290 -0.4894 -0.0857 -0.1472
17216TIP3    H173139   5.583   2.799  11.279 -2.0957  3.0303 -0.9570
17216TIP3    H273140   5.465   2.787  11.374 -0.2683 -2.6214  1.0387
17217TIP3   OH273141   3.806   3.876   5.429  0.1638  0.1969  0.3575
17217TIP3    H173142   3.826   3.950   5.372 -0.3652  0.3937  0.4209
17217TIP3    H273143   3.883   3.820   5.424 -0.0194  0.0285 -0.8339
17218TIP3   OH273144   5.817   3.046  16.079 -0.2190 -0.1680 -0.0956
17218TIP3    H173145   5.764   3.116  16.119  0.6885  1.2188 -1.2341
17218TIP3    H273146   5.753   2.978  16.057 -1.0122 -0.1090  1.8215
17219TIP3   OH273147   4.979   2.021  14.236  0.1058  0.0283  0.0999
17219TIP3    H173148   4.970   2.018  14.141 -0.9653  0.3425  0.1700
17219TIP3    H273149   5.061   1.977  14.255 -0.9751 -2.5082 -0.7825
17220TIP3   OH273150   4.148   5.950  15.755 -0.1325 -0.2772  0.2422
17220TIP3    H173151   4.175   5.921  15.843  0.7477  0.8897  0.3838
17220TIP3    H273152   4.057   5.923  15.748 -0.5134  0.4405  1.8986
17221TIP3   OH273153   0.429   0.249   5.052  0.2429  0.3422  0.1936
17221TIP3    H173154   0.429   0.202   4.968  1.2857  1.6059 -0.5479
17221TIP3    H273155   0.356   0.211   5.100 -1.2483  0.4895 -1.8124
17222TIP3   OH273156   6.510   2.218   1.541  0.3071  0.5226  0.9288
17222TIP3    H173157   6.455   2.184   1.471 -0.0188  2.3259  0.2687
17222TIP3    H273158   6.590   2.164   1.538 -0.7777 -1.1705  0.9671
17223TIP3   OH273159   1.579   5.888  12.153  0.9241 -0.3985 -0.0279
17223TIP3    H173160   1.489   5.857  12.161 -0.0105  2.3265  1.0107
17223TIP3    H273161   1.618   5.830  12.087 -0.9472 -2.9073  0.9158
17224TIP3   OH273162   3.477   5.309  16.471  0.0976 -0.3302  0.1390
17224TIP3    H173163   3.389   5.314  16.433  0.1564  0.6081  0.1109
17224TIP3    H273164   3.471   5.362  16.551  1.0130  0.9831 -0.6247
17225TIP3   OH273165   1.935   6.092  11.033  0.3548  0.5756  0.2400
17225TIP3    H173166   2.006   6.042  10.993 -0.0536 -1.0111  1.4075
17225TIP3    H273167   1.955   6.093  11.127 -0.5668  1.1086  0.4490
17226TIP3   OH273168   1.569   5.419  11.873  0.6374  0.2439 -0.0733
17226TIP3    H173169   1.539   5.509  11.879  0.4668  0.1052  2.2343
17226TIP3    H273170   1.533   5.386  11.791 -0.5473  1.8402 -0.2299
17227TIP3   OH273171   2.926   0.032   6.303 -0.6360 -0.0530  0.1416
17227TIP3    H173172   2.892   0.109   6.258 -1.3170  1.5433  3.1187
17227TIP3    H273173   3.000   0.064   6.354  0.4513 -1.8741 -0.1929
17228TIP3   OH273174   3.382   1.342  14.199 -0.0183  0.0595  0.0538
17228TIP3    H173175   3.419   1.426  14.172  1.9092 -0.8072 -0.1892
17228TIP3    H273176   3.321   1.363  14.269  1.2491  1.5689  0.7560
17229TIP3   OH273177   3.721   0.456  16.846 -0.1988  0.0471  0.4796
17229TIP3    H173178   3.697   0.422  16.932  1.8208  0.5237  1.2855
17229TIP3    H273179   3.787   0.394  16.814 -0.1125  0.4969 -0.2298
17230TIP3   OH273180   5.565   2.316   2.077  0.0350 -0.2883  0.4502
17230TIP3    H173181   5.491   2.331   2.018  0.5465 -1.7949 -0.6336
17230TIP3    H273182   5.619   2.394   2.067  0.3817 -0.7383 -1.5377
17231TIP3   OH273183   4.910   3.407  16.057 -0.3661  0.4025  0.3673
17231TIP3    H173184   4.832   3.400  16.112 -2.1629  0.0119 -2.0631
17231TIP3    H273185   4.929   3.317  16.031  0.5843  0.5578  0.4786
17232TIP3   OH273186   1.751   0.182  16.084 -0.5286 -0.4707 -0.1855
17232TIP3    H173187   1.790   0.247  16.025 -0.7929 -0.8011 -0.7319
17232TIP3    H273188   1.659   0.207  16.090 -0.6923 -0.9379 -0.6148
17233TIP3   OH273189   5.821   4.765   1.378  0.2607 -0.5596  0.3129
17233TIP3    H173190   5.829   4.708   1.302  1.1379 -0.4349  0.2943
17233TIP3    H273191   5.738   4.810   1.366  0.9880  0.4691 -1.2977
17234TIP3   OH273192   0.416   1.674   4.209 -0.2311  0.2135 -0.4471
17234TIP3    H173193   0.378   1.730   4.141 -0.6703  0.4327 -0.0289
17234TIP3    H273194   0.510   1.690   4.204 -0.3689  1.1045 -0.2290
17235TIP3   OH273195   1.316   1.008   2.377  0.1633 -0.0184  0.0862
17235TIP3    H173196   1.224   1.012   2.404  0.1148  1.9089 -0.2478
17235TIP3    H273197   1.313   0.993   2.282  0.1151  1.6785 -0.2115
17236TIP3   OH273198   5.575   6.264   5.039  0.1221  0.8694  0.1243
17236TIP3    H173199   5.537   6.234   5.121  0.2968 -0.5038 -0.2725
17236TIP3    H273200   5.500   6.290   4.986 -0.2737 -1.0490 -0.3476
17237TIP3   OH273201   2.159   2.915  15.317 -0.2811 -0.0648 -0.0544
17237TIP3    H173202   2.223   2.891  15.384 -0.6024  0.9597  0.6419
17237TIP3    H273203   2.083   2.860  15.335 -0.7357  0.8952  1.0590
17238TIP3   OH273204   0.667   4.368  11.941  0.2106  0.4444  1.2074
17238TIP3    H173205   0.692   4.307  11.872  0.6076 -0.0689  1.7983
17238TIP3    H273206   0.583   4.404  11.912  1.0401  1.3221 -0.2386
17239TIP3   OH273207   0.017   3.961  13.864  0.2558  0.4917 -0.1266
17239TIP3    H173208   0.007   4.041  13.915 -1.0700 -0.2088  0.7370
17239TIP3    H273209   0.055   3.991  13.781  2.7566  1.6168  1.2992
17240TIP3   OH273210   4.259   2.931  16.359  0.2374  0.0560 -0.6680
17240TIP3    H173211   4.185   2.901  16.307 -0.0586 -1.1602  0.4011
17240TIP3    H273212   4.334   2.926  16.300  0.1356 -2.4747 -0.6798
17241TIP3   OH273213   5.310   4.931  16.051  0.3592 -0.6615  0.2547
17241TIP3    H173214   5.289   5.007  15.996 -2.0367  0.3739  2.3725
17241TIP3    H273215   5.388   4.958  16.100  0.3011 -0.1080  0.0543
17242TIP3   OH273216   5.445   0.504   4.475 -0.1434  0.1969  0.3603
17242TIP3    H173217   5.489   0.522   4.559 -0.3021  1.5545  0.1651
17242TIP3    H273218   5.365   0.555   4.478 -1.2860 -1.5077  0.2955
17243TIP3   OH273219   1.021   0.760  13.780 -0.2078 -0.0291  0.7083
17243TIP3    H173220   0.984   0.684  13.826  0.3556 -1.2637 -0.7712
17243TIP3    H273221   0.945   0.816  13.762 -0.9119 -1.0323  0.4426
17244TIP3   OH273222   2.255   5.799   2.348  0.1141 -0.2109 -0.4810
17244TIP3    H173223   2.240   5.890   2.324  2.0343 -0.3258 -2.3535
17244TIP3    H273224   2.202   5.786   2.427 -1.3528  2.0783 -0.9977
17245TIP3   OH273225   0.478   2.719   2.163 -0.4560 -0.5541  0.0562
17245TIP3    H173226   0.509   2.760   2.244 -3.3684  0.5007  0.7664
17245TIP3    H273227   0.491   2.626   2.177  3.0964 -0.2496 -0.1579
17246TIP3   OH273228   6.687   1.892  11.688  0.4813  0.1669  0.5518
17246TIP3    H173229   6.752   1.960  11.705  0.2182  0.9935 -1.4707
17246TIP3    H273230   6.636   1.925  11.615 -1.1700 -1.2100  1.0084
17247TIP3   OH273231   2.769   3.344   2.686  0.5121 -0.1057 -0.1388
17247TIP3    H173232   2.763   3.257   2.725 -0.5323  0.0471  0.0513
17247TIP3    H273233   2.858   3.373   2.706  0.9827 -1.2452 -0.4670
17248TIP3   OH273234   1.150   4.411  12.169  0.2713  0.3669  0.5960
17248TIP3    H173235   1.227   4.420  12.226  1.0987 -2.9492  0.2414
17248TIP3    H273236   1.180   4.442  12.084  0.9936 -0.1945  0.6327
17249TIP3   OH273237   1.997   1.477  13.950  0.3543  0.2796  0.1885
17249TIP3    H173238   1.928   1.510  13.892  0.6887  0.1866 -0.2629
17249TIP3    H273239   1.985   1.527  14.031 -0.7728 -0.3268  0.4178
17250TIP3   OH273240   4.034   3.833   4.286  0.4496 -0.0374  0.3769
17250TIP3    H173241   4.075   3.890   4.221  1.6063 -1.7821 -0.4901
17250TIP3    H273242   3.941   3.838   4.266  0.3920  2.1787  0.8893
17251TIP3   OH273243   5.622   5.753   3.517 -0.4986 -0.0362  0.0246
17251TIP3    H173244   5.692   5.813   3.544  0.5897 -0.7711 -1.0699
17251TIP3    H273245   5.586   5.793   3.438  0.0224 -0.6442 -0.5311
17252TIP3   OH273246   1.610   0.153   0.975 -0.0024 -0.3114  0.6162
17252TIP3    H173247   1.559   0.072   0.977  2.7023 -2.1212  2.0444
17252TIP3    H273248   1.633   0.164   0.882 -0.7551 -0.9032  0.3436
17253TIP3   OH273249   4.659   3.797   4.015  0.3957  0.1212  0.2464
17253TIP3    H173250   4.731   3.807   4.078 -0.8929  0.4576  1.7066
17253TIP3    H273251   4.699   3.818   3.931  2.4684 -1.4624  0.7436
17254TIP3   OH273252   4.186   2.926   3.384 -0.2619  0.3701  0.4544
17254TIP3    H173253   4.263   2.917   3.440 -1.0123  1.5287  1.7090
17254TIP3    H273254   4.111   2.920   3.443 -1.3224 -2.9096 -0.9662
17255TIP3   OH273255   1.979   6.098   5.460  0.4565  0.1438  0.2823
17255TIP3    H173256   2.048   6.137   5.406  0.1980 -0.6154 -0.6138
17255TIP3    H273257   2.025   6.061   5.536  0.7285  2.0364  1.1085
17256TIP3   OH273258   5.161   0.996  16.934 -0.1827 -0.3262 -0.2548
17256TIP3    H173259   5.179   1.015  16.842  0.2982 -3.5175 -0.9309
17256TIP3    H273260   5.076   0.952  16.933 -0.7873  0.7603  1.0145
17257TIP3   OH273261   0.349   0.613  11.535  0.1650  0.1816 -0.1521
17257TIP3    H173262   0.288   0.604  11.609  1.0308  0.5132  0.6213
17257TIP3    H273263   0.300   0.582  11.460 -1.0737  0.7433  0.3974
17258TIP3   OH273264   0.227   0.469  15.390 -0.2465  0.6679 -0.0412
17258TIP3    H173265   0.260   0.532  15.326  0.5879  1.8566  1.4894
17258TIP3    H273266   0.285   0.394  15.381  1.5055  1.8177  0.9881
17259TIP3   OH273267   2.748   1.236  16.168  0.7422  0.5849 -0.0391
17259TIP3    H173268   2.749   1.228  16.264  0.3875  2.9398  0.2342
17259TIP3    H273269   2.670   1.187  16.141  1.1009 -0.5026  0.8079
17260TIP3   OH273270   1.659   5.991   5.719 -0.3256 -0.0811 -0.9146
17260TIP3    H173271   1.737   5.944   5.748  1.6179  2.7021 -1.2522
17260TIP3    H273272   1.611   6.011   5.799  0.6004  0.2782 -0.4407
17261TIP3   OH273273   5.339   5.466  15.732 -0.5472 -0.2799  0.3592
17261TIP3    H173274   5.358   5.504  15.646  0.2838 -1.4476 -0.0020
17261TIP3    H273275   5.419   5.420  15.756 -0.8095 -0.0691  1.7255
17262TIP3   OH273276   2.642   2.455   5.893  0.9357 -0.5801  0.4156
17262TIP3    H173277   2.617   2.423   5.806  2.6833 -0.3599 -0.2020
17262TIP3    H273278   2.718   2.402   5.917  0.6336 -0.4614  1.7194
17263TIP3   OH273279   3.779   6.064   1.937 -0.8323 -0.1864 -0.3811
17263TIP3    H173280   3.756   6.062   1.844  1.4468  1.7931 -1.0797
17263TIP3    H273281   3.831   5.985   1.951  1.1024  0.8333 -1.5188
17264TIP3   OH273282   5.768   1.560   5.000 -0.8166 -0.1283  0.0236
17264TIP3    H173283   5.851   1.600   5.025 -0.8983 -0.4120  0.7615
17264TIP3    H273284   5.730   1.622   4.938  0.7238 -0.8043 -1.6882
17265TIP3   OH273285   2.227   0.486  13.629  0.3145  0.2861  0.4097
17265TIP3    H173286   2.214   0.525  13.716 -0.7996  1.4941 -0.2617
17265TIP3    H273287   2.264   0.557  13.576  0.4888 -0.2767 -0.2347
17266TIP3   OH273288   3.306   0.252   4.734 -0.0624  0.2378  0.2354
17266TIP3    H173289   3.312   0.294   4.820 -0.9147 -0.4585  0.6519
17266TIP3    H273290   3.396   0.254   4.701 -0.1654  3.0713 -0.1276
17267TIP3   OH273291   3.041   4.569   1.052  0.5937  0.2544  0.1807
17267TIP3    H173292   3.048   4.597   1.143 -2.2448  1.9216  0.0214
17267TIP3    H273293   3.130   4.575   1.017  1.5051  0.9106  2.4657
17268TIP3   OH273294   2.170   1.901  14.998 -0.4061  0.3778 -0.8772
17268TIP3    H173295   2.104   1.901  15.067  0.6829  1.0006  0.2272
17268TIP3    H273296   2.171   1.991  14.966  0.9426  0.7801  0.2018
17269TIP3   OH273297   5.328   3.459  12.211  0.2450  0.8144 -0.0298
17269TIP3    H173298   5.352   3.476  12.121 -0.6693 -0.3959 -0.5331
17269TIP3    H273299   5.409   3.468  12.261  1.1835 -0.5100 -1.2614
17270TIP3   OH273300   3.517   3.936   1.974  0.1124  0.4199 -0.6674
17270TIP3    H173301   3.576   4.000   2.014 -0.0591  0.3431 -0.2824
17270TIP3    H273302   3.504   3.967   1.885  1.0399  0.2299 -0.8719
17271TIP3   OH273303   4.673   4.712   2.290  0.3420  0.1879 -0.3494
17271TIP3    H173304   4.675   4.796   2.245 -1.0344  0.8730  0.7606
17271TIP3    H273305   4.754   4.709   2.341  0.9412  0.3023 -1.2782
17272TIP3   OH273306   1.564   4.658  15.185  0.0125  0.0002 -0.0134
17272TIP3    H173307   1.578   4.596  15.112 -0.4665  0.9389 -0.9298
17272TIP3    H273308   1.640   4.716  15.182 -1.2465  1.6829 -1.4925
17273TIP3   OH273309   1.398   0.511  10.420 -0.0514  0.2893 -0.0676
17273TIP3    H173310   1.409   0.528  10.326 -1.2872 -0.3602 -0.3537
17273TIP3    H273311   1.388   0.597  10.459 -2.7270  0.5020 -1.0032
17274TIP3   OH273312   2.975   3.494   5.878 -0.3462 -0.4835  0.0536
17274TIP3    H173313   3.052   3.445   5.849  0.4685 -0.0933  1.4672
17274TIP3    H273314   2.979   3.576   5.829  0.2130 -0.4135  0.2108
17275TIP3   OH273315   4.927   4.103  15.812 -0.1328  0.0264  0.5714
17275TIP3    H173316   5.011   4.150  15.822 -0.4112  0.9941 -1.1518
17275TIP3    H273317   4.952   4.011  15.806  0.5510  0.0302  2.7308
17276TIP3   OH273318   1.819   2.723  15.160 -0.3037  0.9416  0.0855
17276TIP3    H173319   1.896   2.757  15.116  1.6685 -1.9735  0.9843
17276TIP3    H273320   1.802   2.639  15.118 -2.3142  0.9973  0.6775
17277TIP3   OH273321   3.425   1.792  13.710  0.0570  0.2180 -0.2684
17277TIP3    H173322   3.359   1.826  13.769 -0.0038 -0.3908  0.0230
17277TIP3    H273323   3.497   1.765  13.767 -0.8513 -2.3698 -0.2094
17278TIP3   OH273324   5.829   2.656  11.206 -0.2083 -0.4802  0.2305
17278TIP3    H173325   5.901   2.720  11.205 -1.2756  0.7756 -1.2729
17278TIP3    H273326   5.824   2.625  11.115 -2.1187  0.1405  0.0855
17279TIP3   OH273327   6.777   5.635   3.042 -0.2535 -0.7356 -0.2217
17279TIP3    H173328   6.722   5.611   3.116 -0.1014 -1.8759 -0.4665
17279TIP3    H273329   6.848   5.571   3.043  0.3553 -0.0803 -0.6899
17280TIP3   OH273330   5.817   3.560  11.999 -0.2777  0.1834 -0.1982
17280TIP3    H173331   5.837   3.473  11.962 -1.0331 -0.1824  0.2223
17280TIP3    H273332   5.808   3.616  11.922 -0.4594 -0.2661 -0.5143
17281TIP3   OH273333   1.437   4.616  10.865  0.2859  0.2442 -0.0361
17281TIP3    H173334   1.408   4.526  10.878 -0.5085  0.4806 -0.1540
17281TIP3    H273335   1.532   4.609  10.855  0.3017 -0.5153  0.5456
17282TIP3   OH273336   0.323   4.336   5.356 -0.5934 -0.0094  0.5846
17282TIP3    H173337   0.351   4.418   5.316 -0.8424  0.7532  1.9085
17282TIP3    H273338   0.227   4.336   5.347 -0.4679 -1.3665 -1.5961
17283TIP3   OH273339   3.651   0.040   0.131 -0.1702  0.0297  0.6508
17283TIP3    H173340   3.693  -0.032   0.086  0.3730 -0.6093  2.1087
17283TIP3    H273341   3.677   0.118   0.082 -0.1807 -0.6925 -0.5230
17284TIP3   OH273342   5.052   0.092   3.350  0.5184 -0.8317  0.4563
17284TIP3    H173343   5.115   0.021   3.360  1.9537  0.0242 -1.7292
17284TIP3    H273344   5.058   0.117   3.258 -2.4170 -0.1011  0.3644
17285TIP3   OH273345   0.341   1.035  12.289  0.1006  0.2004  0.2647
17285TIP3    H173346   0.406   0.973  12.256  0.6230  0.3935  0.9009
17285TIP3    H273347   0.364   1.118  12.246  1.7503  0.8272  2.1966
17286TIP3   OH273348   4.997   4.267   4.143  0.0222 -0.4190 -0.2670
17286TIP3    H173349   5.079   4.276   4.094  0.2250 -0.4604  0.0550
17286TIP3    H273350   5.026   4.253   4.234 -0.3497  0.3124 -0.0291
17287TIP3   OH273351   5.680   6.098  12.219 -0.7494  0.2942  0.0451
17287TIP3    H173352   5.690   6.110  12.313 -1.0482  1.3729 -0.0546
17287TIP3    H273353   5.667   6.186  12.184  0.7319  0.0597 -1.1914
17288TIP3   OH273354   6.121   3.295  16.791 -0.9057 -0.0084  0.2929
17288TIP3    H173355   6.065   3.301  16.714 -0.2063 -0.6686 -0.2945
17288TIP3    H273356   6.133   3.385  16.820 -1.0111  0.2719 -0.5027
17289TIP3   OH273357   1.030   5.795  11.944  0.9051 -0.4077 -0.8527
17289TIP3    H173358   1.066   5.878  11.975  0.4023 -0.9325  1.3027
17289TIP3    H273359   0.993   5.754  12.022  0.3270 -2.2608 -2.0283
17290TIP3   OH273360   6.654   3.950  15.067 -0.2355  0.0331 -0.2498
17290TIP3    H173361   6.708   3.949  15.146 -0.3505  3.4364  0.0200
17290TIP3    H273362   6.712   3.983  14.998 -1.2362  1.1793 -0.5710
17291TIP3   OH273363   1.921   6.537  12.132  0.0062 -0.2615 -0.5800
17291TIP3    H173364   1.864   6.603  12.171  0.1800 -1.3906  1.7734
17291TIP3    H273365   2.005   6.581  12.120 -0.8097  0.9088 -2.4337
17292TIP3   OH273366   2.136   5.078   6.075  0.1833  0.4135 -0.4115
17292TIP3    H173367   2.138   5.140   6.002  3.0742  0.4014 -0.4348
17292TIP3    H273368   2.171   5.126   6.149  0.7008 -0.6351  0.0462
17293TIP3   OH273369   0.572   4.761   0.821  0.1669  0.2663 -0.4175
17293TIP3    H173370   0.568   4.852   0.793 -0.4815  0.8693  1.5109
17293TIP3    H273371   0.527   4.713   0.751 -0.9689  1.6297 -0.6712
17294TIP3   OH273372   1.665   1.619   3.186 -0.1943  0.1745  0.3253
17294TIP3    H173373   1.662   1.529   3.218  0.1008  0.4384  1.1117
17294TIP3    H273374   1.734   1.661   3.238 -0.1775  0.8008 -0.1854
17295TIP3   OH273375   2.143   4.065   0.244  0.0376  0.1503  0.5904
17295TIP3    H173376   2.221   4.047   0.297  0.9448  0.5062 -0.5831
17295TIP3    H273377   2.123   4.157   0.261  1.3331  0.7537 -0.8956
17296TIP3   OH273378   1.781   4.326   4.900  0.0981  0.1707  0.1294
17296TIP3    H173379   1.769   4.277   4.818  0.3654 -0.1045  0.2501
17296TIP3    H273380   1.761   4.262   4.968  1.4086 -0.0666  0.3171
17297TIP3   OH273381   3.934   5.592   2.809 -0.1006  0.2741 -0.2437
17297TIP3    H173382   3.903   5.674   2.847 -1.4191  0.0748 -0.8408
17297TIP3    H273383   4.027   5.606   2.794 -0.1629  1.3908  0.3359
17298TIP3   OH273384   6.136   3.049  14.887  0.2198  0.1905 -0.0052
17298TIP3    H173385   6.132   3.083  14.977  1.2150  0.8066 -0.1841
17298TIP3    H273386   6.124   3.127  14.832 -1.7417 -0.3554 -0.4339
17299TIP3   OH273387   0.597   2.004  12.153 -0.2625  0.0897 -0.1388
17299TIP3    H173388   0.611   1.954  12.234  0.8760  2.3043  1.1353
17299TIP3    H273389   0.555   2.085  12.182  1.7286  1.6912 -1.4654
17300TIP3   OH273390   0.743   6.193  13.356  0.6186  0.3704 -0.2690
17300TIP3    H173391   0.765   6.156  13.442 -1.7243  1.1576  0.7466
17300TIP3    H273392   0.774   6.128  13.294  0.0247 -1.4876  1.2861
17301TIP3   OH273393   6.302   2.019  16.417 -0.3810 -0.5450 -0.4983
17301TIP3    H173394   6.298   1.941  16.362 -0.6849 -0.4596 -0.6026
17301TIP3    H273395   6.214   2.026  16.455 -0.1174 -0.7218  0.1626
17302TIP3   OH273396   2.093   2.134  14.585 -0.0905 -0.3485  0.0178
17302TIP3    H173397   2.176   2.181  14.578  0.5272 -1.1515  1.3224
17302TIP3    H273398   2.116   2.042  14.570 -0.4348 -0.7782  1.8488
17303TIP3   OH273399   3.431   1.497  10.507  0.3471  0.2098 -0.3515
17303TIP3    H173400   3.350   1.490  10.456 -0.4305 -1.0056  0.9898
17303TIP3    H273401   3.458   1.406  10.522 -0.8574  0.3376  3.5039
17304TIP3   OH273402   2.686   4.464   0.515  0.1109 -0.2553  0.1704
17304TIP3    H173403   2.699   4.548   0.560 -0.7740  0.2196 -0.4198
17304TIP3    H273404   2.662   4.403   0.584 -0.8082  0.3602  0.4173
17305TIP3   OH273405   2.273   4.508  15.791  0.3039  0.4286 -0.1515
17305TIP3    H173406   2.251   4.601  15.792 -2.7225 -0.1835  0.0495
17305TIP3    H273407   2.255   4.480  15.702 -0.0765 -0.1984  0.1121
17306TIP3   OH273408   2.236   4.035  13.761 -0.0611 -0.2343 -0.2766
17306TIP3    H173409   2.301   3.982  13.807 -0.1401  0.2251  0.3782
17306TIP3    H273410   2.272   4.046  13.673  1.0349  0.4687  0.2287
17307TIP3   OH273411   4.455   0.626   6.118  0.5221  0.6859  0.1560
17307TIP3    H173412   4.467   0.580   6.035  1.0760  2.3639 -0.7365
17307TIP3    H273413   4.535   0.677   6.129  0.9049 -0.2532  2.2608
17308TIP3   OH273414   6.015   4.769   5.471  0.0506 -0.4294 -0.1928
17308TIP3    H173415   6.027   4.715   5.393  0.4572 -2.5512  1.2524
17308TIP3    H273416   5.921   4.776   5.482 -0.0035 -0.7631 -0.4431
17309TIP3   OH273417   5.884   0.652  15.600 -0.3735  0.1044  0.3675
17309TIP3    H173418   5.963   0.654  15.547 -2.7231  0.7727 -3.4522
17309TIP3    H273419   5.849   0.563  15.589 -1.1008  0.3667  0.4570
17310TIP3   OH273420   4.995   3.968   0.640  0.5720  0.5903 -0.1050
17310TIP3    H173421   5.061   4.028   0.675  0.2375 -0.2030  2.0125
17310TIP3    H273422   4.920   3.979   0.697  0.8243 -2.4808  0.9691
17311TIP3   OH273423   1.819   2.820  16.985 -0.1740 -0.2310  0.1730
17311TIP3    H173424   1.826   2.905  17.027 -1.0941  0.2609 -0.6507
17311TIP3    H273425   1.789   2.761  17.054  0.2262  0.1461  0.6791
17312TIP3   OH273426   6.418   0.134  15.846  1.1021 -0.0739 -0.5637
17312TIP3    H173427   6.389   0.087  15.769 -2.8611  0.1876  0.5252
17312TIP3    H273428   6.448   0.066  15.907  0.3250 -0.6900 -0.8586
17313TIP3   OH273429   3.305   2.735  16.537  0.1442  0.2290  0.0562
17313TIP3    H173430   3.325   2.662  16.479  0.3779  0.4664 -0.1604
17313TIP3    H273431   3.303   2.811  16.480  0.2642  0.4455  0.3401
17314TIP3   OH273432   6.811   2.263   6.027  0.1276 -0.2194 -0.1792
17314TIP3    H173433   6.730   2.213   6.038 -0.3226  0.7713  1.4156
17314TIP3    H273434   6.822   2.308   6.111 -0.0627  3.1971 -1.8450
17315TIP3   OH273435   4.456   2.854   2.195  0.0722 -0.4129 -0.0207
17315TIP3    H173436   4.389   2.840   2.261 -1.5580  1.8956 -1.0822
17315TIP3    H273437   4.522   2.908   2.238  0.0423 -0.6464  0.3185
17316TIP3   OH273438   3.214   2.185   6.150  0.2444  0.5175 -0.6268
17316TIP3    H173439   3.207   2.234   6.068  0.1361 -0.4467 -1.2174
17316TIP3    H273440   3.294   2.133   6.140  1.3796  1.9123  0.7539
17317TIP3   OH273441   5.446   4.748   4.229  0.3337 -0.4525 -0.0179
17317TIP3    H173442   5.455   4.842   4.219  1.0707 -0.6664 -1.9616
17317TIP3    H273443   5.531   4.719   4.261  0.0097 -0.4336  0.8714
17318TIP3   OH273444   1.599   0.195   3.543  0.4184  0.0256  0.2515
17318TIP3    H173445   1.526   0.166   3.597 -0.6653 -2.1258 -2.1409
17318TIP3    H273446   1.559   0.217   3.459  2.5060 -2.2777 -1.5102
17319TIP3   OH273447   2.611   3.169  16.728  0.2272  0.2544 -0.1128
17319TIP3    H173448   2.624   3.075  16.715  1.9804  0.7530 -2.7921
17319TIP3    H273449   2.544   3.175  16.797  1.2589 -2.8925  1.3475
17320TIP3   OH273450   5.259   2.790   2.980  0.1801  0.3649 -0.3402
17320TIP3    H173451   5.281   2.756   2.893  0.2585  1.0115 -0.5746
17320TIP3    H273452   5.190   2.731   3.012 -0.1381  0.3737 -1.0090
17321TIP3   OH273453   4.110   5.182  16.768  0.8022 -0.3269 -0.3841
17321TIP3    H173454   4.131   5.272  16.741 -1.1633  0.2085 -0.2941
17321TIP3    H273455   4.139   5.128  16.695  0.4122  0.5749 -1.2322
17322TIP3   OH273456   3.150   0.273  12.190 -0.2534 -0.1750  0.0450
17322TIP3    H173457   3.082   0.225  12.143 -1.2434 -0.4148  1.6553
17322TIP3    H273458   3.222   0.211  12.197  1.0134  0.6675 -3.3159
17323TIP3   OH273459   1.732   6.410   4.440 -0.0695  0.0765 -0.6669
17323TIP3    H173460   1.691   6.325   4.451 -1.0691  0.7100  0.7724
17323TIP3    H273461   1.786   6.401   4.361  0.2545 -2.0281 -0.2488
17324TIP3   OH273462   5.366   6.222   5.274  0.0897  0.3966 -0.4212
17324TIP3    H173463   5.280   6.216   5.234 -0.9699  1.0560  1.6210
17324TIP3    H273464   5.372   6.146   5.332  1.0492  0.1574 -0.8054
17325TIP3   OH273465   0.053   3.429  17.153  0.1922 -0.1515 -0.6230
17325TIP3    H173466  -0.015   3.412  17.089  0.3532 -2.1050 -0.3383
17325TIP3    H273467   0.012   3.413  17.238 -0.0081  2.3559 -0.1685
17326TIP3   OH273468   4.856   0.924   3.221  0.3822 -0.0906 -0.4312
17326TIP3    H173469   4.916   0.851   3.213 -0.0089 -0.7676  1.9605
17326TIP3    H273470   4.884   0.970   3.301 -0.4517  1.3193 -0.9114
17327TIP3   OH273471   3.888   0.676  16.975  0.4929  0.2356  0.9478
17327TIP3    H173472   3.951   0.644  17.040  1.0520  1.5931  1.1123
17327TIP3    H273473   3.854   0.596  16.934  2.2441 -0.5608  0.9287
17328TIP3   OH273474   0.662   0.024  14.962 -0.1057 -0.1528  0.2497
17328TIP3    H173475   0.732  -0.025  15.006 -0.7272 -1.4930 -0.1951
17328TIP3    H273476   0.616   0.070  15.033 -0.1074 -0.9989  0.8106
17329TIP3   OH273477   3.320   1.959   3.267  0.3644  0.5285 -0.0106
17329TIP3    H173478   3.244   1.902   3.275  0.4621  0.1588 -1.3500
17329TIP3    H273479   3.388   1.916   3.320  0.1837 -0.1503 -0.3227
17330TIP3   OH273480   5.549   1.691  12.473 -0.5521 -0.1726 -0.2945
17330TIP3    H173481   5.615   1.674  12.540 -1.0381  0.0229  0.2410
17330TIP3    H273482   5.575   1.635  12.399  3.0291  3.2682 -2.0526
17331TIP3   OH273483   0.199   6.552  12.248  0.2982  0.3090  0.3741
17331TIP3    H173484   0.194   6.554  12.152 -1.6111  0.2674  0.4408
17331TIP3    H273485   0.286   6.516  12.266  0.0033 -1.4752 -1.3706
17332TIP3   OH273486   6.555   4.432   0.952  0.4778  0.1589 -0.2137
17332TIP3    H173487   6.473   4.444   0.906 -0.6660 -1.9094  1.1038
17332TIP3    H273488   6.621   4.473   0.896 -1.1131 -0.2160 -2.4948
17333TIP3   OH273489   5.622   3.001  14.487 -0.1530 -0.1872  0.1526
17333TIP3    H173490   5.693   2.937  14.486 -0.2537 -0.3078 -0.9001
17333TIP3    H273491   5.542   2.948  14.481 -0.2075  0.0141 -1.8802
17334TIP3   OH273492   3.149   1.522  13.402  0.1103 -0.3147 -0.0728
17334TIP3    H173493   3.080   1.532  13.337 -0.3240 -0.4724  0.3613
17334TIP3    H273494   3.132   1.591  13.466  0.9929  0.3404 -0.5196
17335TIP3   OH273495   1.929   6.228   4.579 -0.2493  0.9961 -0.1090
17335TIP3    H173496   1.855   6.171   4.602 -0.5880  1.7302  0.6587
17335TIP3    H273497   1.965   6.188   4.500  0.1141 -0.8558  0.9189
17336TIP3   OH273498   5.447   1.147   2.298  0.1125  0.1978  0.3201
17336TIP3    H173499   5.378   1.207   2.270 -0.1498  0.2755  1.1119
17336TIP3    H273500   5.471   1.099   2.219  0.3740  1.3871 -0.3518
17337TIP3   OH273501   1.264   2.842  12.569  0.4861 -0.1318 -0.4717
17337TIP3    H173502   1.248   2.784  12.643  0.5181  2.7520  1.9703
17337TIP3    H273503   1.177   2.877  12.548  1.0093  2.4280  1.2764
17338TIP3   OH273504   3.089   4.911   0.952 -0.3680 -0.1013 -0.5847
17338TIP3    H173505   3.044   4.949   1.028 -0.7235 -1.2294 -0.2204
17338TIP3    H273506   3.121   4.987   0.904 -1.9594  0.7071 -0.4309
17339TIP3   OH273507   2.655   0.002   2.142 -0.5667  0.3838  0.5666
17339TIP3    H173508   2.608  -0.075   2.111 -1.1741  1.1002 -0.3655
17339TIP3    H273509   2.707   0.031   2.066  1.1298 -0.1774  1.4629
17340TIP3   OH273510   6.456   6.069   1.427 -0.0906 -0.2506 -0.4357
17340TIP3    H173511   6.432   6.030   1.342  0.0106  0.6592 -0.8892
17340TIP3    H273512   6.551   6.064   1.429 -0.0851 -0.1358 -0.4373
17341TIP3   OH273513   3.737   0.157  16.349  0.6034  0.3528 -0.8391
17341TIP3    H173514   3.742   0.061  16.346 -0.1281  0.3318 -1.5006
17341TIP3    H273515   3.703   0.182  16.263 -0.2187  1.1455 -0.2928
17342TIP3   OH273516   0.993   4.471  14.219 -0.5005  0.5837  0.2443
17342TIP3    H173517   0.983   4.566  14.220  1.0815  0.8499 -1.8523
17342TIP3    H273518   1.072   4.455  14.271 -0.6984  0.4187  0.4960
17343TIP3   OH273519   6.210   3.777  16.224 -0.1969  0.6255 -0.4032
17343TIP3    H173520   6.209   3.839  16.297 -0.2477 -0.8122  0.8665
17343TIP3    H273521   6.132   3.724  16.237 -0.8987  1.1138 -2.2535
17344TIP3   OH273522   5.276   3.195   2.256  0.6478  0.0382  0.0026
17344TIP3    H173523   5.288   3.133   2.327 -1.0844  0.7734  1.0177
17344TIP3    H273524   5.184   3.183   2.229  0.5050  1.5814 -0.3073
17345TIP3   OH273525   0.118   2.157   5.396 -0.0731  0.1010  0.4542
17345TIP3    H173526   0.152   2.092   5.458 -0.6349 -0.6894 -0.0504
17345TIP3    H273527   0.030   2.127   5.375 -0.1755  0.7832 -0.1404
17346TIP3   OH273528   4.361   3.406   4.887  0.4959 -0.1284 -0.3239
17346TIP3    H173529   4.313   3.466   4.831 -0.6827 -1.1136 -0.4300
17346TIP3    H273530   4.359   3.447   4.974 -1.5070 -0.6166 -0.0929
17347TIP3   OH273531   2.168   1.398  14.676  0.4241  0.0590  0.2854
17347TIP3    H173532   2.154   1.458  14.748  1.3318 -0.6489  1.0860
17347TIP3    H273533   2.263   1.387  14.672  0.4891  0.9490 -1.7570
17348TIP3   OH273534   1.267   0.135   4.064 -0.1981  0.1072 -0.4514
17348TIP3    H173535   1.202   0.069   4.040 -1.2227  0.7465  0.4639
17348TIP3    H273536   1.328   0.089   4.121 -1.9721  0.3012  1.7748
17349TIP3   OH273537   5.799   3.792  13.858  0.2173  0.1378  0.8927
17349TIP3    H173538   5.748   3.870  13.835  0.7086  0.4735  0.9464
17349TIP3    H273539   5.874   3.825  13.906  1.2395 -0.2170 -0.3914
17350TIP3   OH273540   0.944   3.865  14.269  0.2167 -0.6227  0.1027
17350TIP3    H173541   0.858   3.895  14.238  0.1221 -0.5783  0.3993
17350TIP3    H273542   0.971   3.932  14.332  0.8768 -0.1728 -0.6508
17351TIP3   OH273543   6.064   5.601   1.585  0.3254  0.3057  0.0725
17351TIP3    H173544   5.998   5.585   1.518 -1.1279  0.7406  1.3569
17351TIP3    H273545   6.093   5.691   1.569  1.5740 -0.2948 -1.2665
17352TIP3   OH273546   2.416   3.706  13.909  0.8516 -0.0497 -0.0985
17352TIP3    H173547   2.429   3.722  13.815 -2.7069 -1.2216 -0.9492
17352TIP3    H273548   2.504   3.706  13.946  2.3018  2.1371 -3.1120
17353TIP3   OH273549   0.500   0.027   0.090 -0.3387  0.0261 -0.3135
17353TIP3    H173550   0.523   0.071   0.172 -0.7927  0.3015 -0.3267
17353TIP3    H273551   0.426  -0.029   0.113  0.2513 -0.7583 -0.2944
17354TIP3   OH273552   4.455   1.696  15.948  0.5865  0.0359 -0.3625
17354TIP3    H173553   4.397   1.761  15.907 -0.5130 -0.3600  0.5309
17354TIP3    H273554   4.479   1.637  15.876 -0.1590  0.1781 -0.7424
17355TIP3   OH273555   3.068   5.945   2.625  0.2065  0.7217 -0.0681
17355TIP3    H173556   3.050   6.017   2.564  1.2068 -0.2178 -1.5254
17355TIP3    H273557   3.163   5.946   2.636 -0.0226  1.5386  2.3875
17356TIP3   OH273558   5.991   2.269  13.353 -0.1397 -0.3739 -0.2792
17356TIP3    H173559   5.938   2.327  13.298 -0.2943 -1.4615 -1.3273
17356TIP3    H273560   5.938   2.255  13.431  0.0248  1.0914  0.1298
17357TIP3   OH273561   0.741   3.583  10.676 -0.0430 -0.0446 -0.7142
17357TIP3    H173562   0.705   3.662  10.717 -0.6073 -0.6192 -0.0947
17357TIP3    H273563   0.827   3.573  10.717 -0.0050  0.1921 -0.7297
17358TIP3   OH273564   6.754   3.558   0.735  0.2127 -0.6213  0.1734
17358TIP3    H173565   6.667   3.560   0.774  0.5560 -1.9103  1.0784
17358TIP3    H273566   6.756   3.475   0.687  0.6568 -0.2010 -0.5544
17359TIP3   OH273567   0.155   3.175  15.514  0.6760  0.1391  0.6824
17359TIP3    H173568   0.091   3.235  15.477  1.9635  1.5147  0.5903
17359TIP3    H273569   0.103   3.105  15.552 -0.8050 -0.5183 -2.2166
17360TIP3   OH273570   6.242   6.826   1.514  0.5805 -0.2512 -0.5301
17360TIP3    H173571   6.165   6.839   1.569  0.5411  0.3310 -0.7189
17360TIP3    H273572   6.252   6.731   1.510 -1.2610 -0.4440 -2.0598
17361TIP3   OH273573   1.673   5.247   0.174 -0.1929  0.1686  0.4201
17361TIP3    H173574   1.655   5.153   0.184  0.2516 -0.0911 -0.9169
17361TIP3    H273575   1.675   5.281   0.263 -1.0069 -0.9652  0.9005
17362TIP3   OH273576   0.098   1.189   3.874  0.1791  1.0180 -0.6011
17362TIP3    H173577   0.097   1.263   3.813  1.2322 -1.0709 -3.3273
17362TIP3    H273578   0.047   1.121   3.831 -0.6137  0.0364  1.7523
17363TIP3   OH273579   6.591   2.804   4.696 -0.3094  0.1151  0.0300
17363TIP3    H173580   6.503   2.765   4.699  0.8777 -2.7968  1.6633
17363TIP3    H273581   6.593   2.866   4.769 -0.7981 -0.3652  0.4620
17364TIP3   OH273582   0.448   0.467   6.249 -0.4874  0.1877 -0.1363
17364TIP3    H173583   0.459   0.392   6.191 -2.7894  1.0850 -1.8932
17364TIP3    H273584   0.409   0.430   6.329  0.3020 -0.7211 -0.1511
17365TIP3   OH273585   0.937   5.615  14.614 -0.3093  0.0960 -0.0966
17365TIP3    H173586   1.017   5.567  14.588 -0.5639 -0.3896 -0.0028
17365TIP3    H273587   0.902   5.648  14.532  0.3658  0.9168 -0.0656
17366TIP3   OH273588   5.450   5.693  14.907 -0.0259  0.2435 -0.3039
17366TIP3    H173589   5.444   5.714  14.814  1.2371 -0.1726 -0.4966
17366TIP3    H273590   5.505   5.762  14.944 -1.7928  1.3037  0.4664
17367TIP3   OH273591   5.738   0.994   5.505  0.6872 -0.0591 -0.0649
17367TIP3    H173592   5.749   0.936   5.581 -2.7903  0.8846  1.3571
17367TIP3    H273593   5.768   0.942   5.431 -1.1097 -3.3320  1.2627
17368TIP3   OH273594   2.981   6.233   2.507  0.4140 -0.7906 -0.2133
17368TIP3    H173595   3.049   6.299   2.518 -1.8073  1.9124 -1.6500
17368TIP3    H273596   2.923   6.244   2.582  0.0018 -1.1139 -0.4771
17369TIP3   OH273597   1.498   2.580  11.321 -0.4721  0.3809 -0.7242
17369TIP3    H173598   1.516   2.674  11.321 -0.5958  0.4117  0.0019
17369TIP3    H273599   1.411   2.572  11.359 -0.1964 -0.0620 -0.1627
17370TIP3   OH273600   2.047   1.775   4.161  0.1462 -0.0192  0.8040
17370TIP3    H173601   2.122   1.801   4.108  0.9178 -0.7344  1.4937
17370TIP3    H273602   2.075   1.694   4.204 -0.4187  0.5379  2.3156
17371TIP3   OH273603   1.463   1.237   1.318 -0.5004  0.2335  0.0633
17371TIP3    H173604   1.451   1.145   1.295  1.0267 -0.3164  1.2278
17371TIP3    H273605   1.387   1.259   1.371 -2.4423  0.6061 -2.6847
17372TIP3   OH273606   6.023   4.506   4.595  0.1798  0.1943  0.3250
17372TIP3    H173607   6.074   4.427   4.578  1.6265  0.8274  1.4338
17372TIP3    H273608   5.955   4.478   4.656  0.9205 -0.1568  1.0209
17373TIP3   OH273609   6.146   6.237  13.940 -0.1325 -0.1007  0.2928
17373TIP3    H173610   6.127   6.324  13.975  0.1195  0.3961 -0.7375
17373TIP3    H273611   6.241   6.229  13.947 -0.2068 -0.5045  0.8498
17374TIP3   OH273612   3.957   1.658  12.718  0.0490 -0.1935 -0.6684
17374TIP3    H173613   3.956   1.752  12.733 -0.9035 -0.2143 -0.5565
17374TIP3    H273614   3.866   1.635  12.701  0.4233 -0.9284 -1.7822
17375TIP3   OH273615   5.356   4.695  12.805  0.3452  0.1066 -0.1861
17375TIP3    H173616   5.438   4.689  12.853 -0.7335  0.6402  1.8192
17375TIP3    H273617   5.338   4.605  12.776  0.7389 -0.3522  0.9388
17376TIP3   OH273618   6.490   3.215  15.143 -0.4440 -0.1843 -0.0709
17376TIP3    H173619   6.445   3.139  15.107  0.6717 -0.8486 -0.1208
17376TIP3    H273620   6.458   3.289  15.091  0.1743 -0.9449 -1.5973
17377TIP3   OH273621   5.157   2.474   3.236  0.4707  0.0726  0.1308
17377TIP3    H173622   5.082   2.510   3.283  0.2538 -0.6725  0.3777
17377TIP3    H273623   5.139   2.380   3.232  0.6749  0.0657 -1.0973
17378TIP3   OH273624   1.609   1.439   2.687 -0.1193  0.1805 -0.2284
17378TIP3    H173625   1.526   1.395   2.673  1.1520 -2.7785  0.7871
17378TIP3    H273626   1.593   1.499   2.760 -1.7975  1.1751 -1.3609
17379TIP3   OH273627   5.568   0.217   4.449 -0.3368 -0.7203  0.2068
17379TIP3    H173628   5.531   0.273   4.381  1.3800 -1.1445 -1.1540
17379TIP3    H273629   5.573   0.130   4.409 -0.0846 -1.1700  1.1816
17380TIP3   OH273630   0.595   1.508  11.946 -0.0608 -0.3263 -0.3820
17380TIP3    H173631   0.647   1.519  11.866  1.0598  1.1299  0.5053
17380TIP3    H273632   0.650   1.455  12.003  0.1203  0.5354  0.2562
17381TIP3   OH273633   4.551   2.885  15.648 -0.2460  0.1197 -0.4999
17381TIP3    H173634   4.556   2.844  15.735  2.2898 -0.0420 -0.6621
17381TIP3    H273635   4.547   2.812  15.587 -1.5419  0.2318 -0.5780
17382TIP3   OH273636   0.175   4.052   3.430  0.2849 -0.5490  0.8055
17382TIP3    H173637   0.103   4.064   3.491  0.1123 -0.1827  0.5293
17382TIP3    H273638   0.158   3.967   3.390 -1.4700  0.6584 -1.2015
17383TIP3   OH273639   6.047   2.490   2.963  0.2675 -0.6285 -0.0377
17383TIP3    H173640   6.124   2.527   3.006 -0.6745 -0.3929  1.5484
17383TIP3    H273641   6.060   2.395   2.968  0.4435 -0.5915  0.2408
17384TIP3   OH273642   0.436   3.374  11.760 -0.8527  0.3992  0.7676
17384TIP3    H173643   0.495   3.401  11.830  0.3618 -1.0643  0.3768
17384TIP3    H273644   0.356   3.346  11.805 -0.1763 -0.2977  1.5774
17385TIP3   OH273645   5.440   6.535   3.190 -0.3929  0.1816  0.3894
17385TIP3    H173646   5.468   6.498   3.106  0.8339 -0.1531  0.9262
17385TIP3    H273647   5.437   6.629   3.175 -1.3100  0.0604 -0.3357
17386TIP3   OH273648   5.587   6.308  12.788  0.3756  0.0281  0.0996
17386TIP3    H173649   5.588   6.212  12.787 -0.2299  0.0090 -1.8390
17386TIP3    H273650   5.569   6.330  12.880 -1.3703 -1.7553  0.2660
17387TIP3   OH273651   1.409   4.645  16.181 -0.2441 -0.1682 -0.4122
17387TIP3    H173652   1.445   4.729  16.211 -2.1252  1.0510 -1.3349
17387TIP3    H273653   1.486   4.595  16.153  0.8867  1.5681 -0.5978
17388TIP3   OH273654   4.576   3.209  14.896 -0.3428 -0.4731 -0.1791
17388TIP3    H173655   4.598   3.160  14.975 -1.5840  0.6018  0.8930
17388TIP3    H273656   4.660   3.225  14.853  0.2965 -1.5831  0.6092
17389TIP3   OH273657   0.934   3.386   1.333  0.3914 -0.1515  0.2989
17389TIP3    H173658   0.866   3.379   1.267  0.1885 -2.4463  0.6419
17389TIP3    H273659   0.992   3.455   1.302 -0.9880  0.4498 -1.0369
17390TIP3   OH273660   6.240   5.924  14.774 -0.0299  0.1587 -0.1723
17390TIP3    H173661   6.158   5.876  14.785  0.3803 -0.1294  1.9719
17390TIP3    H273662   6.225   5.978  14.696 -1.4992 -1.3712 -1.0289
17391TIP3   OH273663   4.198   2.220   0.971  0.5971  0.0687  0.4056
17391TIP3    H173664   4.293   2.224   0.961  0.5728 -0.4078 -0.1286
17391TIP3    H273665   4.169   2.311   0.970  1.0443  0.2144  0.5409
17392TIP3   OH273666   2.999   6.002  15.113  0.1241 -0.1040 -0.3162
17392TIP3    H173667   3.057   6.028  15.041  1.3889 -3.3706 -0.6192
17392TIP3    H273668   2.931   5.950  15.072  0.2752 -1.1483  0.7059
17393TIP3   OH273669   6.787   2.371  13.049  0.4004  0.2593  0.3735
17393TIP3    H173670   6.723   2.430  13.009 -0.0935 -0.8635 -0.5252
17393TIP3    H273671   6.744   2.286  13.050  0.8056  0.0270  2.3547
17394TIP3   OH273672   5.645   0.867  11.853  0.2640 -0.0167  0.2785
17394TIP3    H173673   5.566   0.900  11.897 -1.5513 -3.1192 -0.3120
17394TIP3    H273674   5.614   0.839  11.767  1.8174 -1.8839  0.2590
17395TIP3   OH273675   1.460   5.836   2.521  0.3176  0.0435 -0.7116
17395TIP3    H173676   1.486   5.879   2.439 -0.2886  0.9445 -0.4556
17395TIP3    H273677   1.440   5.909   2.580 -0.0314 -0.6012 -0.0236
17396TIP3   OH273678   2.236   5.822   5.211  0.2314 -0.4726  0.5403
17396TIP3    H173679   2.161   5.849   5.264  0.7935  0.0493  1.0771
17396TIP3    H273680   2.307   5.811   5.274  0.5232 -1.3076  0.0775
17397TIP3   OH273681   5.034   0.429  14.217  0.2853 -0.5516  0.0991
17397TIP3    H173682   5.125   0.444  14.242 -0.1120 -1.7778  2.5964
17397TIP3    H273683   4.984   0.487  14.275 -0.5613  0.1354 -1.2646
17398TIP3   OH273684   0.059   3.184   4.407  0.0712  0.3097 -0.4252
17398TIP3    H173685  -0.031   3.218   4.408 -0.2990 -0.6485 -0.0507
17398TIP3    H273686   0.053   3.103   4.357  0.2547 -0.9539  1.5159
17399TIP3   OH273687   4.596   1.160  13.980 -0.0828  0.0926  0.4834
17399TIP3    H173688   4.544   1.121  13.910 -2.0431  0.7407  1.4827
17399TIP3    H273689   4.671   1.199  13.936 -0.7956 -0.2882 -1.1418
17400TIP3   OH273690   1.993   2.935  15.895 -0.6369  0.6519 -0.0029
17400TIP3    H173691   2.041   2.861  15.858  2.5800  1.2228  2.5397
17400TIP3    H273692   1.938   2.896  15.964  2.4880  0.5604  2.6794
17401TIP3   OH273693   0.571   3.922   6.277  0.0857  0.2492  0.2399
17401TIP3    H173694   0.490   3.882   6.246  0.1030  0.5856 -0.2487
17401TIP3    H273695   0.601   3.864   6.347 -0.0443 -0.4384 -0.2579
17402TIP3   OH273696   6.586   1.711   3.456 -0.0148 -0.3256 -0.0898
17402TIP3    H173697   6.618   1.742   3.371  0.2374  0.8350  0.4101
17402TIP3    H273698   6.654   1.652   3.487  0.0280 -0.5285 -0.5530
17403TIP3   OH273699   6.573   4.890  13.354 -0.1303  0.1466  0.2974
17403TIP3    H173700   6.495   4.837  13.338  3.0538 -4.6345 -1.9382
17403TIP3    H273701   6.619   4.843  13.424  1.1201  2.4083  1.0818
17404TIP3   OH273702   6.535   1.276  14.912  0.5093  0.6753  0.3829
17404TIP3    H173703   6.446   1.278  14.947 -0.4915 -1.6015 -1.7258
17404TIP3    H273704   6.567   1.365  14.922 -2.3458  1.7916  0.4192
17405TIP3   OH273705   3.120   4.140  14.504 -0.5627  0.4910 -0.3028
17405TIP3    H173706   3.170   4.089  14.441 -0.5122  1.1707 -0.8313
17405TIP3    H273707   3.149   4.231  14.490 -2.2762  0.9832 -1.0014
17406TIP3   OH273708   4.974   1.975  15.493  0.0767  0.0550 -0.3526
17406TIP3    H173709   4.888   2.015  15.499 -0.2333 -0.6510 -0.0323
17406TIP3    H273710   4.999   1.958  15.584 -0.6994 -2.3570 -0.5299
17407TIP3   OH273711   0.832   3.025  15.375  0.2428 -0.5928 -0.3647
17407TIP3    H173712   0.828   3.097  15.313  2.8518 -0.5085 -0.5161
17407TIP3    H273713   0.830   3.067  15.461  0.1957 -0.4561 -0.4326
17408TIP3   OH273714   3.382   4.787  11.294  0.0943 -0.0101  0.6323
17408TIP3    H173715   3.312   4.722  11.300 -0.7854  0.9261  0.6685
17408TIP3    H273716   3.408   4.785  11.202 -0.1582 -0.1812  0.5626
17409TIP3   OH273717   1.791   2.979  14.742 -0.3755 -0.0346 -0.4893
17409TIP3    H173718   1.721   2.926  14.779 -1.1783  1.0547 -0.3793
17409TIP3    H273719   1.837   2.921  14.682 -2.2198 -0.4469 -1.6088
17410TIP3   OH273720   3.392   2.503  16.344  0.1985 -0.4149 -0.3044
17410TIP3    H173721   3.337   2.455  16.406 -0.0792  2.1165  1.5338
17410TIP3    H273722   3.338   2.512  16.265  0.0389 -2.4625 -0.4949
17411TIP3   OH273723   3.045   4.658  16.687  0.0721  0.0520  0.1348
17411TIP3    H173724   3.137   4.632  16.674 -0.0222 -0.9657  1.3044
17411TIP3    H273725   3.001   4.633  16.606  0.6171 -0.4744 -0.0035
17412TIP3   OH273726   4.472   0.084   0.626 -0.9131 -0.5548 -0.1404
17412TIP3    H173727   4.396   0.115   0.576 -0.0921 -0.0638 -1.1149
17412TIP3    H273728   4.468  -0.011   0.620 -0.5757 -0.4894 -1.5400
17413TIP3   OH273729   4.346   0.057   3.377  0.0920 -0.5888 -0.0089
17413TIP3    H173730   4.326   0.075   3.285  1.0713 -1.0680 -0.3261
17413TIP3    H273731   4.355   0.144   3.417 -0.8362 -0.3760 -0.2399
17414TIP3   OH273732   3.448   0.312   4.193 -0.0113 -0.4629  0.4224
17414TIP3    H173733   3.444   0.216   4.195  0.4360 -0.5467 -1.2440
17414TIP3    H273734   3.360   0.340   4.217 -0.3244 -1.3181  0.3048
17415TIP3   OH273735   1.301   2.013  13.818  0.0272 -0.7497  0.3092
17415TIP3    H173736   1.316   2.084  13.880  1.2520 -0.7183  0.0048
17415TIP3    H273737   1.294   2.056  13.733  0.3238 -0.9529  0.1797
17416TIP3   OH273738   2.419   5.380  11.957 -0.2029  0.7259  0.0569
17416TIP3    H173739   2.374   5.296  11.954 -0.2926  0.7364  0.7644
17416TIP3    H273740   2.512   5.358  11.956 -0.1924  0.4962  1.8331
17417TIP3   OH273741   0.169   0.460  16.619 -0.1363  0.7993  0.2379
17417TIP3    H173742   0.264   0.458  16.609 -0.0506 -1.1698  0.9418
17417TIP3    H273743   0.140   0.373  16.591 -2.0875  2.2127 -2.5863
17418TIP3   OH273744   1.284   0.972  15.879 -0.4810 -0.0134  0.5104
17418TIP3    H173745   1.228   0.964  15.801  0.6005  0.3316 -0.3291
17418TIP3    H273746   1.250   1.048  15.926 -0.2985  0.6197 -0.3582
17419TIP3   OH273747   6.234   1.868   4.869 -0.0074  0.2120 -0.5186
17419TIP3    H173748   6.288   1.867   4.790  0.1907 -0.8769 -0.3836
17419TIP3    H273749   6.280   1.928   4.928 -0.4945  1.5278 -1.4364
17420TIP3   OH273750   3.574   3.634  12.754 -0.1255 -0.3019  0.0673
17420TIP3    H173751   3.656   3.637  12.704 -0.0884  0.1044  0.1495
17420TIP3    H273752   3.597   3.592  12.837  0.2172  0.6950  0.4885
17421TIP3   OH273753   3.677   1.807  15.340 -0.3610  0.2190  0.2906
17421TIP3    H173754   3.641   1.804  15.251 -1.2191 -1.9919  0.6562
17421TIP3    H273755   3.636   1.734  15.386  0.4618  0.9730  2.3812
17422TIP3   OH273756   1.176   4.650  15.920 -0.2673  0.4026  0.0677
17422TIP3    H173757   1.212   4.563  15.938 -1.5347 -0.1247  0.2116
17422TIP3    H273758   1.081   4.637  15.920 -0.4473  1.4598 -1.6754
17423TIP3   OH273759   0.812   4.063  16.922  0.1440 -0.0491 -0.0458
17423TIP3    H173760   0.725   4.079  16.960 -0.1470 -0.6282 -0.4516
17423TIP3    H273761   0.794   4.012  16.843  0.9604 -1.5475  0.6946
17424TIP3   OH273762   2.812   5.323   1.166 -0.4545  0.0451 -0.0911
17424TIP3    H173763   2.763   5.384   1.222 -0.2315 -0.6418  0.8797
17424TIP3    H273764   2.894   5.368   1.147 -1.0213  0.7942 -0.9143
17425TIP3   OH273765   4.882   4.849   1.093  0.4938  1.0630 -0.8982
17425TIP3    H173766   4.811   4.786   1.079 -0.5164  2.5668 -3.2443
17425TIP3    H273767   4.864   4.889   1.178  0.5495 -0.9734  0.1225
17426TIP3   OH273768   2.389   5.825   0.365  0.1286  0.0188  0.6404
17426TIP3    H173769   2.329   5.821   0.290  0.1920 -2.5515  0.6623
17426TIP3    H273770   2.441   5.904   0.349  0.0086 -0.3345 -1.9525
17427TIP3   OH273771   2.860   4.851   1.398 -0.1128  0.2187  0.1352
17427TIP3    H173772   2.837   4.931   1.445 -0.7591 -1.8963  3.8767
17427TIP3    H273773   2.798   4.786   1.431  2.5892 -2.6164  0.0422
17428TIP3   OH273774   1.105   1.626   5.440 -0.0380 -0.4874 -0.2014
17428TIP3    H173775   1.114   1.534   5.466 -1.2617 -0.7089 -0.4721
17428TIP3    H273776   1.194   1.659   5.435  0.3720 -1.1629  1.6969
17429TIP3   OH273777   6.399   3.755  11.434  0.4462  0.1655  0.5833
17429TIP3    H173778   6.329   3.816  11.412  0.4497 -0.5278 -1.5704
17429TIP3    H273779   6.480   3.805  11.423  0.3920  0.1558  0.1095
17430TIP3   OH273780   4.717   6.094   6.687  0.2313 -0.6478 -0.1365
17430TIP3    H173781   4.651   6.114   6.754  0.3405  1.6155 -0.6270
17430TIP3    H273782   4.746   6.005   6.708 -3.0940 -1.8435 -0.0376
17431TIP3   OH273783   6.822   1.780   3.669  0.3275  0.2508  0.5348
17431TIP3    H173784   6.768   1.702   3.678  0.3668  0.3027  1.2967
17431TIP3    H273785   6.912   1.748   3.668  0.2988  0.1694 -0.6777
17432TIP3   OH273786   4.184   5.220   0.964 -0.3234 -0.0921  0.2608
17432TIP3    H173787   4.277   5.232   0.948 -0.3092 -0.4495  0.0523
17432TIP3    H273788   4.165   5.133   0.928 -0.6752 -0.1430  0.5582
17433TIP3   OH273789   6.670   3.199   3.957  0.2767  0.3092  0.4896
17433TIP3    H173790   6.654   3.114   3.999  1.7258 -0.7147 -0.8857
17433TIP3    H273791   6.705   3.254   4.027  0.1931 -0.5309  1.2076
17434TIP3   OH273792   6.627   5.980  16.579 -0.4660  0.3264 -0.1484
17434TIP3    H173793   6.657   5.933  16.656 -1.1932  1.6767  0.9971
17434TIP3    H273794   6.691   6.049  16.566 -2.1214  2.2708  1.3927
17435TIP3   OH273795   4.152   2.000  11.792  0.1329  0.5554 -0.1433
17435TIP3    H173796   4.175   1.947  11.716 -0.1224  0.6358 -0.2759
17435TIP3    H273797   4.233   2.004  11.843 -0.0199 -0.4772  0.1869
17436TIP3   OH273798   0.968   6.014  16.523 -0.3725  0.1009 -0.7279
17436TIP3    H173799   0.890   5.963  16.546 -0.7234  0.7799 -0.4072
17436TIP3    H273800   1.024   5.951  16.477 -0.8652 -0.5384 -0.4732
17437TIP3   OH273801   0.566   1.357  14.544 -0.1933  0.3052 -0.9127
17437TIP3    H173802   0.640   1.378  14.486 -1.2989  2.4718 -1.6636
17437TIP3    H273803   0.582   1.410  14.622 -0.3464 -0.1627 -0.5597
17438TIP3   OH273804   5.261   6.306  12.659 -0.6583  0.1738  0.0942
17438TIP3    H173805   5.275   6.378  12.721  1.5430 -0.3349  0.2588
17438TIP3    H273806   5.244   6.230  12.714 -1.7010  0.2953 -0.0432
17439TIP3   OH273807   5.817   5.845  16.958 -0.0130  0.0056  0.2121
17439TIP3    H173808   5.816   5.862  17.053 -2.5834 -1.0092  0.4473
17439TIP3    H273809   5.825   5.932  16.919  2.0076  0.3872  1.2883
17440TIP3   OH273810   0.291   0.739   0.387 -0.1770  0.3121  0.4665
17440TIP3    H173811   0.308   0.649   0.415  0.6971 -0.1247 -1.2938
17440TIP3    H273812   0.255   0.729   0.299 -1.1495  1.6560  0.7000
17441TIP3   OH273813   6.233   6.000   3.837  0.0162  0.2931  0.1387
17441TIP3    H173814   6.237   5.967   3.927  1.7873  0.5797  0.1879
17441TIP3    H273815   6.180   5.935   3.790  0.6645 -0.8667  0.9661
17442TIP3   OH273816   5.293   4.504   6.447  0.4514 -0.3420 -0.0370
17442TIP3    H173817   5.350   4.467   6.515  0.3881  1.2359  0.9486
17442TIP3    H273818   5.278   4.594   6.476 -1.0889 -0.1811 -1.2207
17443TIP3   OH273819   5.781   4.538  16.812  0.1341  0.2117 -0.0439
17443TIP3    H173820   5.874   4.559  16.824 -0.0505  1.7250 -1.0065
17443TIP3    H273821   5.737   4.623  16.811 -1.0779 -0.3863 -1.0370
17444TIP3   OH273822   4.952   0.879  12.271  0.7827  0.3125 -0.6510
17444TIP3    H173823   4.865   0.838  12.267 -0.3188  2.5569 -1.8600
17444TIP3    H273824   4.993   0.841  12.348 -3.3161  2.8574  3.3388
17445TIP3   OH273825   1.826   6.266   1.914 -0.1001  0.1808  0.5863
17445TIP3    H173826   1.787   6.252   2.000  1.0835 -1.5083  0.9003
17445TIP3    H273827   1.777   6.339   1.877 -0.8771  0.7121  2.5385
17446TIP3   OH273828   0.350   1.063  12.554 -0.4093 -0.2060 -0.2278
17446TIP3    H173829   0.425   1.008  12.576  0.3227  1.2612  1.2726
17446TIP3    H273830   0.344   1.060  12.459  2.5027  0.7390 -0.5437
17447TIP3   OH273831   5.356   0.578  16.479 -0.3901 -0.4253 -0.0578
17447TIP3    H173832   5.352   0.510  16.547 -0.0478  0.0828  0.4835
17447TIP3    H273833   5.442   0.566  16.438 -0.1862 -0.1177  0.2665
17448TIP3   OH273834   2.905   1.456  14.428  0.2066 -0.2154  0.1893
17448TIP3    H173835   2.917   1.542  14.389 -1.0492  0.6681  1.6284
17448TIP3    H273836   2.977   1.448  14.491  0.3215 -0.2264  0.0574
17449TIP3   OH273837   4.485   0.569  12.667  0.2522  0.1165  0.5340
17449TIP3    H173838   4.455   0.612  12.587  1.1689  1.6174  0.9352
17449TIP3    H273839   4.406   0.532  12.706 -0.6748  1.7148  0.2778
17450TIP3   OH273840   3.744   6.743   1.255 -0.0173  0.0787  0.0583
17450TIP3    H173841   3.803   6.791   1.196 -1.9985  0.0402 -2.0578
17450TIP3    H273842   3.785   6.753   1.342  1.8672  1.9727 -0.9501
17451TIP3   OH273843   1.771   0.714   1.669 -0.0634  0.2806  0.0198
17451TIP3    H173844   1.715   0.730   1.593 -0.0208  0.5033  0.0360
17451TIP3    H273845   1.756   0.622   1.690 -1.2377  0.6053  0.6777
17452TIP3   OH273846   1.233   6.051   4.223 -0.2738  0.2740 -0.7949
17452TIP3    H173847   1.265   6.084   4.307 -1.2740  0.1572 -0.3619
17452TIP3    H273848   1.311   6.015   4.181  0.3232  0.7418 -0.1180
17453TIP3   OH273849   4.227   1.356   1.810  0.2083  0.1480 -0.1053
17453TIP3    H173850   4.254   1.363   1.901 -1.0014  0.1449  0.2725
17453TIP3    H273851   4.134   1.378   1.811 -0.1429 -1.1778 -1.1386
17454TIP3   OH273852   6.829   1.661  11.663  0.7158 -0.0694 -0.0282
17454TIP3    H173853   6.807   1.598  11.594  1.0426 -0.8727  0.5830
17454TIP3    H273854   6.758   1.725  11.661  0.7732 -0.0323 -1.1672
17455TIP3   OH273855   3.359   1.449  16.600 -0.2635  0.7376 -0.9525
17455TIP3    H173856   3.439   1.495  16.623 -0.1265  0.5937 -1.1442
17455TIP3    H273857   3.365   1.365  16.646 -0.6862  1.0579 -0.2932
17456TIP3   OH273858   4.291   4.656  13.934  0.2634 -0.1848  0.1962
17456TIP3    H173859   4.199   4.648  13.908  0.3936 -1.3716  0.0078
17456TIP3    H273860   4.290   4.710  14.013 -0.5243  0.3509 -0.1659
17457TIP3   OH273861   3.472   3.091   0.393  0.0761  0.1900  0.6731
17457TIP3    H173862   3.459   3.042   0.474 -2.7926  1.6513  1.2376
17457TIP3    H273863   3.386   3.090   0.351  1.1512  0.6822 -1.6714
17458TIP3   OH273864   5.187   5.682   3.636 -0.3553  0.1034  0.6890
17458TIP3    H173865   5.233   5.630   3.569 -1.2977  1.1137 -0.7968
17458TIP3    H273866   5.108   5.713   3.592 -0.8027  1.1526  2.1633
17459TIP3   OH273867   1.303   4.885  12.436 -0.2308 -0.1867  0.0275
17459TIP3    H173868   1.377   4.830  12.407  1.1504  2.1307 -1.0930
17459TIP3    H273869   1.342   4.949  12.495 -1.2625  1.3403 -0.8965
17460TIP3   OH273870   5.635   4.419  15.342  0.1768 -0.3935 -0.3139
17460TIP3    H173871   5.605   4.498  15.387 -1.7773 -0.7974 -0.7841
17460TIP3    H273872   5.717   4.444  15.300 -0.3193  1.3282 -0.3091
17461TIP3   OH273873   1.561   5.834   0.747 -0.5587 -0.2086  0.3107
17461TIP3    H173874   1.529   5.831   0.657  1.4717 -0.9791 -0.4473
17461TIP3    H273875   1.637   5.893   0.743  0.2616 -1.1544  1.2462
17462TIP3   OH273876   2.400   6.748  14.714  0.5985 -0.4702 -0.0034
17462TIP3    H173877   2.457   6.731  14.638  0.6704  0.7067 -0.2261
17462TIP3    H273878   2.324   6.692  14.699  1.1300 -1.1358 -0.3344
17463TIP3   OH273879   2.944   2.010  11.207  0.1849  0.0365  0.0171
17463TIP3    H173880   2.987   1.995  11.123  0.3761  0.4321  0.0369
17463TIP3    H273881   2.867   2.062  11.186 -0.4811 -0.9677 -0.0567
17464TIP3   OH273882   6.646   0.956   0.584  0.5183 -0.2072  0.7730
17464TIP3    H173883   6.568   0.920   0.542 -1.2615  1.7674  2.1862
17464TIP3    H273884   6.629   0.946   0.678  1.9645  0.2940  1.1155
17465TIP3   OH273885   4.310   4.602  13.109 -0.3708 -0.2157 -0.5245
17465TIP3    H173886   4.332   4.691  13.081 -0.9374  0.2036  0.3358
17465TIP3    H273887   4.390   4.570  13.151 -0.1706 -0.1111 -0.8189
17466TIP3   OH273888   5.324   1.385  16.338  0.2780  0.2491 -0.2866
17466TIP3    H173889   5.267   1.312  16.314  0.9259 -0.6102  0.6964
17466TIP3    H273890   5.404   1.371  16.286  1.1405 -0.8358  1.2749
17467TIP3   OH273891   5.256   4.958  11.217 -0.3569 -0.0087 -0.1764
17467TIP3    H173892   5.235   4.992  11.130  0.2478  0.3132 -0.2055
17467TIP3    H273893   5.199   4.882  11.228 -1.7544  0.9931 -0.1185
17468TIP3   OH273894   4.042   6.427  12.723  0.0515  0.7076  0.8175
17468TIP3    H173895   4.010   6.514  12.696 -0.1379  0.8727  1.5522
17468TIP3    H273896   3.980   6.399  12.790  0.0861 -0.0236  0.5488
17469TIP3   OH273897   2.637   6.743   4.746  0.3935 -0.1767 -0.2401
17469TIP3    H173898   2.565   6.789   4.791 -0.1375 -0.5737 -0.6706
17469TIP3    H273899   2.693   6.711   4.817  0.0890  0.0488  0.1045
17470TIP3   OH273900   1.548   5.602   5.847 -0.3038  0.4387 -0.3332
17470TIP3    H173901   1.543   5.694   5.873 -2.0191  0.6074 -1.1416
17470TIP3    H273902   1.633   5.572   5.880 -0.1114  2.0605  0.7273
17471TIP3   OH273903   1.227   6.590  14.525  0.1543 -0.2774 -0.6282
17471TIP3    H173904   1.147   6.642  14.522  0.6598  0.6814  1.2560
17471TIP3    H273905   1.273   6.613  14.444 -0.0564  1.5297 -0.2770
17472TIP3   OH273906   4.745   4.836  12.346  0.9255 -0.1764 -0.6218
17472TIP3    H173907   4.811   4.767  12.340 -0.9419 -2.1066 -0.3184
17472TIP3    H273908   4.702   4.836  12.261  0.8870  0.5887 -0.6032
17473TIP3   OH273909   2.111   6.022   3.092 -0.4431  0.5056  0.5538
17473TIP3    H173910   2.050   6.092   3.116  0.2781  0.2873  3.3878
17473TIP3    H273911   2.054   5.949   3.069 -1.2038  1.5640 -1.1443
17474TIP3   OH273912   5.926   3.211  10.706 -0.2271  0.3430  0.3683
17474TIP3    H173913   5.867   3.235  10.635  0.1653  0.2410  0.0002
17474TIP3    H273914   5.877   3.148  10.758 -0.0827 -0.5191 -0.5089
17475TIP3   OH273915   6.597   0.992  11.915  0.8746  0.1299 -0.0633
17475TIP3    H173916   6.546   1.006  11.995  1.6225 -1.0213  0.6481
17475TIP3    H273917   6.683   0.963  11.946  2.0850  2.1690 -1.2121
17476TIP3   OH273918   0.661   6.162  16.318  0.1468  0.6112  0.1221
17476TIP3    H173919   0.618   6.078  16.335  0.0646  0.6708  0.2043
17476TIP3    H273920   0.651   6.211  16.399  2.1225 -0.1212  0.8918
17477TIP3   OH273921   3.139   0.990  15.699 -0.3183  0.5061  0.1732
17477TIP3    H173922   3.081   0.963  15.770 -1.5522  1.2950 -0.5014
17477TIP3    H273923   3.183   1.068  15.732 -0.4109  0.5061  0.2949
17478TIP3   OH273924   2.304   0.292  13.029  0.1028  0.2597 -0.3069
17478TIP3    H173925   2.295   0.198  13.048  0.0797  0.2474 -0.3815
17478TIP3    H273926   2.293   0.334  13.114 -0.1847  0.2164 -0.3231
17479TIP3   OH273927   0.969   5.659  15.316 -0.6347 -0.3325  0.3249
17479TIP3    H173928   0.881   5.666  15.278 -1.2312 -0.6443  1.5838
17479TIP3    H273929   0.961   5.590  15.382 -0.1363  1.3604  2.2577
17480TIP3   OH273930   4.466   2.487   1.744  0.4447 -0.0542  0.0166
17480TIP3    H173931   4.507   2.436   1.814  0.1854 -1.4598 -0.7984
17480TIP3    H273932   4.463   2.576   1.777  0.0529 -0.7250  1.9105
17481TIP3   OH273933   4.122   3.136   1.250  0.6784 -0.0416 -0.2298
17481TIP3    H173934   4.105   3.187   1.329  0.3923 -0.3585 -0.0852
17481TIP3    H273935   4.114   3.045   1.278 -1.5284 -0.1613 -1.0742
17482TIP3   OH273936   2.514   4.905   4.124 -0.2241  0.4105 -0.3609
17482TIP3    H173937   2.579   4.859   4.072 -0.3272  1.7334 -1.7268
17482TIP3    H273938   2.565   4.953   4.189 -0.0092 -0.2959  0.0015
17483TIP3   OH273939   3.583   5.635  14.939  0.4479  0.1141 -0.2113
17483TIP3    H173940   3.531   5.576  14.884  0.1700  0.3639 -0.2263
17483TIP3    H273941   3.521   5.667  15.005  0.8681 -0.4435  0.4574
17484TIP3   OH273942   5.501   5.798   0.957 -0.3707  0.0543 -0.2535
17484TIP3    H173943   5.472   5.712   0.927  1.1285 -1.1849  1.6019
17484TIP3    H273944   5.488   5.795   1.052  3.1600  0.3499  0.3825
17485TIP3   OH273945   0.939   2.405   3.433 -0.2814  0.4245  0.1311
17485TIP3    H173946   0.929   2.311   3.413 -0.4616 -0.0056  2.1013
17485TIP3    H273947   1.017   2.409   3.489 -1.3973  1.1834  1.6805
17486TIP3   OH273948   6.042   5.514  13.317  0.2223  0.2010 -0.2067
17486TIP3    H173949   6.059   5.571  13.391 -0.0708  0.8224 -0.6144
17486TIP3    H273950   6.001   5.570  13.252  0.9990 -0.2081 -1.0705
17487TIP3   OH273951   4.105   0.839   2.457 -0.1241  0.3222  0.0599
17487TIP3    H173952   4.101   0.765   2.517  1.1265  0.5876  0.5069
17487TIP3    H273953   4.158   0.808   2.384  0.7128  0.8633  0.4172
17488TIP3   OH273954   6.129   1.322  13.031 -0.2726 -0.0640 -1.0597
17488TIP3    H173955   6.155   1.414  13.041  2.5455 -0.8889  0.5854
17488TIP3    H273956   6.045   1.316  13.076  0.3568  1.3822  0.4256
17489TIP3   OH273957   1.936   5.836   5.313  0.1701  0.1895  0.2882
17489TIP3    H173958   1.843   5.834   5.335  0.6129  0.1261  2.4253
17489TIP3    H273959   1.963   5.926   5.330  0.1212  0.7415 -2.2819
17490TIP3   OH273960   0.156   3.337   4.603  0.5337 -0.3683 -0.1912
17490TIP3    H173961   0.138   3.282   4.527 -0.5593 -3.5431  2.1547
17490TIP3    H273962   0.070   3.353   4.642  1.1737 -0.0436  1.1589
17491TIP3   OH273963   6.222   1.418  15.386 -0.1704 -0.5716  0.5536
17491TIP3    H173964   6.226   1.344  15.326  0.0422 -0.0287 -0.1255
17491TIP3    H273965   6.268   1.488  15.339 -1.5166  0.3800  0.6089
17492TIP3   OH273966   3.718   0.316   4.229  0.0451 -0.0888 -0.1536
17492TIP3    H173967   3.633   0.297   4.268 -1.5071  2.2210 -2.1488
17492TIP3    H273968   3.708   0.295   4.136  1.2759  1.2112 -0.6230
17493TIP3   OH273969   2.234   6.422  11.864  0.1327  0.1110  0.4112
17493TIP3    H173970   2.260   6.380  11.782  0.9513  1.6951 -0.1880
17493TIP3    H273971   2.149   6.460  11.845  0.7489  1.3074 -0.0464
17494TIP3   OH273972   0.474   5.774  13.809 -0.1812  0.3008  0.8661
17494TIP3    H173973   0.460   5.792  13.902 -0.9228 -0.1174  0.8454
17494TIP3    H273974   0.392   5.735  13.780  0.4327 -0.6028  0.2917
17495TIP3   OH273975   3.844   5.853  14.919  0.6669  0.1907  0.3209
17495TIP3    H173976   3.850   5.759  14.935 -2.1166 -0.0315  0.5353
17495TIP3    H273977   3.814   5.890  15.002 -0.8853  0.8617 -0.5037
17496TIP3   OH273978   4.712   6.325  13.848 -0.0693  0.2946  0.2714
17496TIP3    H173979   4.709   6.386  13.921  0.0737 -0.1654  0.6629
17496TIP3    H273980   4.682   6.242  13.884  0.3583 -0.0287 -0.0981
17497TIP3   OH273981   2.307   2.164   6.163  0.1243  0.9042  0.1396
17497TIP3    H173982   2.371   2.093   6.174 -0.3075 -0.0005 -2.5514
17497TIP3    H273983   2.359   2.238   6.131 -0.0867  0.0853 -2.3233
17498TIP3   OH273984   1.421   3.670   4.527 -0.1923  0.1004 -0.3018
17498TIP3    H173985   1.492   3.666   4.591 -1.8832 -1.7986  1.5931
17498TIP3    H273986   1.396   3.579   4.513 -2.5710  0.7287 -0.5388
17499TIP3   OH273987   1.814   1.086  14.740 -0.2856  0.3637 -0.7915
17499TIP3    H173988   1.904   1.117  14.745 -0.4385  0.8488 -1.0774
17499TIP3    H273989   1.822   0.994  14.713  0.0374  1.0127 -3.0205
17500TIP3   OH273990   1.704   3.781  16.486  0.7804  0.4105  0.4417
17500TIP3    H173991   1.703   3.709  16.548 -0.8040  0.9058  1.0298
17500TIP3    H273992   1.659   3.748  16.408 -0.6401  0.9541  0.9929
17501TIP3   OH273993   5.582   4.996   3.022 -0.3622 -0.2712 -0.2591
17501TIP3    H173994   5.602   5.089   3.035 -1.4016 -0.1560  0.6802
17501TIP3    H273995   5.617   4.976   2.935 -1.7499  1.4823 -1.2900
17502TIP3   OH273996   2.133   0.495   3.895  0.1224 -0.5005  0.0469
17502TIP3    H173997   2.143   0.423   3.833 -0.7537  0.2112 -0.9534
17502TIP3    H273998   2.045   0.483   3.931  0.6456 -0.9479  1.2445
17503TIP3   OH273999   1.993   1.192   5.485 -0.5932 -0.4561  0.1461
17503TIP3    H174000   1.902   1.215   5.468 -0.1944  1.9809  0.9673
17503TIP3    H274001   1.993   1.152   5.572 -0.8719 -0.4521  0.1469
17504TIP3   OH274002   4.278   0.679  11.176  0.1456 -0.4809  0.4401
17504TIP3    H174003   4.363   0.640  11.198  0.9304  0.3980 -0.9094
17504TIP3    H274004   4.267   0.659  11.083  0.2384  1.8411 -0.1154
17505TIP3   OH274005   1.250   4.917  12.936  0.4542  0.1714 -0.7210
17505TIP3    H174006   1.297   4.998  12.917 -1.2401  1.1931 -0.7133
17505TIP3    H274007   1.213   4.891  12.852 -0.7869  0.5947 -0.3241
17506TIP3   OH274008   1.119   3.676  17.149 -0.1808 -0.0990  0.1744
17506TIP3    H174009   1.092   3.760  17.112 -1.2700 -1.4698 -2.4343
17506TIP3    H274010   1.037   3.627  17.158  0.5923 -1.4653  0.0055
17507TIP3   OH274011   2.651   4.548   1.113 -0.4975  0.0143  0.2338
17507TIP3    H174012   2.705   4.522   1.038  1.6691 -0.0295  1.7232
17507TIP3    H274013   2.659   4.644   1.116  0.5851 -0.0927  1.2051
17508TIP3   OH274014   5.524   2.635   0.173 -0.3362  0.2199  0.4711
17508TIP3    H174015   5.513   2.593   0.087 -1.1957 -0.6126  0.9696
17508TIP3    H274016   5.601   2.691   0.163 -0.2565 -0.0875 -0.7585
17509TIP3   OH274017   2.713   1.700   5.925  1.0033  0.0429  0.0474
17509TIP3    H174018   2.664   1.729   6.002  0.3817  0.5976 -0.5372
17509TIP3    H274019   2.792   1.660   5.960  1.7743  2.2033  0.9456
17510TIP3   OH274020   4.831   4.666   0.780  0.1581 -0.1149 -0.3136
17510TIP3    H174021   4.799   4.739   0.726  1.9803  1.6339  0.8372
17510TIP3    H274022   4.858   4.600   0.716 -0.4551  0.6773 -1.4405
17511TIP3   OH274023   6.441   4.309  10.450 -0.4273 -0.2263  0.2251
17511TIP3    H174024   6.434   4.215  10.432  1.6071 -0.2594 -0.6434
17511TIP3    H274025   6.534   4.323  10.468 -0.6896  1.6273  0.3061
17512TIP3   OH274026   3.689   0.656   5.779 -0.3527  0.1679  0.5416
17512TIP3    H174027   3.625   0.719   5.812  1.1452  2.5389 -0.7983
17512TIP3    H274028   3.766   0.670   5.835  0.2572  0.0928 -0.2726
17513TIP3   OH274029   0.013   2.792   3.977  0.4381 -0.2645  0.4173
17513TIP3    H174030  -0.067   2.813   4.026  1.3807  0.0533  1.8895
17513TIP3    H274031   0.063   2.874   3.976  1.2016 -0.7183  0.4217
17514TIP3   OH274032   0.652   5.061  16.760  0.3083  0.1059  0.2216
17514TIP3    H174033   0.623   5.152  16.771  1.0200  0.3048  0.5032
17514TIP3    H274034   0.724   5.066  16.697  0.0985 -0.3120 -0.0518
17515TIP3   OH274035   6.568   4.376   5.280 -0.4660 -0.4524 -0.4448
17515TIP3    H174036   6.585   4.454   5.229 -1.3388 -1.1519 -1.8754
17515TIP3    H274037   6.654   4.333   5.289 -0.5889 -1.7031 -3.7563
17516TIP3   OH274038   6.043   4.688  16.306 -0.5935  0.3269  0.0069
17516TIP3    H174039   6.129   4.723  16.282 -0.8444  0.6059 -0.5082
17516TIP3    H274040   5.991   4.765  16.328 -0.6319  0.1363  0.5951
17517TIP3   OH274041   5.877   6.242   0.377 -0.0565 -0.4316  0.1115
17517TIP3    H174042   5.788   6.266   0.352 -0.5788 -1.3918  0.9883
17517TIP3    H274043   5.899   6.299   0.450  0.2448  0.1290 -0.4022
17518TIP3   OH274044   1.756   4.069  14.462 -0.2057  0.3190 -0.2826
17518TIP3    H174045   1.762   3.975  14.445  1.4767  0.5104 -0.9302
17518TIP3    H274046   1.722   4.106  14.381 -2.5435  0.1329  0.5460
17519TIP3   OH274047   0.493   5.495  13.385 -0.5906  1.1849 -0.2417
17519TIP3    H174048   0.410   5.453  13.409 -0.8919  1.1031 -1.3618
17519TIP3    H274049   0.488   5.505  13.290  0.5941  1.3937 -0.2947
17520TIP3   OH274050   0.813   3.437   2.857  0.3595 -0.1444  0.1055
17520TIP3    H174051   0.872   3.507   2.829  0.2460 -0.1275 -0.0997
17520TIP3    H274052   0.800   3.385   2.777 -0.0726 -0.0225  0.0955
17521TIP3   OH274053   0.741   6.500   3.787 -0.2325 -0.0865  0.1949
17521TIP3    H174054   0.726   6.427   3.846  0.8111 -0.3072  0.1956
17521TIP3    H274055   0.729   6.463   3.699 -0.6336 -0.0271  0.2203
17522TIP3   OH274056   5.750   3.181   0.855  0.3869 -0.1842 -1.0286
17522TIP3    H174057   5.815   3.231   0.904 -1.6568  0.9529  0.6628
17522TIP3    H274058   5.741   3.230   0.772  0.4338  0.6438 -0.5598
17523TIP3   OH274059   0.993   4.008   4.183  0.0123 -0.2340  0.3157
17523TIP3    H174060   1.067   4.068   4.192 -0.7160  0.4688  2.1155
17523TIP3    H274061   1.007   3.941   4.250  0.1729 -1.4136 -0.8509
17524TIP3   OH274062   2.396   3.147  16.886  0.0156 -0.7275 -0.0083
17524TIP3    H174063   2.359   3.235  16.887  0.6773 -0.4475  0.5442
17524TIP3    H274064   2.327   3.092  16.849  0.1064  0.2289 -1.7014
17525TIP3   OH274065   0.362   2.096  11.145  0.1145  0.4398  0.3171
17525TIP3    H174066   0.388   2.177  11.189  1.8527 -0.1466  0.4443
17525TIP3    H274067   0.352   2.032  11.215 -3.0631  0.9114  0.4187
17526TIP3   OH274068   6.168   3.458   6.118  0.4921 -0.2622 -0.0501
17526TIP3    H174069   6.185   3.473   6.211  1.4194  0.5219 -0.3219
17526TIP3    H274070   6.173   3.546   6.079  0.1285 -0.5849 -0.8375
17527TIP3   OH274071   0.291   5.762  15.253 -0.7604  1.0535 -0.4414
17527TIP3    H174072   0.299   5.759  15.348  0.3597 -0.7017 -0.5315
17527TIP3    H274073   0.228   5.693  15.232  0.3001  0.2284 -1.0348
17528TIP3   OH274074   4.632   5.990   2.779 -0.1360  0.0478 -0.0406
17528TIP3    H174075   4.606   5.930   2.709  0.0018  0.3364 -0.3408
17528TIP3    H274076   4.723   6.013   2.758  0.7257 -1.6573  1.4666
17529TIP3   OH274077   4.288   2.363   1.538  0.0574 -0.4131  0.4082
17529TIP3    H174078   4.353   2.429   1.563  0.5404 -0.3811 -0.8572
17529TIP3    H274079   4.340   2.284   1.520 -0.5553 -1.3411  2.3990
17530TIP3   OH274080   1.107   1.342   6.031 -0.5630 -0.6259 -0.1897
17530TIP3    H174081   1.021   1.368   6.000 -1.2593 -1.1638  1.2030
17530TIP3    H274082   1.089   1.278   6.100  0.8651  0.6587  1.4774
17531TIP3   OH274083   0.896   1.405  11.721 -0.0844  0.2716  0.4718
17531TIP3    H174084   0.870   1.331  11.776 -1.0799  2.2873  2.8891
17531TIP3    H274085   0.976   1.439  11.761 -0.3864  1.3254  0.2208
17532TIP3   OH274086   2.819   4.127   4.292  0.0073 -0.2797  0.4912
17532TIP3    H174087   2.782   4.195   4.349  0.7261  0.5314  0.0130
17532TIP3    H274088   2.879   4.078   4.349  0.4539  0.3025  0.5293
17533TIP3   OH274089   4.833   0.360  10.743 -0.0043  0.0322 -0.4397
17533TIP3    H174090   4.876   0.427  10.797 -0.4562 -0.9165  1.1594
17533TIP3    H274091   4.741   0.386  10.741 -0.1782 -0.5021  0.1717
17534TIP3   OH274092   4.426   0.599   0.753  0.0571  0.1143  0.6573
17534TIP3    H174093   4.455   0.510   0.730 -0.5095  0.0568  0.1690
17534TIP3    H274094   4.453   0.608   0.845  1.3919 -0.0327  0.3142
17535TIP3   OH274095   1.356   2.078  12.850  0.4157  0.0712  0.9070
17535TIP3    H174096   1.288   2.012  12.836  0.1424  0.3713  0.7875
17535TIP3    H274097   1.425   2.056  12.788  0.5144 -0.3506  1.1640
17536TIP3   OH274098   0.164   3.425   0.272 -0.5672  0.1437  0.2419
17536TIP3    H174099   0.085   3.371   0.260  0.1836 -1.0652  0.5668
17536TIP3    H274100   0.236   3.366   0.252  0.2664  1.3081 -0.2866
17537TIP3   OH274101   1.618   6.198  10.765  0.3424  0.2533  0.2256
17537TIP3    H174102   1.624   6.294  10.766 -0.2300  0.3811 -2.1236
17537TIP3    H274103   1.527   6.180  10.740  0.5649 -0.9014  0.1859
17538TIP3   OH274104   3.946   5.838  14.018 -0.3496 -0.3832  0.2550
17538TIP3    H174105   3.908   5.808  14.100 -1.1652 -1.0701 -0.3583
17538TIP3    H274106   3.882   5.900  13.982 -1.1796 -1.8719 -0.9920
17539TIP3   OH274107   1.859   2.248  16.686  0.4430 -0.1935  0.4199
17539TIP3    H174108   1.920   2.309  16.644  0.0236  0.5636  0.8952
17539TIP3    H274109   1.906   2.164  16.685 -0.1266 -0.6114 -2.9044
17540TIP3   OH274110   6.823   0.469   2.152  0.4469  0.5652 -0.5781
17540TIP3    H174111   6.857   0.404   2.213  0.1634  0.1716 -0.8310
17540TIP3    H274112   6.901   0.517   2.122  0.4988  1.3876  0.7700
17541TIP3   OH274113   3.184   3.651   0.139  0.1189  0.3462 -0.7218
17541TIP3    H174114   3.141   3.602   0.208  0.1515 -0.1024 -1.0111
17541TIP3    H274115   3.264   3.601   0.121 -0.4367 -0.1745 -1.8495
17542TIP3   OH274116   3.927   2.268   2.260  0.1072  0.3038 -0.1765
17542TIP3    H174117   3.930   2.212   2.338  0.9157 -1.7259 -1.5548
17542TIP3    H274118   3.846   2.243   2.216 -0.3519  1.4494  0.0059
17543TIP3   OH274119   6.289   2.659  13.954  0.6634  0.1375  0.6103
17543TIP3    H174120   6.315   2.610  13.875  1.8728  0.1149  1.0017
17543TIP3    H274121   6.310   2.600  14.026  0.6169  0.5964  0.9996
17544TIP3   OH274122   5.327   3.093  11.381  0.1867  0.7286  0.1490
17544TIP3    H174123   5.392   3.052  11.439  1.3821 -0.1181 -1.7094
17544TIP3    H274124   5.379   3.140  11.316 -1.1049  1.2720 -0.5172
17545TIP3   OH274125   0.958   1.982  16.817  0.2518 -0.0355 -0.2769
17545TIP3    H174126   0.916   2.009  16.736 -0.3612 -0.2294 -0.0288
17545TIP3    H274127   0.892   1.995  16.885  0.6524 -0.1596  0.1514
17546TIP3   OH274128   3.724   6.161   5.260 -0.1170 -0.1905  0.4173
17546TIP3    H174129   3.661   6.226   5.289 -1.3277 -1.4815  0.8295
17546TIP3    H274130   3.810   6.200   5.277 -0.7607  1.9116 -0.8438
17547TIP3   OH274131   3.133   3.946   5.612  0.5123  0.2078  0.4837
17547TIP3    H174132   3.064   3.991   5.564  1.8202  1.1727 -0.5605
17547TIP3    H274133   3.108   3.854   5.608 -1.5881  0.6721  1.6283
17548TIP3   OH274134   0.340   0.316  15.898  0.4005  0.0826 -0.3310
17548TIP3    H174135   0.400   0.390  15.907 -0.5975  1.0182 -1.1993
17548TIP3    H274136   0.315   0.316  15.806  0.1116 -1.1346 -0.2712
17549TIP3   OH274137   0.616   2.737   3.728 -0.3478  0.1405  0.7595
17549TIP3    H174138   0.649   2.686   3.654 -1.5335  0.0370  0.2889
17549TIP3    H274139   0.681   2.807   3.739  0.3366 -0.4001  0.2422
17550TIP3   OH274140   4.272   2.864  13.030 -0.9983  0.4090  0.3688
17550TIP3    H174141   4.201   2.848  13.092 -1.1818  1.7334  0.5252
17550TIP3    H274142   4.319   2.780  13.025 -2.1438 -0.2789  0.7933
17551TIP3   OH274143   1.838   2.621   6.195 -0.1176  0.7546 -0.0258
17551TIP3    H174144   1.796   2.539   6.220 -0.2461  0.5884 -0.7694
17551TIP3    H274145   1.833   2.675   6.273  1.4326 -0.5256  1.0282
17552TIP3   OH274146   6.330   1.299   3.354 -0.7679 -0.1915  0.1660
17552TIP3    H174147   6.326   1.389   3.322  1.1135  0.5235  1.7436
17552TIP3    H274148   6.330   1.307   3.449 -0.0269 -1.8250  0.3411
17553TIP3   OH274149   6.083   2.125   5.040  0.2216  0.8704  0.2858
17553TIP3    H174150   6.033   2.049   5.010  0.8726  0.0159  1.2963
17553TIP3    H274151   6.029   2.164   5.108  0.3875  0.6414  0.5522
17554TIP3   OH274152   6.009   5.945  14.293 -0.3102 -0.1822  0.3058
17554TIP3    H174153   6.036   6.034  14.315 -0.9371 -0.4692  2.5577
17554TIP3    H274154   5.914   5.945  14.300 -0.4126 -0.7557 -0.8765
17555TIP3   OH274155   5.570   0.451   6.886  0.3670 -0.0828 -0.4181
17555TIP3    H174156   5.655   0.487   6.909 -0.4591  0.3658  2.2341
17555TIP3    H274157   5.510   0.525   6.889 -0.5289 -0.8096  0.2775
17556TIP3   OH274158   3.502   1.964  14.709  0.1908 -0.6132 -0.1769
17556TIP3    H174159   3.488   1.979  14.802 -0.0577  1.9347 -0.5570
17556TIP3    H274160   3.596   1.970  14.697  0.0602  1.9698 -0.4391
17557TIP3   OH274161   4.489   2.015  10.454  0.4454 -0.0915  0.4218
17557TIP3    H174162   4.494   2.009  10.549 -0.8335 -0.3876  0.4895
17557TIP3    H274163   4.396   2.004  10.434  0.6282  0.4546 -0.8327
17558TIP3   OH274164   2.156   1.419   3.438 -0.6943  0.6007  0.0622
17558TIP3    H174165   2.133   1.512   3.447 -1.4828  0.3714  0.4788
17558TIP3    H274166   2.075   1.372   3.456  0.1940 -0.2685  2.1845
17559TIP3   OH274167   4.549   2.266   2.628 -0.3389 -0.2296 -0.0452
17559TIP3    H174168   4.574   2.355   2.604  0.5584 -0.2801  0.6815
17559TIP3    H274169   4.599   2.247   2.707 -0.5466 -1.3682 -0.1713
17560TIP3   OH274170   2.998   1.703  12.829 -0.1963  0.8255  0.6562
17560TIP3    H174171   2.914   1.727  12.869 -1.8533  1.3330 -2.7865
17560TIP3    H274172   3.062   1.758  12.873 -1.6047  0.5002  3.3417
17561TIP3   OH274173   3.155   1.875  14.829 -0.3201 -0.0471 -0.2937
17561TIP3    H174174   3.179   1.788  14.797 -0.9562 -0.2961 -0.1054
17561TIP3    H274175   3.100   1.912  14.760 -2.0434 -0.7502  0.6618
17562TIP3   OH274176   2.374   2.756  15.443 -0.5663  0.2087  0.2772
17562TIP3    H174177   2.451   2.807  15.464 -1.3547  1.6729 -0.2714
17562TIP3    H274178   2.399   2.665  15.462  2.1056  0.3032 -2.1122
17563TIP3   OH274179   0.133   6.287  11.850 -0.0237 -0.5044  0.0061
17563TIP3    H174180   0.167   6.354  11.909  0.6268 -0.2591 -0.6273
17563TIP3    H274181   0.048   6.321  11.822 -0.6156 -0.9071  1.2501
17564TIP3   OH274182   2.557   5.727  17.149 -0.7480  0.2697  0.0176
17564TIP3    H174183   2.573   5.691  17.236 -0.1027 -1.1385 -0.6517
17564TIP3    H274184   2.479   5.781  17.159 -1.5051 -0.9902  1.1779
17565TIP3   OH274185   5.279   3.015   0.408 -0.5576  0.5488  0.5760
17565TIP3    H174186   5.254   3.084   0.470  0.4141 -0.3526  2.0606
17565TIP3    H274187   5.375   3.014   0.411 -0.5532 -0.7657  0.4886
17566TIP3   OH274188   4.899   4.128  16.930 -0.3345 -0.1126  0.0489
17566TIP3    H174189   4.809   4.147  16.957 -0.4300  0.5753 -0.6939
17566TIP3    H274190   4.915   4.190  16.858  1.1020  0.5227  0.8823
17567TIP3   OH274191   0.399   4.844   3.991  0.3682 -0.1622 -0.2182
17567TIP3    H174192   0.481   4.798   3.973 -0.7411 -2.1336 -0.5920
17567TIP3    H274193   0.412   4.932   3.956  1.3062 -1.3049 -3.0212
17568TIP3   OH274194   2.963   4.685  13.754 -0.3814  0.4180 -0.2549
17568TIP3    H174195   3.024   4.618  13.785 -0.9594  0.9008  2.0607
17568TIP3    H274196   3.003   4.717  13.673  0.8848 -1.3546 -0.3945
17569TIP3   OH274197   6.489   2.065   3.200  0.2655  0.7807 -0.2579
17569TIP3    H174198   6.422   2.013   3.246  2.3649 -0.9901  1.0174
17569TIP3    H274199   6.466   2.056   3.107 -1.3802  0.4387  0.1437
17570TIP3   OH274200   1.864   5.323  17.006 -0.2685 -0.0416  0.7921
17570TIP3    H174201   1.855   5.236  17.046  0.8020 -0.0719  0.9910
17570TIP3    H274202   1.833   5.383  17.073  2.0762 -0.0447  1.9852
17571TIP3   OH274203   6.287   4.406  16.242  0.0821 -0.0451 -0.6260
17571TIP3    H174204   6.304   4.499  16.234  1.7316 -0.2322  0.2256
17571TIP3    H274205   6.210   4.390  16.187 -0.3987  1.8469 -0.5525
17572TIP3   OH274206   1.567   2.814  16.205  0.1435 -0.3350  0.0186
17572TIP3    H174207   1.473   2.824  16.188  0.2716  3.0964  0.7610
17572TIP3    H274208   1.580   2.850  16.292  2.2214 -0.3244 -0.2551
17573TIP3   OH274209   3.504   1.314  11.895 -0.7612 -0.7352 -0.2035
17573TIP3    H174210   3.449   1.238  11.877 -0.3762 -1.5976  1.9942
17573TIP3    H274211   3.592   1.288  11.866 -0.8294 -0.7010 -0.4445
17574TIP3   OH274212   0.940   2.798   3.118  0.1928 -0.1918  1.0261
17574TIP3    H174213   0.943   2.847   3.036  2.7913  0.8479  1.6265
17574TIP3    H274214   1.023   2.751   3.121 -0.1993 -0.8748  2.6901
17575TIP3   OH274215   2.815   6.648  15.740 -0.4879  0.0145 -0.1936
17575TIP3    H174216   2.857   6.660  15.655  1.3221  0.5674  0.7206
17575TIP3    H274217   2.871   6.585  15.786 -1.0769  0.1879  0.8009
17576TIP3   OH274218   5.118   4.169   4.595  0.0143 -0.2669  0.0933
17576TIP3    H174219   5.148   4.244   4.544 -1.2718  1.6916  2.0291
17576TIP3    H274220   5.156   4.182   4.681  1.9986 -3.3995 -0.1480
17577TIP3   OH274221   1.253   3.374   4.088  0.2771  0.0045  0.6988
17577TIP3    H174222   1.178   3.364   4.029 -0.6605 -0.7460  1.9820
17577TIP3    H274223   1.297   3.289   4.085  0.2749 -0.0064  1.0276
17578TIP3   OH274224   1.362   1.258  16.595  0.0703  0.4002 -0.1571
17578TIP3    H174225   1.374   1.282  16.686 -0.3968 -1.9466  0.5945
17578TIP3    H274226   1.273   1.222  16.591  1.0865 -2.2672 -0.8201
17579TIP3   OH274227   6.517   5.958   2.461 -0.0141 -0.6800  0.0953
17579TIP3    H174228   6.461   6.000   2.396  0.8535 -3.0030 -2.3130
17579TIP3    H274229   6.598   6.009   2.460 -0.8615  0.7836  1.2843
17580TIP3   OH274230   6.599   2.794   4.403  0.2146 -0.0192 -0.4030
17580TIP3    H174231   6.618   2.707   4.370 -0.6986 -0.5489  0.4191
17580TIP3    H274232   6.592   2.783   4.498 -2.7764  0.3257 -0.4715
17581TIP3   OH274233   4.524   0.123  11.039 -0.2779  0.3459 -0.2366
17581TIP3    H174234   4.574   0.092  10.963  0.0650 -1.4864  0.6858
17581TIP3    H274235   4.434   0.096  11.021 -0.4212  0.9896 -0.5233
17582TIP3   OH274236   0.663   0.393   1.174  0.6443  0.0874  0.1371
17582TIP3    H174237   0.662   0.321   1.111  0.9386 -1.1990  1.5440
17582TIP3    H274238   0.684   0.352   1.257 -1.4726  1.4508  1.4405
17583TIP3   OH274239   2.363   3.993   0.401  0.2961 -0.2749  0.1466
17583TIP3    H174240   2.353   3.918   0.460 -0.1513  0.4768  1.0664
17583TIP3    H274241   2.431   3.966   0.339 -1.5297 -2.3789 -1.1091
17584TIP3   OH274242   4.318   0.343   3.397  0.0100 -0.2729  0.3668
17584TIP3    H174243   4.364   0.408   3.344  1.1211 -0.0491  1.5529
17584TIP3    H274244   4.240   0.322   3.346  0.1473  1.2152 -0.5312
17585TIP3   OH274245   4.344   3.519   4.169  0.3698  0.0427  0.6890
17585TIP3    H174246   4.425   3.524   4.220  1.6744 -0.8114 -1.1778
17585TIP3    H274247   4.330   3.608   4.137  0.4568  0.2295  1.1654
17586TIP3   OH274248   4.763   2.540   4.660  0.3918  0.5686  0.3221
17586TIP3    H174249   4.778   2.549   4.566 -0.5434  1.3021  0.2354
17586TIP3    H274250   4.779   2.627   4.696  0.3037  0.3966  0.7919
17587TIP3   OH274251   4.245   4.608   2.554 -0.2000 -0.0668  0.6591
17587TIP3    H174252   4.319   4.548   2.547  0.4642  0.8567 -0.9730
17587TIP3    H274253   4.175   4.566   2.503  0.6355  0.9657 -1.4946
17588TIP3   OH274254   2.768   0.526  12.505  0.2163 -0.0237 -0.1161
17588TIP3    H174255   2.713   0.448  12.503  0.6582 -0.3605  0.4674
17588TIP3    H274256   2.759   0.559  12.595  2.7474 -1.4006  0.7461
17589TIP3   OH274257   5.757   2.262  12.633  0.2593 -0.2357 -0.3579
17589TIP3    H174258   5.727   2.285  12.544 -1.0055 -0.8903 -0.1188
17589TIP3    H274259   5.749   2.167  12.637 -0.5881 -0.1378  0.7565
17590TIP3   OH274260   1.323   0.770  11.130 -0.6042 -0.0623  0.0804
17590TIP3    H174261   1.269   0.694  11.151 -1.5303 -0.2510 -2.6593
17590TIP3    H274262   1.268   0.826  11.076  1.1574  0.8801 -0.8589
17591TIP3   OH274263   2.212   0.931   5.343  0.5650 -0.3087 -0.2702
17591TIP3    H174264   2.146   0.950   5.276  0.8109  1.4984 -0.0430
17591TIP3    H274265   2.271   0.869   5.301 -0.9943 -1.6358 -0.6294
17592TIP3   OH274266   3.983   2.467   2.559 -0.4618 -0.2100  0.1084
17592TIP3    H174267   3.948   2.393   2.510 -1.7260  0.0688  0.5363
17592TIP3    H274268   3.922   2.538   2.541 -0.4568  0.1319  1.3557
17593TIP3   OH274269   4.125   3.899  16.638  0.4045  0.4558  0.6035
17593TIP3    H174270   4.216   3.870  16.638  0.9025  1.7972  2.8377
17593TIP3    H274271   4.123   3.970  16.574  0.6311 -0.2879 -0.2560
17594TIP3   OH274272   4.832   4.967   3.620 -0.1260  0.2412  0.0182
17594TIP3    H174273   4.809   4.883   3.580  1.2212  0.3153 -0.9831
17594TIP3    H274274   4.784   4.968   3.703  0.8628 -2.0958  0.7012
17595TIP3   OH274275   0.115   5.392   5.957 -0.6301  0.1201 -0.0619
17595TIP3    H174276   0.072   5.319   6.002  0.5011 -0.7205 -0.2927
17595TIP3    H274277   0.201   5.397   5.999 -0.7046  1.3462 -0.0383
17596TIP3   OH274278   3.033   1.552   0.723  0.3881  0.0539 -0.3141
17596TIP3    H174279   3.041   1.636   0.768 -0.3350 -0.1136  0.1519
17596TIP3    H274280   3.031   1.574   0.630 -0.7492  0.6458 -0.1659
17597TIP3   OH274281   3.998   0.612  15.117 -0.1849  0.1904  0.4705
17597TIP3    H174282   3.932   0.566  15.169  0.2055  0.4751  1.2218
17597TIP3    H274283   4.054   0.655  15.181  0.9854 -0.3826 -0.1383
17598TIP3   OH274284   1.364   5.700  10.836  0.8550  0.3608  0.4563
17598TIP3    H174285   1.301   5.712  10.765  1.3636 -1.2445 -0.3217
17598TIP3    H274286   1.368   5.785  10.880  0.3709  1.3388 -1.3050
17599TIP3   OH274287   0.705   0.031   3.619 -0.2816  0.3941  0.1163
17599TIP3    H174288   0.616   0.005   3.645 -0.7765  1.6042 -0.2721
17599TIP3    H274289   0.759   0.008   3.695 -0.0802 -4.2723 -1.1400
17600TIP3   OH274290   4.204   0.032  12.877 -0.0193 -0.5345  0.4536
17600TIP3    H174291   4.221  -0.036  12.812  2.8858 -1.6863  2.1884
17600TIP3    H274292   4.200   0.113  12.827  4.5716 -1.0215 -1.1909
17601TIP3   OH274293   5.146   3.008   2.665  0.4648 -0.5147  0.4589
17601TIP3    H174294   5.223   3.055   2.698 -2.1387  3.8159  1.0894
17601TIP3    H274295   5.095   2.987   2.744 -0.5132 -0.4214 -0.1395
17602TIP3   OH274296   4.365   6.361   1.864 -0.6237  0.0262 -0.3331
17602TIP3    H174297   4.317   6.431   1.819 -0.2136 -0.6117 -1.8097
17602TIP3    H274298   4.303   6.288   1.868 -0.2873 -0.2882 -0.8607
17603TIP3   OH274299   3.458   5.812   2.678 -0.0175  0.4698 -0.3511
17603TIP3    H174300   3.404   5.741   2.714  3.0378 -0.9077  1.9273
17603TIP3    H274301   3.484   5.864   2.754 -0.3972  2.8295 -1.7267
17604TIP3   OH274302   3.759   1.590   4.394 -0.2796 -0.2545 -0.0788
17604TIP3    H174303   3.741   1.682   4.417 -0.0026 -0.4690  1.0675
17604TIP3    H274304   3.752   1.543   4.477 -0.8209 -1.3483 -0.7186
17605TIP3   OH274305   3.309   2.382   2.889 -0.1062  0.1065 -0.7182
17605TIP3    H174306   3.400   2.400   2.912 -0.4342  0.2494  0.5400
17605TIP3    H274307   3.309   2.291   2.859  0.3183 -0.1560  0.0548
17606TIP3   OH274308   3.104   2.076  16.574  0.1666 -0.0848 -0.4910
17606TIP3    H174309   3.165   2.081  16.647  1.7914 -0.3527 -1.7860
17606TIP3    H274310   3.150   2.116  16.501 -0.6406 -1.5661 -1.8669
17607TIP3   OH274311   1.685   5.588   3.551  0.1932  0.1123  0.0812
17607TIP3    H174312   1.750   5.596   3.481 -1.0002 -0.7136 -1.1908
17607TIP3    H274313   1.629   5.515   3.523 -1.0110  0.5031  1.3467
17608TIP3   OH274314   5.440   4.458   4.514 -0.6179  0.1575 -0.3308
17608TIP3    H174315   5.491   4.416   4.445 -1.3363  0.1944 -0.8984
17608TIP3    H274316   5.494   4.450   4.593  0.3936  0.4884 -0.9820
17609TIP3   OH274317   2.252   1.288   0.194  0.2919 -0.3883  0.1436
17609TIP3    H174318   2.196   1.357   0.231  0.9236 -0.4869  1.3193
17609TIP3    H274319   2.191   1.231   0.147 -0.5403 -0.2070  0.9749
17610TIP3   OH274320   1.529   4.019  15.523 -0.1552  0.5578  0.0086
17610TIP3    H174321   1.481   4.101  15.530  2.1934  2.1335 -1.2651
17610TIP3    H274322   1.596   4.035  15.457  1.7298 -1.7100  1.2199
17611TIP3   OH274323   0.088   5.165   4.460  0.0557 -0.0814 -0.1042
17611TIP3    H174324   0.132   5.081   4.445  0.7650 -0.0928  1.7208
17611TIP3    H274325  -0.006   5.144   4.454  0.2260 -0.3969 -2.3814
17612TIP3   OH274326   0.039   0.308   1.056 -0.0448 -0.1950 -0.7664
17612TIP3    H174327  -0.033   0.309   0.993 -0.1157  0.6413 -0.6776
17612TIP3    H274328   0.089   0.387   1.037  1.1184 -0.9818 -1.1288
17613TIP3   OH274329   2.895   1.674  15.862  0.1378 -0.2790  0.6656
17613TIP3    H174330   2.896   1.729  15.783  0.5063 -0.5239  0.4926
17613TIP3    H274331   2.813   1.626  15.857  0.6277 -1.0658 -0.1242
17614TIP3   OH274332   6.454   1.726  11.475 -0.5410 -0.3765 -0.0533
17614TIP3    H174333   6.542   1.740  11.440 -0.0231  2.2463  2.0181
17614TIP3    H274334   6.440   1.632  11.465  2.6974 -0.9945 -0.0075
17615TIP3   OH274335   2.092   1.622  13.463  0.4654  0.1359 -0.3804
17615TIP3    H174336   2.138   1.547  13.424 -0.8613 -0.1564 -1.4915
17615TIP3    H274337   2.060   1.672  13.388 -0.7655  0.4576  0.3242
17616TIP3   OH274338   1.710   1.521  10.314  0.5088  0.2421 -0.2556
17616TIP3    H174339   1.658   1.595  10.282  0.9724  0.3360 -0.8016
17616TIP3    H274340   1.739   1.547  10.401  3.9742  2.4568 -1.8530
17617TIP3   OH274341   1.405   1.226   5.175 -0.3404 -0.2104  0.0581
17617TIP3    H174342   1.377   1.135   5.163  2.2715 -1.0489 -0.3860
17617TIP3    H274343   1.430   1.256   5.088  1.8929 -0.2356  0.6216
17618TIP3   OH274344   4.484   5.527   5.797  0.3665 -0.2976 -0.0215
17618TIP3    H174345   4.505   5.606   5.847  1.5342  0.7062 -1.9628
17618TIP3    H274346   4.408   5.490   5.841  0.0542  1.6694  1.2204
17619TIP3   OH274347   1.683   3.129  11.304  0.6206  0.2545 -0.6628
17619TIP3    H174348   1.726   3.209  11.273  1.8599 -0.7968 -1.8167
17619TIP3    H274349   1.744   3.093  11.368  0.6641 -0.3715 -1.0494
17620TIP3   OH274350   1.847   4.177   0.340 -0.9480  0.0472  0.4674
17620TIP3    H174351   1.922   4.236   0.340 -0.4053 -0.6324  0.0664
17620TIP3    H274352   1.825   4.164   0.248 -0.9787 -0.4682  0.5395
17621TIP3   OH274353   5.803   3.648   6.317  0.3200 -0.3010 -0.3621
17621TIP3    H174354   5.751   3.711   6.267  0.2393 -1.3958 -1.7198
17621TIP3    H274355   5.739   3.594   6.362  0.3830  0.3757  0.5619
17622TIP3   OH274356   3.709   4.255  13.252 -0.5994  0.0765  0.0330
17622TIP3    H174357   3.797   4.275  13.283 -0.5208 -0.9203  0.4784
17622TIP3    H274358   3.674   4.340  13.223 -0.5444  1.0303  2.4849
17623TIP3   OH274359   1.750   6.044   3.274 -0.4787  0.2755  0.4171
17623TIP3    H174360   1.785   6.129   3.248  0.4637  0.0769  1.0341
17623TIP3    H274361   1.750   6.045   3.369 -0.5131 -0.3991  0.4304
17624TIP3   OH274362   0.814   1.099   5.079  0.1142 -0.0673 -0.4245
17624TIP3    H174363   0.787   1.013   5.112  0.3818  0.1600  0.4098
17624TIP3    H274364   0.896   1.083   5.034  0.4466 -0.1718  0.2012
17625TIP3   OH274365   5.029   6.617  13.254 -0.3284  0.5142 -0.1659
17625TIP3    H174366   5.074   6.701  13.253  0.4790  0.0800 -1.1853
17625TIP3    H274367   4.937   6.639  13.238 -0.0793  1.1820 -0.7152
17626TIP3   OH274368   6.582   1.341   3.773 -0.0539  0.1383  0.3706
17626TIP3    H174369   6.511   1.316   3.714 -0.4373  0.3313  0.7424
17626TIP3    H274370   6.640   1.264   3.775 -1.3317 -0.8571  1.6788
17627TIP3   OH274371   1.597   6.786   5.268 -0.5143 -0.4416 -0.0259
17627TIP3    H174372   1.619   6.711   5.214  0.5803  0.2644 -0.5929
17627TIP3    H274373   1.504   6.775   5.287 -0.6007 -1.4156 -0.9226
17628TIP3   OH274374   4.223   5.540  14.618  0.6220  0.2059  0.0926
17628TIP3    H174375   4.175   5.464  14.586 -1.5582  2.3177 -2.1073
17628TIP3    H274376   4.312   5.527  14.587 -0.1038 -0.6825 -1.7782
17629TIP3   OH274377   5.234   0.055  10.903  0.1956  0.7242  0.3519
17629TIP3    H174378   5.306   0.118  10.909 -1.0355  2.1181  1.2470
17629TIP3    H274379   5.156   0.109  10.891 -0.8248 -0.6786  0.4177
17630TIP3   OH274380   5.011   4.876   1.977  0.4387 -0.6483  1.2499
17630TIP3    H174381   4.930   4.892   1.929  1.9156  0.8955 -0.8751
17630TIP3    H274382   5.055   4.807   1.928  1.1849 -0.2858  1.3946
17631TIP3   OH274383   2.539   5.292   0.570 -0.4907  0.9356  0.3092
17631TIP3    H174384   2.450   5.269   0.597 -1.4806  3.4818 -0.4927
17631TIP3    H274385   2.594   5.226   0.613 -2.5771  0.4194  2.4620
17632TIP3   OH274386   5.696   1.712  15.383 -0.0963  0.8036 -0.4151
17632TIP3    H174387   5.714   1.661  15.462 -0.5690  0.3714 -0.5886
17632TIP3    H274388   5.602   1.702  15.368  0.4084 -1.4805 -2.6553
17633TIP3   OH274389   5.997   1.751  16.067 -0.1951  0.7694 -0.0069
17633TIP3    H174390   5.904   1.734  16.057 -0.5638  2.9522 -0.9296
17633TIP3    H274391   6.037   1.717  15.987 -0.1170 -0.3851  0.4957
17634TIP3   OH274392   1.929   2.167  12.299  0.0803  0.0575 -0.2933
17634TIP3    H174393   2.006   2.113  12.320  0.4245  0.4486 -0.5205
17634TIP3    H274394   1.963   2.257  12.298 -0.3195  0.2067 -0.6867
17635TIP3   OH274395   4.720   0.060  13.435 -0.1685 -0.0941  0.5426
17635TIP3    H174396   4.737  -0.027  13.399 -2.9025 -0.3195 -0.4555
17635TIP3    H274397   4.659   0.100  13.373  0.3123  2.2116  1.4578
17636TIP3   OH274398   0.193   5.707   5.610  0.6511 -0.1878  0.0623
17636TIP3    H174399   0.136   5.647   5.563  1.2093 -1.0883  0.5178
17636TIP3    H274400   0.136   5.750   5.674  0.0800  0.3916 -0.8020
17637TIP3   OH274401   0.263   2.890  11.394 -0.3637  0.5897  0.8031
17637TIP3    H174402   0.182   2.877  11.443 -1.3863 -0.0532 -0.9546
17637TIP3    H274403   0.282   2.805  11.355  0.9711  0.8249  0.8767
17638TIP3   OH274404   5.549   0.370   2.375  0.8482  0.2463  0.0062
17638TIP3    H174405   5.538   0.465   2.363 -1.7844 -0.0224 -0.4395
17638TIP3    H274406   5.615   0.362   2.444  2.9634  2.3079 -1.6057
17639TIP3   OH274407   3.361   3.278  17.170  0.4461 -0.1400 -0.4255
17639TIP3    H174408   3.428   3.251  17.107  0.9133 -0.4600  0.1846
17639TIP3    H274409   3.410   3.326  17.237 -0.0360  0.1770 -0.2991
17640TIP3   OH274410   3.837   1.407  16.591 -0.9273 -0.7366 -0.0279
17640TIP3    H174411   3.888   1.482  16.621 -0.9789  0.2193 -2.1732
17640TIP3    H274412   3.883   1.331  16.628  0.6262  0.2066  0.0844
17641TIP3   OH274413   4.255   3.333   5.789 -0.1308  0.0768 -0.7734
17641TIP3    H174414   4.181   3.305   5.735  0.4143 -0.6957 -1.1330
17641TIP3    H274415   4.332   3.298   5.745  0.3461 -0.4483  0.4202
17642TIP3   OH274416   3.546   6.682   4.119  0.3979 -0.2576  0.3295
17642TIP3    H174417   3.457   6.648   4.117 -0.2067  1.2421 -1.6547
17642TIP3    H274418   3.594   6.626   4.057  0.6138 -0.5170  0.7307
17643TIP3   OH274419   0.486   5.778  14.356  0.2328  0.0840 -0.0710
17643TIP3    H174420   0.420   5.845  14.375  0.5710  0.2791  0.4659
17643TIP3    H274421   0.554   5.794  14.422  0.6594 -0.3194 -0.4152
17644TIP3   OH274422   4.524   0.940   4.949  0.3019 -0.5891 -0.0609
17644TIP3    H174423   4.524   0.973   5.039  0.1445 -1.1295  0.1444
17644TIP3    H274424   4.552   1.014   4.896 -3.7139  1.2092 -0.1051
17645TIP3   OH274425   5.716   4.557  16.057 -0.2980 -0.9189  0.2594
17645TIP3    H174426   5.700   4.473  16.100  1.1426 -1.0822  0.5191
17645TIP3    H274427   5.771   4.536  15.982  0.8845 -0.1245  0.8637
17646TIP3   OH274428   1.814   4.286   3.843  0.0192  0.0923 -0.5787
17646TIP3    H174429   1.892   4.329   3.876  1.6299 -0.5292 -3.2566
17646TIP3    H274430   1.844   4.199   3.816 -2.1823 -1.1297  0.5924
17647TIP3   OH274431   0.433   5.062  15.188 -0.3768 -0.5709 -0.2759
17647TIP3    H174432   0.403   5.113  15.113  1.0036 -0.8819 -1.0872
17647TIP3    H274433   0.405   4.972  15.170 -1.9152 -0.3189  0.6593
17648TIP3   OH274434   3.937   0.587  13.847  0.0481 -0.1817 -0.5767
17648TIP3    H174435   3.965   0.560  13.934  1.5156  2.3735 -0.1493
17648TIP3    H274436   3.848   0.553  13.838  0.0956 -1.0162  1.6660
17649TIP3   OH274437   2.641   1.383  14.373  0.4615  0.3132  0.6880
17649TIP3    H174438   2.733   1.407  14.366  0.9560 -1.8909 -2.2577
17649TIP3    H274439   2.641   1.299  14.419 -0.0803  0.3567  0.7766
17650TIP3   OH274440   5.397   4.842   2.372  0.1191  0.3980  0.0787
17650TIP3    H174441   5.341   4.845   2.294 -0.3834  2.7759  0.4350
17650TIP3    H274442   5.481   4.809   2.340 -0.2841  0.6410 -1.3286
17651TIP3   OH274443   2.723   4.960   4.443  0.2228  0.0902 -0.0992
17651TIP3    H174444   2.657   5.028   4.435 -0.2207 -0.4043 -0.6949
17651TIP3    H274445   2.720   4.934   4.535  0.5012  0.9669  0.1697
17652TIP3   OH274446   6.335   2.267   1.026 -0.3836 -0.3085  0.0632
17652TIP3    H174447   6.273   2.336   1.005 -4.2622 -2.8256  2.0341
17652TIP3    H274448   6.335   2.264   1.122 -0.2924 -2.9414  0.0373
17653TIP3   OH274449   0.748   3.156   3.312 -0.0752  0.4599  0.2850
17653TIP3    H174450   0.772   3.195   3.228 -0.6408 -0.0080 -0.1059
17653TIP3    H274451   0.819   3.180   3.372  1.2748 -0.7411 -0.7698
17654TIP3   OH274452   0.486   3.484  16.647  0.4206  0.1940  1.2843
17654TIP3    H174453   0.468   3.391  16.663  0.4829 -0.4753 -1.8643
17654TIP3    H274454   0.401   3.527  16.655  0.3128 -0.1879  2.3310
17655TIP3   OH274455   1.866   4.311  11.579 -0.3918 -0.2469  0.2167
17655TIP3    H174456   1.906   4.380  11.525  1.9965 -2.2266 -0.7619
17655TIP3    H274457   1.805   4.267  11.519 -0.7697  0.0399  0.3844
17656TIP3   OH274458   0.415   2.684   0.588  0.4681  0.2688 -0.4278
17656TIP3    H174459   0.440   2.711   0.677  0.1030 -0.4245 -0.1049
17656TIP3    H274460   0.349   2.615   0.602 -0.1850  0.7169 -1.2454
17657TIP3   OH274461   2.935   0.276   1.596  0.3081  0.0872  0.4385
17657TIP3    H174462   2.920   0.263   1.690 -0.5279  1.5365  0.5452
17657TIP3    H274463   2.892   0.360   1.577 -1.1097 -1.0206 -1.6146
17658TIP3   OH274464   0.331   4.332  17.168 -0.4673  0.7641 -0.4477
17658TIP3    H174465   0.394   4.267  17.136  1.0706  1.4879  0.9733
17658TIP3    H274466   0.247   4.286  17.169  0.6969 -1.5348  1.3561
17659TIP3   OH274467   3.157   3.888  15.900 -0.3433  0.1927  0.2076
17659TIP3    H174468   3.212   3.920  15.829  1.3207  1.1272  1.8261
17659TIP3    H274469   3.218   3.869  15.972 -2.0158  0.1712  1.7155
17660TIP3   OH274470   0.523   4.855   1.554  0.7743 -0.5029  0.2980
17660TIP3    H174471   0.537   4.785   1.490  0.2265 -0.6102  0.2869
17660TIP3    H274472   0.500   4.932   1.501  2.7360  0.0868  0.2120
17661TIP3   OH274473   6.271   3.169   4.821  0.2738  0.3699  0.4327
17661TIP3    H174474   6.247   3.262   4.812  2.3812  0.9208  0.0099
17661TIP3    H274475   6.347   3.170   4.879  0.1076 -1.1595  0.7094
17662TIP3   OH274476   2.278   0.910   5.800 -0.0479  0.5525 -0.1514
17662TIP3    H174477   2.366   0.932   5.831  0.1814 -0.9169  0.3390
17662TIP3    H274478   2.228   0.893   5.879 -1.2324  2.8014 -0.3470
17663TIP3   OH274479   2.600   5.265  15.950 -0.3784  0.1233 -0.7421
17663TIP3    H174480   2.589   5.254  16.044 -0.7516  1.1763 -0.6399
17663TIP3    H274481   2.649   5.189  15.922 -0.8733 -0.5621  0.1904
17664TIP3   OH274482   3.543   2.351  11.422 -0.2371 -0.6140 -0.1530
17664TIP3    H174483   3.467   2.389  11.466 -0.2203 -1.4736  0.6560
17664TIP3    H274484   3.514   2.263  11.396  0.6776 -1.1933  0.7457
17665TIP3   OH274485   3.103   2.317  15.652  0.0045 -0.3828 -0.2823
17665TIP3    H174486   3.136   2.361  15.574 -0.7687 -0.2530 -0.5425
17665TIP3    H274487   3.151   2.234  15.656 -0.1807 -0.5258 -1.0595
17666TIP3   OH274488   0.640   4.633  14.847  0.3430  0.4041  0.1807
17666TIP3    H174489   0.610   4.610  14.935 -0.1813  0.2827 -0.0296
17666TIP3    H274490   0.700   4.562  14.824 -1.4271 -0.9396 -0.5445
17667TIP3   OH274491   5.630   4.280  13.701 -0.0776  0.1068  0.0110
17667TIP3    H174492   5.679   4.360  13.679 -0.8402  0.6899  0.3846
17667TIP3    H274493   5.544   4.312  13.730 -0.5426 -0.8744 -0.2421
17668TIP3   OH274494   5.773   3.482   2.480 -0.4942 -0.3916 -0.1529
17668TIP3    H174495   5.842   3.416   2.476 -0.7700 -0.7828  1.1524
17668TIP3    H274496   5.694   3.434   2.451 -0.7714 -0.7669  1.1720
17669TIP3   OH274497   0.094   0.545  12.284  0.0507 -0.0247  0.5990
17669TIP3    H174498   0.038   0.600  12.229  2.4964  0.7736 -1.2436
17669TIP3    H274499   0.033   0.498  12.341 -2.5175  0.2312 -1.7549
17670TIP3   OH274500   3.661   2.817   3.259  0.0145  0.2415  0.7269
17670TIP3    H174501   3.651   2.912   3.264  1.9925  0.4465  1.9693
17670TIP3    H274502   3.743   2.800   3.305 -1.5347 -2.3349  2.7657
17671TIP3   OH274503   0.190   4.837   3.782 -0.2514 -0.4019  0.2954
17671TIP3    H174504   0.254   4.833   3.853  1.2756  0.5536 -0.9357
17671TIP3    H274505   0.171   4.930   3.772 -0.2403 -0.4958 -0.7065
17672TIP3   OH274506   1.506   4.353   3.184  0.1548  0.0122  0.1074
17672TIP3    H174507   1.459   4.436   3.179 -0.5483 -0.2720  1.4885
17672TIP3    H274508   1.596   4.378   3.205  0.1259  0.4588 -0.2800
17673TIP3   OH274509   4.544   0.824   5.545 -0.3601  0.6931 -1.1018
17673TIP3    H174510   4.593   0.750   5.581  0.3821  2.7022  2.4432
17673TIP3    H274511   4.600   0.860   5.477  1.6989  1.0237  0.6831
17674TIP3   OH274512   6.342   0.333  13.871 -0.6193  0.5822 -0.4910
17674TIP3    H174513   6.278   0.271  13.905 -0.6547  0.6057 -0.5155
17674TIP3    H274514   6.422   0.281  13.860 -0.4293  0.7144  0.2127
17675TIP3   OH274515   0.629   3.622  14.809  0.1283  0.0781  0.2491
17675TIP3    H174516   0.617   3.715  14.828  1.8590  0.0111  2.0154
17675TIP3    H274517   0.617   3.578  14.894 -0.5255 -1.3022 -0.5271
17676TIP3   OH274518   2.797   4.136   3.378 -0.0262 -0.0856 -0.3291
17676TIP3    H174519   2.845   4.146   3.296 -0.8514  0.2173 -0.7838
17676TIP3    H274520   2.866   4.124   3.444  0.7168  1.0074 -0.8589
17677TIP3   OH274521   2.718   2.988   0.510  0.2459 -0.0005 -0.5680
17677TIP3    H174522   2.635   3.033   0.498 -0.1262 -0.4593  0.2013
17677TIP3    H274523   2.696   2.909   0.559  1.0503 -0.4302 -0.8753
17678TIP3   OH274524   1.811   2.804  16.692  0.0667 -0.4260 -0.1921
17678TIP3    H174525   1.823   2.898  16.676 -1.1096 -0.0328  1.0809
17678TIP3    H274526   1.834   2.793  16.784 -0.2226 -1.3142 -0.2207
17679TIP3   OH274527   2.109   3.095   2.770 -0.2595 -0.1056  0.1648
17679TIP3    H174528   2.091   3.009   2.808  0.0945  0.2522  1.1953
17679TIP3    H274529   2.197   3.087   2.733  0.0562 -0.0008  0.8748
17680TIP3   OH274530   4.318   1.944   4.786 -0.0426 -0.0277  0.1508
17680TIP3    H174531   4.363   1.889   4.721 -0.8400 -1.4340  0.7413
17680TIP3    H274532   4.386   2.001   4.820  1.2097 -1.7346  0.6569
17681TIP3   OH274533   5.422   2.378   3.556 -0.2715  0.0330  0.2569
17681TIP3    H174534   5.420   2.351   3.648 -1.1607  0.3056  0.3277
17681TIP3    H274535   5.486   2.450   3.554  0.1594 -0.3361  0.5539
17682TIP3   OH274536   3.121   4.255  16.043  0.3195  0.3443 -0.0896
17682TIP3    H174537   3.063   4.324  16.074 -0.9490 -0.6045 -0.2842
17682TIP3    H274538   3.077   4.218  15.967  0.9617 -0.7013  0.0200
17683TIP3   OH274539   6.644   2.095  12.997  0.1476 -0.0945 -0.0327
17683TIP3    H174540   6.599   2.034  13.056 -1.6262  0.2212 -0.9814
17683TIP3    H274541   6.680   2.039  12.929 -0.0442 -0.2353 -0.0224
17684TIP3   OH274542   2.147   5.835   0.546 -0.5179 -0.1136 -0.2339
17684TIP3    H174543   2.073   5.801   0.494 -0.7280  2.6971 -2.0066
17684TIP3    H274544   2.107   5.897   0.606  0.3196  0.8416 -0.6480
17685TIP3   OH274545   0.614   5.736  15.534 -0.0905  0.9506 -0.3333
17685TIP3    H174546   0.597   5.825  15.504  1.1058  1.3719  0.1640
17685TIP3    H274547   0.603   5.741  15.629 -1.1971  0.2717 -0.4126
17686TIP3   OH274548   2.458   2.875  13.395  0.0559  0.2475 -0.0225
17686TIP3    H174549   2.438   2.785  13.420  0.6018 -0.0706 -0.6972
17686TIP3    H274550   2.451   2.876  13.300  0.8619  0.7023 -0.0934
17687TIP3   OH274551   4.709   3.116   1.859 -0.8929  0.3512  0.6396
17687TIP3    H174552   4.755   3.199   1.847  0.9549 -0.2684  2.7587
17687TIP3    H274553   4.686   3.114   1.951  1.2665 -2.4078  1.2705
17688TIP3   OH274554   3.406   3.603  17.180 -0.1670 -0.1515  0.0425
17688TIP3    H174555   3.428   3.529  17.236  0.8034  0.2294  0.1922
17688TIP3    H274556   3.473   3.669  17.200 -2.4750  1.8378  1.8423
17689TIP3   OH274557   4.421   0.231   4.692 -0.5284 -0.0856  0.0166
17689TIP3    H174558   4.464   0.208   4.610  0.3850  0.0504  0.4505
17689TIP3    H274559   4.417   0.326   4.692  0.0048 -0.0612  0.3960
17690TIP3   OH274560   2.708   0.372   0.710  0.3250 -0.1793 -0.8019
17690TIP3    H174561   2.785   0.426   0.695  0.0510  0.2039 -0.8379
17690TIP3    H274562   2.706   0.311   0.637  0.2774  0.1804 -1.1021
17691TIP3   OH274563   2.663   1.941  15.670  0.1870  0.1055  0.9336
17691TIP3    H174564   2.732   1.903  15.725 -0.7368  0.5979  2.5012
17691TIP3    H274565   2.609   1.992  15.730 -1.4293 -0.0831 -0.2606
17692TIP3   OH274566   2.292   2.602  14.693  0.0082 -0.2640 -0.1305
17692TIP3    H174567   2.237   2.644  14.628 -1.5431 -0.8265  0.7741
17692TIP3    H274568   2.347   2.541  14.643 -1.6852 -1.2577 -0.8556
17693TIP3   OH274569   0.543   2.991  11.474  0.6708 -0.2266  0.1066
17693TIP3    H174570   0.566   2.959  11.561  0.7687 -1.8330 -0.4735
17693TIP3    H274571   0.454   2.958  11.459  1.1623 -1.1652 -0.9196
17694TIP3   OH274572   1.142   3.576  12.356 -0.0086  0.9788  0.0241
17694TIP3    H174573   1.149   3.648  12.419  0.8838  0.8455  0.0891
17694TIP3    H274574   1.062   3.530  12.382 -0.7292  2.0830 -0.1815
17695TIP3   OH274575   5.774   6.236  14.147 -0.0575  0.6286  0.2240
17695TIP3    H174576   5.819   6.314  14.182  0.0945  0.2330  0.9332
17695TIP3    H274577   5.709   6.272  14.086  0.6079  1.2593 -0.1391
17696TIP3   OH274578   1.492   2.755   2.301  0.4798 -0.0936 -0.0250
17696TIP3    H174579   1.405   2.728   2.329 -0.2129  0.0083 -1.8917
17696TIP3    H274580   1.522   2.816   2.369 -0.5504 -0.7619  1.0539
17697TIP3   OH274581   4.921   4.582  12.369  0.4704 -0.1946  0.1387
17697TIP3    H174582   4.834   4.556  12.338  0.7035 -0.1094 -0.5949
17697TIP3    H274583   4.962   4.501  12.397  0.3969 -0.3249 -0.1287
17698TIP3   OH274584   3.387   4.135  14.034  0.0799  0.0424  0.0720
17698TIP3    H174585   3.410   4.124  13.942  0.2589 -0.7164  0.1994
17698TIP3    H274586   3.291   4.145  14.033  0.1779  1.0863 -0.2738
17699TIP3   OH274587   5.886   2.071  16.161 -0.0733 -0.2692  0.0818
17699TIP3    H174588   5.848   2.010  16.097 -1.2791  1.3449 -0.8153
17699TIP3    H274589   5.811   2.097  16.215 -0.3304  2.7362 -1.5128
17700TIP3   OH274590   3.735   3.869  14.790 -0.0542 -0.4614  0.0192
17700TIP3    H174591   3.816   3.907  14.823 -0.2106  0.1624 -0.3027
17700TIP3    H274592   3.666   3.908  14.845 -0.3575  0.9022 -1.2575
17701TIP3   OH274593   4.554   5.643   4.081 -0.0206  0.5369 -0.1979
17701TIP3    H174594   4.559   5.670   4.173 -0.4956  2.9906 -0.8269
17701TIP3    H274595   4.464   5.611   4.070 -0.5223  1.8926 -0.1893
17702TIP3   OH274596   3.575   4.699   1.583 -0.5246  0.4568  0.7678
17702TIP3    H174597   3.576   4.792   1.561 -0.3248  0.8039  2.1826
17702TIP3    H274598   3.638   4.660   1.522 -1.4159  1.0466 -0.5692
17703TIP3   OH274599   4.789   3.683  15.032 -0.4746 -0.4985  0.2504
17703TIP3    H174600   4.760   3.714  14.946 -0.2523 -0.1789  0.2896
17703TIP3    H274601   4.885   3.687  15.027 -0.4773  0.1545  0.7506
17704TIP3   OH274602   1.288   6.769  11.626  0.4148 -0.1710  0.0875
17704TIP3    H174603   1.355   6.805  11.684  1.1926  0.1698 -0.9902
17704TIP3    H274604   1.209   6.768  11.679  0.8651  1.1090  0.8301
17705TIP3   OH274605   3.808   4.363   0.420  0.5178  0.6977 -0.0320
17705TIP3    H174606   3.886   4.402   0.381  0.3777  1.2668  0.2517
17705TIP3    H274607   3.842   4.300   0.483  0.7911 -1.7004 -2.3900
17706TIP3   OH274608   6.815   1.213  13.041 -0.2498  0.4539 -0.1037
17706TIP3    H174609   6.832   1.300  13.076 -1.1832 -0.1148  1.8869
17706TIP3    H274610   6.719   1.206  13.041 -0.1774 -0.6526 -0.0169
17707TIP3   OH274611   3.681   5.206   1.522 -0.7761 -0.7232  0.0038
17707TIP3    H174612   3.728   5.273   1.573 -0.5060 -2.1433  1.7530
17707TIP3    H274613   3.742   5.182   1.453  0.0223 -0.6635  0.6632
17708TIP3   OH274614   2.146   6.610  11.227  0.1594 -0.0871 -0.4267
17708TIP3    H174615   2.223   6.656  11.260 -0.9464 -0.2604  2.7154
17708TIP3    H274616   2.137   6.533  11.283 -3.3744  0.9602  0.7542
17709TIP3   OH274617   1.050   6.401  12.639 -0.7243  0.7017 -0.1908
17709TIP3    H174618   1.019   6.432  12.554 -0.7850  0.2163 -0.3530
17709TIP3    H274619   1.062   6.306  12.627  0.0030  0.7470  0.1188
17710TIP3   OH274620   4.290   5.549   0.018 -0.5556 -0.3482  0.0928
17710TIP3    H174621   4.266   5.578   0.106  2.3959  1.0189  0.5968
17710TIP3    H274622   4.245   5.610  -0.040  0.1576  0.9951  0.8835
17711TIP3   OH274623   5.658   0.849   2.294 -0.6108 -0.4967 -0.1578
17711TIP3    H174624   5.645   0.923   2.235 -0.7324  1.0465  1.7434
17711TIP3    H274625   5.701   0.886   2.371 -2.9697 -1.8617  1.9640
17712TIP3   OH274626   0.552   6.244   4.190 -0.0811  0.1106  0.0739
17712TIP3    H174627   0.504   6.324   4.167  0.6959  0.9879  1.3974
17712TIP3    H274628   0.639   6.274   4.216  1.2315 -1.4299 -2.1181
17713TIP3   OH274629   5.243   4.726  17.170  0.3710  0.5497  0.4409
17713TIP3    H174630   5.227   4.819  17.188 -0.1837  0.6245 -0.3921
17713TIP3    H274631   5.318   4.725  17.111 -1.5037  0.7111 -2.1338
17714TIP3   OH274632   0.732   1.570  14.675 -0.6569 -0.4451 -0.1817
17714TIP3    H174633   0.785   1.491  14.672  1.9613  1.1483  0.7539
17714TIP3    H274634   0.697   1.574  14.764  2.0082  1.0029  0.9312
17715TIP3   OH274635   4.490   6.483  13.243  0.4506  0.1722 -0.0560
17715TIP3    H174636   4.526   6.482  13.154  0.4995 -1.7778 -0.0669
17715TIP3    H274637   4.409   6.432  13.236  0.7238 -0.4573  1.1024
17716TIP3   OH274638   2.859   5.492   7.081 -0.3466 -0.2362  0.2451
17716TIP3    H174639   2.861   5.524   6.991 -0.0954 -0.9463 -0.0134
17716TIP3    H274640   2.780   5.439   7.086  1.3890 -3.1344 -0.6389
17717TIP3   OH274641   2.203   6.658   4.125 -0.3816 -0.6973 -0.8495
17717TIP3    H174642   2.208   6.687   4.034 -2.9589  0.6595 -0.6485
17717TIP3    H274643   2.240   6.730   4.175 -1.2805 -0.3196 -0.7071
17718TIP3   OH274644   0.888   2.880   1.911  0.8717 -0.0227 -0.0277
17718TIP3    H174645   0.864   2.972   1.902 -1.1176 -0.3674  1.0986
17718TIP3    H274646   0.928   2.874   1.997 -0.6019 -0.4841  0.6431
17719TIP3   OH274647   0.099   5.356   2.703 -0.3676 -0.1033  0.1057
17719TIP3    H174648   0.049   5.286   2.660  0.6291 -0.2498 -0.8582
17719TIP3    H274649   0.173   5.310   2.743 -0.1013  0.3118  0.0923
17720TIP3   OH274650   2.685   3.395  15.274 -0.3393  0.4498  0.2750
17720TIP3    H174651   2.605   3.447  15.285 -1.2919 -0.8730 -0.2487
17720TIP3    H274652   2.752   3.446  15.319 -1.4470  1.6396  0.6461
17721TIP3   OH274653   0.752   1.218  15.662  0.3045 -0.0482  0.2641
17721TIP3    H174654   0.754   1.181  15.750 -1.9428  0.0585  0.4330
17721TIP3    H274655   0.786   1.307  15.671 -1.9756  0.7752  1.5417
17722TIP3   OH274656   4.080   3.850   3.055  1.2211  0.1834 -0.4931
17722TIP3    H174657   4.097   3.812   2.969 -3.7103  0.7979 -2.0499
17722TIP3    H274658   4.110   3.941   3.047  0.6681  0.2851 -1.6757
17723TIP3   OH274659   5.472   3.381  10.711  0.2506 -0.1955 -0.1788
17723TIP3    H174660   5.467   3.347  10.622  0.2818  2.5020 -1.3309
17723TIP3    H274661   5.472   3.476  10.700  1.7851  0.2542  2.6189
17724TIP3   OH274662   6.148   2.987   5.413  0.5290  0.3910  0.4011
17724TIP3    H174663   6.197   3.033   5.482 -1.3852  2.4063  0.5171
17724TIP3    H274664   6.085   2.933   5.460  1.4718 -0.9018  0.2275
17725TIP3   OH274665   6.106   3.834  13.768  0.6418  0.4610  0.3735
17725TIP3    H174666   6.061   3.883  13.836 -0.9238  2.5224 -1.9883
17725TIP3    H274667   6.157   3.899  13.720 -1.1317 -0.1667 -2.5936
17726TIP3   OH274668   5.865   6.360  12.848  0.7411  0.6536 -0.3314
17726TIP3    H174669   5.876   6.303  12.925  0.3563  2.3819  1.0694
17726TIP3    H274670   5.788   6.325  12.803  1.5208 -0.9576 -0.5097
17727TIP3   OH274671   6.205   1.768   2.967  0.1689 -0.5831  0.2133
17727TIP3    H174672   6.195   1.696   3.030 -1.2569 -1.1986 -0.6539
17727TIP3    H274673   6.173   1.731   2.884  0.3686  0.7535 -0.4809
17728TIP3   OH274674   1.873   3.531   1.124  0.6122  0.4812  0.4802
17728TIP3    H174675   1.853   3.625   1.130 -1.3742  0.1744 -0.6399
17728TIP3    H274676   1.884   3.515   1.030  0.6710 -0.4662  0.6450
17729TIP3   OH274677   6.246   3.423  12.799  0.2507 -0.1189  0.3123
17729TIP3    H174678   6.181   3.474  12.750  0.3590 -1.9616 -1.9345
17729TIP3    H274679   6.201   3.396  12.879 -1.1980  0.0344 -0.4230
17730TIP3   OH274680   3.970   3.695  11.572 -0.0800  0.4899 -0.6912
17730TIP3    H174681   4.057   3.730  11.591  0.4549 -0.7436 -0.7898
17730TIP3    H274682   3.946   3.735  11.488  0.9145 -0.0594 -1.2633
17731TIP3   OH274683   1.309   3.193  15.679  0.0265  0.2268  0.1945
17731TIP3    H174684   1.321   3.104  15.644 -2.2329  0.5693 -1.7315
17731TIP3    H274685   1.267   3.179  15.764  0.9403 -0.5279  0.5526
17732TIP3   OH274686   3.155   4.157   1.905 -0.0596 -0.1551  0.1008
17732TIP3    H174687   3.138   4.252   1.908 -0.3147 -0.2198  1.0548
17732TIP3    H274688   3.237   4.149   1.855 -1.0082  0.4123 -1.6107
17733TIP3   OH274689   2.006   1.680   3.733 -0.0984  0.1564 -0.4844
17733TIP3    H174690   2.047   1.596   3.710  0.4702  0.3415 -0.1444
17733TIP3    H274691   1.938   1.692   3.666 -0.3027 -0.6583 -0.4353
17734TIP3   OH274692   2.237   0.337   4.595 -0.5279 -0.3858 -0.1417
17734TIP3    H174693   2.211   0.344   4.503 -1.5499 -1.1171  0.0740
17734TIP3    H274694   2.164   0.293   4.638 -0.5192  0.8429  1.2301
17735TIP3   OH274695   0.322   2.334   0.757  0.0084  0.8845 -0.3797
17735TIP3    H174696   0.360   2.381   0.831  0.7470  1.4438 -1.0986
17735TIP3    H274697   0.232   2.315   0.784  0.0701  1.6506  0.3970
17736TIP3   OH274698   4.642   0.752  13.554  0.1754 -0.3881  0.0765
17736TIP3    H174699   4.721   0.772  13.504  0.8429 -0.7678  0.9403
17736TIP3    H274700   4.649   0.806  13.633 -1.0507  0.4928 -0.3892
17737TIP3   OH274701   5.743   4.064   0.229  0.1402  0.2578 -0.1854
17737TIP3    H174702   5.669   4.020   0.186 -1.4234  1.4778  1.1107
17737TIP3    H274703   5.814   4.061   0.164 -1.7160  0.9910 -2.3860
17738TIP3   OH274704   0.872   2.966   4.488 -0.0815 -0.3169  0.3846
17738TIP3    H174705   0.792   2.921   4.515 -0.3647 -0.6007 -0.8849
17738TIP3    H274706   0.891   2.931   4.401  0.4844  0.9811 -0.0314
17739TIP3   OH274707   6.200   2.905  12.639 -0.3333  0.6732 -0.1793
17739TIP3    H174708   6.160   2.971  12.582  1.8249  0.8374 -1.6098
17739TIP3    H274709   6.247   2.847  12.579  1.7084  0.6045  1.4010
17740TIP3   OH274710   4.554   4.515   2.108 -0.9625 -0.4360  0.3463
17740TIP3    H174711   4.590   4.575   2.173 -1.2402 -1.6062  1.6291
17740TIP3    H274712   4.472   4.556   2.080 -0.1860  0.7244 -0.2808
17741TIP3   OH274713   5.152   2.741  16.837 -0.0618 -0.5427  0.3438
17741TIP3    H174714   5.140   2.698  16.922  0.9964 -0.0052  0.7940
17741TIP3    H274715   5.183   2.671  16.779 -2.1849 -1.2413 -0.0255
17742TIP3   OH274716   3.140   2.455   0.906  0.3734 -0.4672 -0.5759
17742TIP3    H174717   3.065   2.429   0.853 -0.6353  1.2382 -0.0821
17742TIP3    H274718   3.200   2.495   0.844  0.4712 -1.0453 -0.8507
17743TIP3   OH274719   0.107   5.557  15.200  0.0063  0.3776 -0.1607
17743TIP3    H174720   0.036   5.573  15.139 -1.3565 -1.3346  0.8609
17743TIP3    H274721   0.072   5.491  15.261  1.9786  0.5198  1.2387
17744TIP3   OH274722   5.061   6.337  13.972 -0.5485  0.6174  0.4261
17744TIP3    H174723   5.129   6.280  13.937 -1.2717  0.7425 -1.2747
17744TIP3    H274724   5.090   6.426  13.949 -1.9524  0.5999 -1.6873
17745TIP3   OH274725   1.152   4.578   3.814  0.1599 -0.2174 -0.6484
17745TIP3    H174726   1.133   4.669   3.792  1.8147  0.3519  0.0774
17745TIP3    H274727   1.173   4.537   3.730  0.2913  0.3085 -0.8760
17746TIP3   OH274728   2.643   4.030  15.206 -0.3911 -0.0500 -0.2873
17746TIP3    H174729   2.561   4.037  15.256 -0.7730  1.0560 -1.0420
17746TIP3    H274730   2.616   4.035  15.115  0.3721 -1.4112 -0.6105
17747TIP3   OH274731   1.912   2.118   1.623 -0.2038 -0.3146 -0.5906
17747TIP3    H174732   1.961   2.047   1.664  0.1141  0.8212  1.1041
17747TIP3    H274733   1.822   2.086   1.618 -0.5704  0.0005  2.4420
17748TIP3   OH274734   0.661   2.506   1.800  0.3712 -0.4364  0.0919
17748TIP3    H174735   0.575   2.542   1.779  0.5128 -0.4510 -0.5376
17748TIP3    H274736   0.701   2.571   1.857  0.5442  0.3094 -0.8640
17749TIP3   OH274737   3.533   4.027   3.828  0.4522 -0.2381 -0.7219
17749TIP3    H174738   3.497   3.990   3.748  1.8113 -0.9962 -1.0163
17749TIP3    H274739   3.503   4.118   3.828 -1.0277 -0.7014 -1.1683
17750TIP3   OH274740   1.346   0.397   4.667  0.1884 -0.0670  0.5534
17750TIP3    H174741   1.382   0.483   4.647  0.6779 -0.2623  0.5775
17750TIP3    H274742   1.386   0.338   4.603 -0.7746 -0.1500  0.0075
17751TIP3   OH274743   3.851   4.288  11.951 -0.0440 -0.0049  0.1233
17751TIP3    H174744   3.900   4.260  12.028  0.2762  1.1728  0.3559
17751TIP3    H274745   3.818   4.375  11.973 -0.4665  0.0925 -0.8385
17752TIP3   OH274746   1.366   0.803   0.755 -0.7136  0.4486 -0.0650
17752TIP3    H174747   1.304   0.877   0.753 -0.1600  0.9486  0.7702
17752TIP3    H274748   1.433   0.830   0.817 -1.6382 -1.6727  2.0029
17753TIP3   OH274749   2.230   3.665  11.111 -0.2277 -0.4636 -0.5078
17753TIP3    H174750   2.284   3.741  11.091  0.0694 -0.6857 -0.5479
17753TIP3    H274751   2.292   3.594  11.125 -0.5414 -1.0420 -1.9093
17754TIP3   OH274752   4.632   0.946   2.397  0.1359 -0.1360  0.6064
17754TIP3    H174753   4.597   1.006   2.463  1.1885  0.9499  0.2154
17754TIP3    H274754   4.614   0.989   2.313 -0.5975 -1.1874  0.1922
17755TIP3   OH274755   4.776   4.424   1.053 -0.0505 -0.2409 -0.3084
17755TIP3    H174756   4.760   4.411   1.146 -0.8553  0.8055 -0.2716
17755TIP3    H274757   4.852   4.481   1.049  0.6186 -1.1181 -0.3344
17756TIP3   OH274758   0.828   2.762  14.522 -0.4090 -0.0607 -0.1861
17756TIP3    H174759   0.907   2.782  14.472 -0.7873  0.9583 -0.4001
17756TIP3    H274760   0.757   2.771  14.459 -0.9866  2.2177  0.7117
17757TIP3   OH274761   2.563   0.848  16.632  0.4880 -0.2326  0.1472
17757TIP3    H174762   2.594   0.874  16.545  1.5454 -0.6111  0.3910
17757TIP3    H274763   2.642   0.818  16.677 -0.4063 -2.4636  0.3880
17758TIP3   OH274764   1.473   6.759  15.973  0.1274 -0.2628 -0.1074
17758TIP3    H174765   1.554   6.797  15.938  2.4328 -2.3969  2.4101
17758TIP3    H274766   1.472   6.785  16.065 -0.4854 -2.5280  0.6039
17759TIP3   OH274767   2.825   0.867   4.911  0.1417 -0.4500 -0.5436
17759TIP3    H174768   2.806   0.794   4.969  2.6269 -2.1494 -1.6700
17759TIP3    H274769   2.879   0.926   4.964  0.8705 -1.0939 -0.5454
17760TIP3   OH274770   4.914   2.878   3.448  0.2639 -0.3818  0.3440
17760TIP3    H174771   4.946   2.908   3.533  1.1287 -0.0307 -0.0999
17760TIP3    H274772   4.993   2.853   3.400 -0.1452  0.1835 -0.6494
17761TIP3   OH274773   5.582   6.323  13.063  0.5065 -0.2633  0.0933
17761TIP3    H174774   5.519   6.252  13.078 -1.0358  0.4980 -2.1882
17761TIP3    H274775   5.616   6.343  13.150 -0.2446 -2.6496  1.0368
17762TIP3   OH274776   6.667   3.827  11.470  0.1591  0.1602 -0.0020
17762TIP3    H174777   6.723   3.824  11.393  0.6703  0.8341  0.3261
17762TIP3    H274778   6.679   3.916  11.505 -0.0705 -0.1240  0.8339
17763TIP3   OH274779   2.816   1.673  12.216  0.1163 -0.2071  0.4707
17763TIP3    H174780   2.768   1.642  12.139  0.5279  0.1058  0.0831
17763TIP3    H274781   2.749   1.712  12.272 -0.1474 -0.1824  0.1443
17764TIP3   OH274782   4.585   3.049  15.410  0.1679  0.4176 -0.7162
17764TIP3    H174783   4.558   2.980  15.470  0.0643  0.0330 -1.2032
17764TIP3    H274784   4.528   3.123  15.431  0.0261  0.2319 -0.4507
17765TIP3   OH274785   0.387   5.520  15.649  0.5197  0.3971  0.3351
17765TIP3    H174786   0.478   5.514  15.620  0.4242  0.3483  0.0358
17765TIP3    H274787   0.349   5.434  15.627  0.1400  0.7601 -0.4810
17766TIP3   OH274788   4.993   3.140  16.017 -0.4593  0.6077 -0.2856
17766TIP3    H174789   5.073   3.102  16.054  0.7309  2.3642 -0.9488
17766TIP3    H274790   4.996   3.115  15.924 -0.5323  0.9340 -0.3747
17767TIP3   OH274791   0.118   4.695  11.659  0.7424 -0.1099  0.0371
17767TIP3    H174792   0.075   4.613  11.634  2.8834 -1.2574 -0.1612
17767TIP3    H274793   0.120   4.746  11.578 -1.8197  0.7878  0.4720
17768TIP3   OH274794   1.028   5.909  15.291  0.5920  0.0488  0.0570
17768TIP3    H174795   0.981   5.925  15.210  1.4421 -0.6136 -0.5819
17768TIP3    H274796   1.017   5.815  15.307  2.9044 -0.4423 -0.9186
17769TIP3   OH274797   1.487   4.782   1.955  0.1974  0.9642  0.0068
17769TIP3    H174798   1.505   4.806   1.864 -1.3894  2.4148  0.0405
17769TIP3    H274799   1.477   4.687   1.952  1.6253  0.8108 -1.0507
17770TIP3   OH274800   0.908   0.010  17.092 -0.2216  0.8203 -0.2737
17770TIP3    H174801   0.858   0.002  17.011  0.6457  2.6196 -1.0401
17770TIP3    H274802   0.938  -0.079  17.111  0.6277  0.5323 -2.6388
17771TIP3   OH274803   3.554   0.703  11.145 -0.2080  0.4208  0.2396
17771TIP3    H174804   3.575   0.667  11.059 -1.0003 -2.3035  1.0977
17771TIP3    H274805   3.590   0.791  11.143  0.3006  0.2503 -2.6641
17772TIP3   OH274806   6.020   5.762   2.560  0.4784  0.2937 -0.1150
17772TIP3    H174807   6.020   5.747   2.655  1.1923  1.0793  0.0214
17772TIP3    H274808   6.063   5.847   2.549 -0.3451  0.6111 -1.0915
17773TIP3   OH274809   3.038   2.480  15.854  0.2398  0.2357 -0.2433
17773TIP3    H174810   3.061   2.571  15.836  0.6184  0.4057  0.9705
17773TIP3    H274811   3.065   2.432  15.776 -0.2539  1.1998 -1.0290
17774TIP3   OH274812   3.950   1.032   0.745  0.1509  0.5107 -0.4897
17774TIP3    H174813   3.986   0.984   0.670  1.5937  2.3604 -1.0575
17774TIP3    H274814   3.867   1.067   0.713 -0.1404 -0.2490 -0.5861
17775TIP3   OH274815   0.271   4.051   4.545 -0.1158  0.6705 -0.0101
17775TIP3    H174816   0.188   4.096   4.557 -0.6653 -0.2067 -0.3696
17775TIP3    H274817   0.249   3.958   4.551  0.6161  0.3736 -1.3133
17776TIP3   OH274818   3.399   6.061  11.341  0.4996 -0.2594 -0.3050
17776TIP3    H174819   3.345   6.091  11.414 -0.8047 -0.0397 -1.3192
17776TIP3    H274820   3.422   6.141  11.294  2.4446 -0.2625  0.5637
17777TIP3   OH274821   4.644   3.428  13.379 -0.5554 -0.1900  0.2746
17777TIP3    H174822   4.628   3.334  13.379 -0.0336 -0.2847  0.2229
17777TIP3    H274823   4.709   3.442  13.448 -2.0145  0.3973  1.5856
17778TIP3   OH274824   0.174   2.750   4.261 -0.5780 -0.7799 -0.2595
17778TIP3    H174825   0.174   2.663   4.302 -0.4004  0.6545  3.0714
17778TIP3    H274826   0.242   2.744   4.194 -0.3485 -3.1067  0.0902
17779TIP3   OH274827   0.162   6.750  15.394  0.1206 -0.5160  0.8004
17779TIP3    H174828   0.136   6.677  15.451 -0.3812 -0.2745  0.8910
17779TIP3    H274829   0.157   6.713  15.306  0.9351 -0.9010  0.9121
17780TIP3   OH274830   2.876   4.353   5.971 -0.4095  0.4429  0.0541
17780TIP3    H174831   2.811   4.366   6.041 -1.2698  0.7648 -0.7872
17780TIP3    H274832   2.832   4.297   5.907  0.7979 -0.8792  0.3130
17781TIP3   OH274833   4.263   0.204   1.317  0.2383 -0.4124 -0.5806
17781TIP3    H174834   4.186   0.198   1.374  1.1868  0.5607  0.8690
17781TIP3    H274835   4.245   0.279   1.261 -0.6646 -1.3246 -1.5746
17782TIP3   OH274836   1.081   2.549  11.629  0.1244  0.1917 -0.2016
17782TIP3    H174837   1.058   2.457  11.619 -1.1620  0.4110  0.5324
17782TIP3    H274838   1.052   2.572  11.718  1.2949  1.0626 -0.0112
17783TIP3   OH274839   1.134   3.516   4.789 -0.2189 -0.0829 -0.2722
17783TIP3    H174840   1.157   3.608   4.774  0.6205 -0.2567 -0.0927
17783TIP3    H274841   1.181   3.468   4.720 -0.9184 -0.3556 -0.5717
17784TIP3   OH274842   4.140   6.197  13.379  0.2360 -0.2424  0.0056
17784TIP3    H174843   4.199   6.135  13.422 -0.8512 -0.9431  0.5345
17784TIP3    H274844   4.132   6.270  13.441  0.3221 -0.2728  0.0525
17785TIP3   OH274845   6.128   1.157   0.026 -0.0465 -0.0081 -0.0738
17785TIP3    H174846   6.140   1.134  -0.066  0.1708 -0.1320 -0.0148
17785TIP3    H274847   6.096   1.248   0.025  0.7735  0.2852 -0.2433
17786TIP3   OH274848   1.010   5.724   1.997  0.3439 -0.3111  0.0363
17786TIP3    H174849   1.069   5.682   1.934 -1.2012 -0.8807 -1.1090
17786TIP3    H274850   0.939   5.661   2.009 -0.9149  1.0308 -0.0147
17787TIP3   OH274851   0.755   6.271   4.374  0.1588 -0.4542 -0.1498
17787TIP3    H174852   0.739   6.310   4.460  1.5700 -0.9050  0.3349
17787TIP3    H274853   0.786   6.183   4.393 -0.2366 -0.8287 -1.1631
17788TIP3   OH274854   0.341   2.161   4.533 -0.0419  0.2526 -0.1680
17788TIP3    H174855   0.327   2.153   4.627  0.9607 -1.0138 -0.0975
17788TIP3    H274856   0.393   2.240   4.522 -1.2432  1.1172  0.2064
17789TIP3   OH274857   3.409   5.556   5.076 -0.1769 -0.0933  0.6376
17789TIP3    H174858   3.496   5.526   5.049 -0.3993 -1.3070  1.2329
17789TIP3    H274859   3.415   5.563   5.172 -0.2383  1.4850  0.5645
17790TIP3   OH274860   2.385   4.365   2.282  0.5161 -0.9131 -0.1031
17790TIP3    H174861   2.342   4.400   2.204  1.2237 -1.9022 -0.9809
17790TIP3    H274862   2.349   4.416   2.355 -0.9050 -0.6299 -0.9608
17791TIP3   OH274863   0.092   4.311  16.269 -0.0262 -0.4404  0.2087
17791TIP3    H174864   0.051   4.391  16.237 -1.7495 -0.7398  1.5019
17791TIP3    H274865   0.131   4.336  16.353  0.1350 -0.7856  0.2407
17792TIP3   OH274866   5.585   3.714  13.559  0.1030 -0.5852  0.1230
17792TIP3    H174867   5.538   3.778  13.506  0.0079 -0.0507  0.8356
17792TIP3    H274868   5.539   3.714  13.643 -0.8088 -2.6452 -0.2953
17793TIP3   OH274869   2.685   1.794   3.857 -0.1434  0.6853  0.0670
17793TIP3    H174870   2.600   1.825   3.825  0.2113  1.9309  0.2764
17793TIP3    H274871   2.717   1.866   3.912  0.9742  0.1592  0.1265
17794TIP3   OH274872   3.968   1.117  15.565 -1.2886  0.1230 -0.3234
17794TIP3    H174873   3.974   1.024  15.544  1.2087 -0.3387  1.9347
17794TIP3    H274874   4.011   1.161  15.491  0.1241 -0.7790 -0.0739
17795TIP3   OH274875   5.265   4.773   3.718 -0.1209  0.1069  0.2446
17795TIP3    H174876   5.186   4.731   3.684 -1.3193  2.4082 -0.0395
17795TIP3    H274877   5.321   4.783   3.641 -0.4084  0.2591  0.0534
17796TIP3   OH274878   0.289   0.308   2.526  0.2936  0.1861 -0.4634
17796TIP3    H174879   0.194   0.315   2.513  0.1478  1.3604  1.0064
17796TIP3    H274880   0.324   0.300   2.437 -1.2698 -2.2705 -0.9703
17797TIP3   OH274881   0.754   3.178  16.426 -0.2085 -0.1229 -0.3240
17797TIP3    H174882   0.804   3.254  16.455  0.7258 -0.2854 -1.4591
17797TIP3    H274883   0.686   3.214  16.370  0.8913 -0.1617 -1.7531
17798TIP3   OH274884   0.976   5.202  14.433 -0.8292 -0.1731  0.1620
17798TIP3    H174885   1.043   5.199  14.501 -1.0971  0.9985  0.5075
17798TIP3    H274886   0.928   5.119  14.443 -0.1608 -0.5102  0.6540
17799TIP3   OH274887   5.406   4.708   4.785 -0.3564 -0.0808  0.4899
17799TIP3    H174888   5.416   4.792   4.831  0.0589 -0.1169  0.4671
17799TIP3    H274889   5.442   4.644   4.846  3.1999  0.1856 -1.0758
17800TIP3   OH274890   4.845   5.038  13.105  0.4806 -0.7344  0.3211
17800TIP3    H174891   4.918   5.071  13.053  0.3236 -0.5161  0.2395
17800TIP3    H274892   4.858   5.077  13.192  0.0120 -0.0442  0.0871
17801TIP3   OH274893   0.259   5.862   5.127  0.6383  0.3911 -0.5206
17801TIP3    H174894   0.191   5.928   5.110  0.1290  0.7540  2.3997
17801TIP3    H274895   0.217   5.779   5.105 -0.6873  0.6434  0.8664
17802TIP3   OH274896   1.171   5.568  17.042  0.8130  0.3443 -0.8458
17802TIP3    H174897   1.118   5.546  16.965  0.6037  0.6675 -0.7966
17802TIP3    H274898   1.247   5.511  17.035  0.6165  0.1060 -1.0950
17803TIP3   OH274899   3.965   3.460   4.952  0.1006  0.8066  0.1887
17803TIP3    H174900   4.000   3.537   4.908 -0.4267 -0.1092 -1.9476
17803TIP3    H274901   3.905   3.495   5.018  0.5658  2.2383 -0.1297
17804TIP3   OH274902   0.207   0.690  11.774  0.1242  0.0817  0.1093
17804TIP3    H174903   0.253   0.741  11.841  0.9602 -1.0027  0.3963
17804TIP3    H274904   0.172   0.614  11.822 -2.1278  0.9161 -0.0709
17805TIP3   OH274905   5.729   2.802   0.194 -0.0485  0.1921  0.2379
17805TIP3    H174906   5.770   2.858   0.128 -1.6310  1.3068  0.1473
17805TIP3    H274907   5.777   2.820   0.274 -0.4064  1.5506  0.1606
17806TIP3   OH274908   6.162   0.505   3.934  0.5128  0.2049 -0.1778
17806TIP3    H174909   6.252   0.514   3.902  0.7077 -1.5512 -0.2480
17806TIP3    H274910   6.126   0.433   3.883 -1.1120  1.1784 -0.4621
17807TIP3   OH274911   2.564   6.127  10.891 -0.4263 -0.3060  0.5144
17807TIP3    H174912   2.563   6.218  10.862 -0.0945  0.2483  2.1642
17807TIP3    H274913   2.545   6.077  10.811 -2.5374  1.2809 -0.0779
17808TIP3   OH274914   1.311   2.065  13.175 -0.0338  0.1244  0.7439
17808TIP3    H174915   1.387   2.063  13.116 -1.0681 -1.5712 -0.6257
17808TIP3    H274916   1.334   2.131  13.240  2.2918  0.2158 -0.0497
17809TIP3   OH274917   2.982   5.064  13.030  0.4050 -0.1528 -0.2696
17809TIP3    H174918   2.975   4.970  13.012  1.3595 -0.0854 -1.0889
17809TIP3    H274919   2.893   5.091  13.054 -0.1010 -1.0576 -1.0618
17810TIP3   OH274920   2.595   3.996   4.613  0.5907 -0.5123 -0.5311
17810TIP3    H174921   2.534   4.005   4.540  0.4550  2.2698 -0.1493
17810TIP3    H274922   2.542   4.012   4.691  1.5379  0.7687 -0.1257
17811TIP3   OH274923   3.528   1.664  17.128  0.1823  0.1324  0.4597
17811TIP3    H174924   3.527   1.692  17.219 -2.0421 -0.3757  0.6594
17811TIP3    H274925   3.585   1.587  17.127  0.7966  0.5656  1.2634
17812TIP3   OH274926   2.878   4.255  16.277 -0.4844  0.1253 -0.5694
17812TIP3    H174927   2.871   4.251  16.182 -2.1663  1.4174 -0.5267
17812TIP3    H274928   2.930   4.333  16.295  0.9103 -0.7879 -0.4087
17813TIP3   OH274929   3.423   6.671  16.739  0.2728 -0.3619  0.1962
17813TIP3    H174930   3.448   6.670  16.831  0.6869 -1.8376  0.0864
17813TIP3    H274931   3.501   6.703  16.693  0.3278 -0.3720  0.2827
17814TIP3   OH274932   6.263   0.016  12.819 -0.7265  0.7423 -0.4786
17814TIP3    H174933   6.223   0.086  12.871 -0.0809 -0.4805  1.7941
17814TIP3    H274934   6.357   0.023  12.837 -0.6358 -0.5902 -0.3422
17815TIP3   OH274935   4.732   2.457   2.689 -0.0838  0.4692 -0.6650
17815TIP3    H174936   4.718   2.427   2.779 -0.2831 -0.1543 -0.8989
17815TIP3    H274937   4.685   2.540   2.684  1.1771  1.2682  0.2388
17816TIP3   OH274938   0.942   0.164   6.570 -0.0351 -0.0158  0.1110
17816TIP3    H174939   0.909   0.094   6.626 -1.2979  1.9807  2.0757
17816TIP3    H274940   1.035   0.172   6.593  0.3499 -1.5190 -0.7678
17817TIP3   OH274941   4.068   4.539   1.624  0.6570  0.5220  0.0727
17817TIP3    H174942   4.082   4.445   1.642 -0.7475  0.1986 -0.4212
17817TIP3    H274943   4.021   4.571   1.701 -2.4055 -0.1249 -1.3645
17818TIP3   OH274944   3.933   4.781  13.564 -0.3456 -0.2897  0.3865
17818TIP3    H174945   3.896   4.695  13.544 -0.6401 -0.1836  0.4706
17818TIP3    H274946   3.973   4.771  13.650 -0.9475 -0.1678  0.6817
17819TIP3   OH274947   5.219   6.605  12.076  1.1533  0.3428  0.9571
17819TIP3    H174948   5.278   6.636  12.007  2.1122 -0.9685  1.1393
17819TIP3    H274949   5.263   6.628  12.158  0.9597  0.1674  1.1135
17820TIP3   OH274950   5.641   0.352  14.607 -0.1172 -0.2385  0.0438
17820TIP3    H174951   5.654   0.333  14.700  0.0097 -0.5253 -0.0319
17820TIP3    H274952   5.596   0.275  14.573 -0.7792  0.1618  0.0079
17821TIP3   OH274953   5.886   1.221  11.749  0.1906 -0.1131 -0.6375
17821TIP3    H174954   5.880   1.262  11.663 -0.2870 -2.4559 -1.7976
17821TIP3    H274955   5.809   1.253  11.796  0.7034  1.5544 -0.8653
17822TIP3   OH274956   4.618   2.160   5.554 -0.3652 -0.3916  0.2867
17822TIP3    H174957   4.626   2.114   5.638 -0.3386 -0.4021  0.2782
17822TIP3    H274958   4.533   2.205   5.559  1.0869  2.4834  1.7564
17823TIP3   OH274959   5.527   4.866   3.243  0.0802  0.2929 -0.1701
17823TIP3    H174960   5.569   4.912   3.170  0.6719  0.8297  0.4991
17823TIP3    H274961   5.472   4.800   3.201  0.9578  0.1238 -1.0814
17824TIP3   OH274962   2.092   6.404   4.712  0.1939  0.1292  0.6263
17824TIP3    H174963   2.037   6.330   4.686  0.7150 -0.2055  0.4534
17824TIP3    H274964   2.163   6.364   4.762  0.0874  0.5970  1.1583
17825TIP3   OH274965   0.147   2.334  11.668 -0.5273 -0.4287 -0.3399
17825TIP3    H174966   0.242   2.330  11.678 -0.2935 -0.1990 -2.2015
17825TIP3    H274967   0.133   2.388  11.590 -2.2693  1.6133  1.2401
17826TIP3   OH274968   5.918   3.817   5.196 -0.4419  0.4601 -0.0443
17826TIP3    H174969   5.859   3.790   5.125  1.0703  1.5605 -1.8196
17826TIP3    H274970   5.965   3.892   5.160  2.3876 -0.6500  1.0663
17827TIP3   OH274971   5.101   3.136   5.988 -0.1930 -0.4894  0.0014
17827TIP3    H174972   5.053   3.058   6.017  0.5177 -0.8148  0.3343
17827TIP3    H274973   5.152   3.162   6.064  2.7200 -2.1274 -1.2479
17828TIP3   OH274974   3.159   0.861   0.013  0.4307 -0.1907  0.4545
17828TIP3    H174975   3.071   0.828   0.030  0.0183 -0.2969 -1.6325
17828TIP3    H274976   3.213   0.783   0.004  0.1509 -0.2515 -0.9931
17829TIP3   OH274977   0.728   0.837  14.876 -0.1613 -0.2749 -0.4851
17829TIP3    H174978   0.768   0.750  14.871 -1.6055 -1.0079  0.1372
17829TIP3    H274979   0.764   0.875  14.955 -1.6082 -1.4569  0.8091
17830TIP3   OH274980   4.174   0.044  16.471 -0.1418  0.6756  0.1482
17830TIP3    H174981   4.167   0.014  16.380  0.0156 -2.4043  1.0472
17830TIP3    H274982   4.263   0.078  16.478  0.1098  0.2125 -0.6568
17831TIP3   OH274983   5.521   4.228  15.879 -0.1185 -0.0464 -0.3467
17831TIP3    H174984   5.510   4.297  15.944 -2.7606  0.5072 -1.2668
17831TIP3    H274985   5.604   4.186  15.902 -0.1340  1.2107  2.3030
17832TIP3   OH274986   2.065   5.776   0.934 -0.2298 -0.3318  0.1504
17832TIP3    H174987   1.973   5.761   0.955 -0.5702  0.9245 -0.3103
17832TIP3    H274988   2.069   5.870   0.913  1.4173 -0.0190  1.5754
17833TIP3   OH274989   0.762   0.719  13.146  0.2053  0.4554 -0.3552
17833TIP3    H174990   0.676   0.687  13.172  0.8685 -1.7081 -0.6190
17833TIP3    H274991   0.756   0.814  13.153 -1.9390  0.3052  0.3995
17834TIP3   OH274992   2.847   2.338   3.259 -0.0333 -0.1926  0.0368
17834TIP3    H174993   2.834   2.371   3.170  2.5082  2.2829  0.4314
17834TIP3    H274994   2.908   2.265   3.250 -0.9584 -0.9366 -0.3404
17835TIP3   OH274995   3.284   0.586   0.474 -0.2899 -0.0747  0.2213
17835TIP3    H174996   3.349   0.655   0.464 -0.0508 -0.0709  1.6108
17835TIP3    H274997   3.334   0.505   0.469 -0.7014 -0.2544 -2.4758
17836TIP3   OH274998   5.532   2.923  14.040  0.3479  0.0908 -0.2200
17836TIP3    H174999   5.564   2.899  13.953  2.9665  1.6324  0.1927
17836TIP3    H275000   5.556   2.849  14.096 -0.3449 -0.4342 -0.6155
17837TIP3   OH275001   5.554   3.571  11.033  0.4233 -0.3708  0.8013
17837TIP3    H175002   5.593   3.484  11.028  0.9655 -0.1082  0.4352
17837TIP3    H275003   5.554   3.603  10.943 -0.7418 -0.4086  0.7746
17838TIP3   OH275004   0.853   5.187   5.414  0.7266 -0.1072 -0.2008
17838TIP3    H175005   0.760   5.170   5.433  0.3560  1.0962 -0.8622
17838TIP3    H275006   0.863   5.164   5.322  1.1752 -0.5411 -0.0486
17839TIP3   OH275007   5.673   6.649   0.710 -0.2427 -0.2930 -0.0816
17839TIP3    H175008   5.733   6.669   0.782 -1.6720 -1.1118  1.4125
17839TIP3    H275009   5.661   6.732   0.664 -0.0062  0.4785  1.2067
17840TIP3   OH275010   4.034   2.404   5.095  0.6301  0.0283 -0.2400
17840TIP3    H175011   4.083   2.323   5.105 -0.7283 -0.6532  1.3523
17840TIP3    H275012   4.042   2.425   5.002  2.0076 -1.2580 -0.4590
17841TIP3   OH275013   1.469   2.399   3.803  0.2635 -0.2942  0.0112
17841TIP3    H175014   1.492   2.325   3.859 -0.6625 -2.0714 -1.8247
17841TIP3    H275015   1.538   2.401   3.736  0.1207  0.3374 -0.1259
17842TIP3   OH275016   0.815   6.016   2.849  0.6232  0.0538 -0.6679
17842TIP3    H175017   0.798   5.928   2.816 -0.4312  0.2966 -0.7897
17842TIP3    H275018   0.728   6.053   2.866  1.0591  1.0287 -0.5039
17843TIP3   OH275019   2.226   3.944   1.524 -0.2671 -0.2075 -0.7668
17843TIP3    H175020   2.258   3.970   1.611  1.6194 -0.3158 -1.3913
17843TIP3    H275021   2.172   4.018   1.496 -0.6551 -0.0325  0.3610
17844TIP3   OH275022   0.513   3.856   5.427  0.5263 -0.1735 -0.1847
17844TIP3    H175023   0.503   3.827   5.336 -1.9612 -1.1835  0.3313
17844TIP3    H275024   0.470   3.941   5.430 -1.5727 -1.2083  0.5015
17845TIP3   OH275025   6.587   5.653   1.302  0.4031 -0.2625 -0.3513
17845TIP3    H175026   6.607   5.570   1.344  2.1869  0.1278 -0.3484
17845TIP3    H275027   6.651   5.715   1.338 -0.8051  1.1019 -0.4297
17846TIP3   OH275028   1.456   2.554  14.357 -0.2107  0.3299 -0.4583
17846TIP3    H175029   1.512   2.548  14.434 -0.7126  0.1957 -0.0949
17846TIP3    H275030   1.509   2.519  14.285 -0.1384 -0.6363  0.0466
17847TIP3   OH275031   1.055   3.179   5.540 -0.3928  0.2337  0.0450
17847TIP3    H175032   1.101   3.260   5.561 -1.0746  0.0927  2.3492
17847TIP3    H275033   1.119   3.110   5.555 -0.4948  0.2153  0.4077
17848TIP3   OH275034   3.461   4.162  13.125  0.8128  0.4171  0.2924
17848TIP3    H175035   3.392   4.139  13.063  0.7726  1.3795 -0.0314
17848TIP3    H275036   3.415   4.198  13.200  0.9712  1.3945 -0.0710
17849TIP3   OH275037   3.662   6.058  11.622 -0.4532 -0.0874 -0.0488
17849TIP3    H175038   3.580   6.049  11.671 -0.1186  0.0701  0.5598
17849TIP3    H275039   3.639   6.039  11.532 -1.1138 -0.2724  0.1547
17850TIP3   OH275040   2.413   4.234  16.510 -0.6942 -0.6530 -0.1947
17850TIP3    H175041   2.378   4.313  16.550 -1.5171 -0.6894 -0.8195
17850TIP3    H275042   2.481   4.265  16.451 -0.3844 -0.4937  0.2411
17851TIP3   OH275043   3.836   6.502  10.751 -0.2478 -0.1234 -0.0553
17851TIP3    H175044   3.922   6.524  10.716  0.1479 -0.6312  0.5730
17851TIP3    H275045   3.847   6.507  10.846  0.0898 -3.7002  0.2179
17852TIP3   OH275046   2.206   0.499   0.754  0.5173 -0.5312 -0.1085
17852TIP3    H175047   2.113   0.487   0.775  0.4493 -1.2837 -0.7845
17852TIP3    H275048   2.244   0.537   0.833 -0.4278  0.0828  0.0669
17853TIP3   OH275049   3.722   4.065   3.581 -0.6816 -0.1157 -0.5267
17853TIP3    H175050   3.634   4.049   3.615 -1.7448  3.3165 -1.3100
17853TIP3    H275051   3.774   4.087   3.658 -0.3578 -2.3281 -0.0368
17854TIP3   OH275052   6.299   4.325  14.368 -0.0754 -0.0455  0.3681
17854TIP3    H175053   6.377   4.276  14.393  0.4145  0.0260 -0.9373
17854TIP3    H275054   6.233   4.299  14.433  0.8909 -0.4497  1.2249
17855TIP3   OH275055   2.412   1.141  14.490  0.1816  0.2152  0.2874
17855TIP3    H175056   2.505   1.159  14.494  0.2387 -0.0640  0.2641
17855TIP3    H275057   2.383   1.176  14.406  0.1893  0.6442  0.4637
17856TIP3   OH275058   0.219   3.676   0.146 -0.8367  0.0143 -0.1815
17856TIP3    H175059   0.222   3.586   0.180 -1.0596  0.4950  1.1590
17856TIP3    H275060   0.133   3.682   0.105 -0.4070 -0.6978 -1.2495
17857TIP3   OH275061   6.665   5.783  16.309 -0.3446 -0.8038  0.7594
17857TIP3    H175062   6.725   5.822  16.246 -0.0709  1.1020  2.1467
17857TIP3    H275063   6.599   5.850  16.325 -0.3639 -1.2036  2.5675
17858TIP3   OH275064   6.158   6.276   3.506  0.2149 -0.0943 -0.1667
17858TIP3    H175065   6.200   6.317   3.431  0.4875  0.6855  0.4078
17858TIP3    H275066   6.064   6.284   3.488  0.2499 -2.0973 -1.5908
17859TIP3   OH275067   6.208   4.001  13.244 -0.4145  0.6624  0.4658
17859TIP3    H175068   6.146   3.965  13.307 -0.6819 -0.8105 -0.5923
17859TIP3    H275069   6.271   4.050  13.298 -0.6180 -0.5592  1.8796
17860TIP3   OH275070   2.488   6.146   4.025  0.0708 -0.4798  0.0999
17860TIP3    H175071   2.425   6.137   4.097 -0.0301 -0.1655  0.0554
17860TIP3    H275072   2.570   6.111   4.060  0.3272  0.7317  0.7930
17861TIP3   OH275073   5.215   1.381  11.456  0.7009 -0.7727  0.4941
17861TIP3    H175074   5.180   1.424  11.378  0.4371 -1.1244  0.4137
17861TIP3    H275075   5.310   1.378  11.442  0.5539 -2.0589 -0.4645
17862TIP3   OH275076   0.106   4.663   5.158 -0.1916 -0.0362 -0.4089
17862TIP3    H175077   0.059   4.613   5.091  0.7122 -1.8482  0.2350
17862TIP3    H275078   0.066   4.636   5.241 -0.7905  1.6079 -0.1143
17863TIP3   OH275079   6.309   3.759   3.849  0.3638 -0.0826  0.0027
17863TIP3    H175080   6.249   3.776   3.922  0.7446 -1.3064  0.6118
17863TIP3    H275081   6.351   3.844   3.833 -2.4465  1.2172 -1.3410
17864TIP3   OH275082   1.680   1.648  12.755 -0.2034  0.1028  0.0594
17864TIP3    H175083   1.654   1.562  12.787  2.0854  0.2925  2.8349
17864TIP3    H275084   1.702   1.634  12.663 -1.3728 -1.8888  0.0226
17865TIP3   OH275085   5.458   4.199   4.999  0.5609 -0.0647  0.3715
17865TIP3    H175086   5.489   4.263   5.063  2.0591  0.9017 -1.2571
17865TIP3    H275087   5.522   4.128   5.004  0.7677  0.0839 -0.1560
17866TIP3   OH275088   1.136   1.985  15.118 -0.0643 -0.5490 -0.1867
17866TIP3    H175089   1.191   1.979  15.196 -0.7269  3.5185  0.8678
17866TIP3    H275090   1.047   1.969  15.149 -0.3739  1.4297  0.1065
17867TIP3   OH275091   1.948   0.329   3.637 -0.1618 -0.3837  0.1519
17867TIP3    H175092   1.939   0.248   3.587  0.7558 -0.6164  0.3497
17867TIP3    H275093   2.001   0.305   3.712 -0.1647  0.3306  0.3899
17868TIP3   OH275094   0.672   6.184   3.100  0.0447 -0.2538  0.6270
17868TIP3    H175095   0.631   6.149   3.022  0.1756 -0.5523  0.6904
17868TIP3    H275096   0.723   6.111   3.136 -0.2883 -0.2196  1.1812
17869TIP3   OH275097   6.180   1.755   5.744  0.0231  0.3647  0.0825
17869TIP3    H175098   6.204   1.666   5.717  1.0099  0.1746  1.5046
17869TIP3    H275099   6.250   1.782   5.804 -1.3814  1.2331  1.4121
17870TIP3   OH275100   6.056   0.199  15.389 -0.1527 -0.2298  0.2638
17870TIP3    H175101   6.045   0.118  15.339  0.9727  0.8150 -1.8302
17870TIP3    H275102   6.076   0.170  15.478  1.8195 -2.3497 -0.7525
17871TIP3   OH275103   5.607   4.931   4.017  0.1226 -0.4502  0.2241
17871TIP3    H175104   5.540   4.959   3.955  0.2192  0.5709  0.5627
17871TIP3    H275105   5.587   4.839   4.034 -1.1453 -0.1903  0.2480
17872TIP3   OH275106   6.708   1.594  16.177 -0.7247 -0.6433  0.2427
17872TIP3    H175107   6.705   1.499  16.190  0.2902 -0.6125  0.8258
17872TIP3    H275108   6.624   1.616  16.137 -0.9188 -1.8028 -0.0095
17873TIP3   OH275109   5.538   1.497   4.089 -0.0374  0.1351 -0.1410
17873TIP3    H175110   5.576   1.475   4.004  0.5965 -1.4346  0.5207
17873TIP3    H275111   5.562   1.424   4.146 -0.4881  1.1406  1.3866
17874TIP3   OH275112   3.200   1.148  13.766 -0.3659  0.3077  0.2516
17874TIP3    H175113   3.292   1.157  13.739 -0.1068  0.5165  1.1532
17874TIP3    H275114   3.200   1.074  13.828 -0.5825  1.0455  1.1607
17875TIP3   OH275115   0.867   4.993  12.596  0.7474  0.2549 -0.1783
17875TIP3    H175116   0.959   5.020  12.606  0.5097  1.4093 -0.9257
17875TIP3    H275117   0.818   5.075  12.602 -0.2568 -0.3783  0.3922
17876TIP3   OH275118   3.555   2.122  13.429 -0.3136 -0.0961  0.2714
17876TIP3    H175119   3.597   2.049  13.385 -0.3227  0.0657 -0.0098
17876TIP3    H275120   3.559   2.194  13.366  1.4503  0.7293  1.2346
17877TIP3   OH275121   0.930   2.325  12.328  0.2237 -0.0295 -0.2331
17877TIP3    H175122   0.872   2.371  12.268 -2.3008 -0.3845  1.7272
17877TIP3    H275123   0.986   2.394  12.365  1.4598  0.2599 -2.4737
17878TIP3   OH275124   2.358   1.983   2.008  0.5352  0.4427 -0.5690
17878TIP3    H175125   2.314   2.044   2.067  2.2964 -1.2801  2.8225
17878TIP3    H275126   2.447   2.016   2.001  0.9521 -0.6019 -0.3843
17879TIP3   OH275127   2.188   1.472  15.294  0.5569  0.5285  0.7699
17879TIP3    H175128   2.197   1.451  15.201 -0.5552 -0.2107  0.8078
17879TIP3    H275129   2.100   1.442  15.317  0.9751  0.2754  2.1652
17880TIP3   OH275130   4.511   2.106  15.826  0.2380 -0.3752  0.1316
17880TIP3    H175131   4.530   2.200  15.820 -1.2150 -0.0070  0.8518
17880TIP3    H275132   4.544   2.080  15.912  0.4224 -0.4801  0.0302
17881TIP3   OH275133   5.883   1.638   2.114 -0.5337 -0.7021  0.3555
17881TIP3    H175134   5.931   1.572   2.064 -0.4835 -0.7390  0.4529
17881TIP3    H275135   5.798   1.646   2.069 -0.0925  0.0403 -0.3768
17882TIP3   OH275136   0.010   4.753  12.508  0.3765  0.9002  0.1446
17882TIP3    H175137   0.040   4.700  12.434  0.0175  2.1156 -0.9038
17882TIP3    H275138  -0.068   4.709  12.539 -0.0225  0.8892 -0.8346
17883TIP3   OH275139   0.751   6.341  11.536  0.3652 -0.4102 -0.4355
17883TIP3    H175140   0.711   6.340  11.622 -2.8799 -0.0856 -1.8131
17883TIP3    H275141   0.720   6.422  11.495  0.7134 -1.1883 -2.3762
17884TIP3   OH275142   1.247   1.263   5.757  0.3222 -0.1969 -0.5842
17884TIP3    H175143   1.339   1.270   5.782  0.1148 -2.3145  1.1521
17884TIP3    H275144   1.199   1.291   5.835 -0.4837 -0.2625 -1.0480
17885TIP3   OH275145   4.388   1.353  16.183  0.4138 -0.3271  0.2412
17885TIP3    H175146   4.425   1.285  16.127  0.4354 -0.3053  0.2291
17885TIP3    H275147   4.340   1.305  16.251 -1.2362 -0.3219 -0.8957
17886TIP3   OH275148   2.390   6.041  11.483 -0.0919 -0.1875  0.2837
17886TIP3    H175149   2.328   5.987  11.434  2.2132 -1.7220 -1.1597
17886TIP3    H275150   2.427   5.981  11.548  1.0321  0.2084  0.0299
17887TIP3   OH275151   6.259   2.109  15.424 -0.2103 -0.2544 -0.3233
17887TIP3    H175152   6.305   2.071  15.499 -0.9900 -1.5980 -0.4886
17887TIP3    H275153   6.316   2.180  15.394  1.6309 -1.6778 -0.3699
17888TIP3   OH275154   0.751   0.930  11.523  0.6650 -0.1864  0.2708
17888TIP3    H175155   0.684   0.879  11.478 -0.7371  1.5715  0.2508
17888TIP3    H275156   0.813   0.865  11.556 -1.5293 -1.9953  1.0803
17889TIP3   OH275157   2.305   2.068  11.386 -0.4134 -0.4994  0.3065
17889TIP3    H175158   2.221   2.095  11.350 -0.8135  1.7759  2.6444
17889TIP3    H275159   2.303   1.972  11.383 -1.7350 -0.4952 -2.4244
17890TIP3   OH275160   4.646   4.220  11.739  0.3691 -0.2063  0.2160
17890TIP3    H175161   4.598   4.165  11.677 -1.0931  2.2369 -0.9817
17890TIP3    H275162   4.738   4.208  11.716 -0.0328 -0.6915 -1.2486
17891TIP3   OH275163   5.597   4.513  12.273  0.0341 -0.2020  0.0284
17891TIP3    H175164   5.507   4.529  12.300  0.5552  0.5074  1.4307
17891TIP3    H275165   5.632   4.453  12.338  0.6372 -0.3382 -0.4054
17892TIP3   OH275166   1.123   3.286   4.438  0.6167  0.0345  0.4201
17892TIP3    H175167   1.066   3.239   4.499 -0.3580  1.1822  0.4273
17892TIP3    H275168   1.126   3.231   4.360 -3.3144  1.4274 -0.9417
17893TIP3   OH275169   4.571   6.114   1.157  0.2506 -0.1135 -0.1775
17893TIP3    H175170   4.619   6.033   1.144  1.2897 -0.0337  2.6192
17893TIP3    H275171   4.484   6.086   1.187 -0.6207 -0.1887 -2.5652
17894TIP3   OH275172   6.116   3.164   5.174 -0.4470  0.1813  0.2551
17894TIP3    H175173   6.087   3.253   5.198  0.6448  1.1366 -1.7589
17894TIP3    H275174   6.136   3.123   5.258 -0.6201  1.9640  1.2232
17895TIP3   OH275175   5.207   4.532  13.150  0.1327 -0.3711 -0.6059
17895TIP3    H175176   5.121   4.570  13.131 -0.0791  1.2153  2.8736
17895TIP3    H275177   5.248   4.592  13.212  1.8261 -3.3943  1.5017
17896TIP3   OH275178   2.740   6.756   2.614 -0.2006 -0.1555 -0.2264
17896TIP3    H175179   2.735   6.843   2.574  0.8183  0.5420  1.0796
17896TIP3    H275180   2.832   6.731   2.605 -0.5720 -1.3092 -0.9807
17897TIP3   OH275181   1.011   3.871  12.309  1.0313 -0.2615  0.1451
17897TIP3    H175182   0.949   3.921  12.256  1.6553 -0.9125 -1.2459
17897TIP3    H275183   1.014   3.785  12.268 -0.5694 -1.7784  2.9302
17898TIP3   OH275184   2.832   2.526  11.447  0.1455  1.3517  0.0051
17898TIP3    H175185   2.783   2.553  11.524 -1.4589  2.3359 -1.3052
17898TIP3    H275186   2.912   2.486  11.482 -2.2744 -1.9916  2.3097
17899TIP3   OH275187   3.622   4.780  14.868 -0.4943  0.3433  0.1690
17899TIP3    H175188   3.625   4.712  14.935 -0.0538  0.3513  0.1595
17899TIP3    H275189   3.624   4.862  14.918  2.3504  0.4064  0.1254
17900TIP3   OH275190   5.923   2.434   2.702 -0.3985  0.3274 -0.5751
17900TIP3    H175191   5.970   2.455   2.782 -0.0113 -0.2810 -0.6330
17900TIP3    H275192   5.844   2.389   2.731 -0.7903  1.0566 -0.4924
17901TIP3   OH275193   3.184   0.146   1.842  0.4964  0.0652 -0.0699
17901TIP3    H175194   3.157   0.140   1.934  0.5332 -0.3598 -0.0829
17901TIP3    H275195   3.135   0.076   1.799  2.8471 -1.8943  0.2012
17902TIP3   OH275196   6.376   3.510  16.184  0.8375  0.1800  0.2306
17902TIP3    H175197   6.429   3.447  16.232  2.0975  1.0369  0.0080
17902TIP3    H275198   6.406   3.595  16.215  0.6959  0.7140 -1.0395
17903TIP3   OH275199   3.887   2.610   5.623  0.2924  0.5604  0.1410
17903TIP3    H175200   3.798   2.638   5.644  0.3656 -0.5132  2.1709
17903TIP3    H275201   3.918   2.675   5.560 -2.2919  0.2654 -1.5875
17904TIP3   OH275202   4.905   2.209  17.049  0.0094  0.6805 -0.1903
17904TIP3    H175203   4.889   2.132  16.994  0.8956  1.6214 -1.8222
17904TIP3    H275204   4.998   2.204  17.071  0.3134  1.7690 -1.1253
17905TIP3   OH275205   3.011   1.735  14.599 -0.1482 -0.1825  0.2718
17905TIP3    H175206   3.071   1.675  14.555 -0.2726 -0.3838  0.3751
17905TIP3    H275207   2.970   1.784  14.528  0.8254  0.6232  0.2412
17906TIP3   OH275208   6.209   4.586  16.887 -0.1187  0.6852 -0.2609
17906TIP3    H175209   6.269   4.643  16.936 -0.0851  0.7319 -0.3575
17906TIP3    H275210   6.141   4.645  16.854 -0.2424  0.6249 -0.1150
17907TIP3   OH275211   5.953   5.750  11.312  0.0021  0.4961 -0.0558
17907TIP3    H175212   6.041   5.778  11.336  0.2922 -0.0965 -0.4292
17907TIP3    H275213   5.919   5.821  11.257  0.3882  0.5392 -0.2359
17908TIP3   OH275214   3.128   4.449   5.802 -0.1902  0.4497 -0.4567
17908TIP3    H175215   3.123   4.537   5.765  0.4522  0.0618 -1.5061
17908TIP3    H275216   3.073   4.396   5.745 -1.9025  0.4453  1.1159
17909TIP3   OH275217   2.347   0.425  12.785  0.4508 -0.1819 -0.4399
17909TIP3    H175218   2.329   0.397  12.875 -1.1737 -3.0030 -1.5220
17909TIP3    H275219   2.306   0.511  12.779  3.1050  1.4726  2.2301
17910TIP3   OH275220   0.661   6.571  11.282 -0.0612  0.2945  0.0124
17910TIP3    H175221   0.630   6.632  11.216  0.2673 -0.0885 -0.5005
17910TIP3    H275222   0.581   6.538  11.324 -0.3016  0.0970 -0.5923
17911TIP3   OH275223   5.787   6.810  14.099 -0.7175 -0.0336 -0.0043
17911TIP3    H175224   5.870   6.779  14.063 -0.8667 -2.2384  1.2972
17911TIP3    H275225   5.812   6.873  14.167 -0.1361 -0.1448 -0.1112
17912TIP3   OH275226   4.878   5.724   4.597  0.7707  0.0252 -1.0029
17912TIP3    H175227   4.955   5.771   4.627  0.0819  1.3158 -1.1815
17912TIP3    H275228   4.810   5.791   4.591 -0.6413 -1.2464  0.0692
17913TIP3   OH275229   6.669   5.714   1.044 -0.1772 -0.4920 -0.2474
17913TIP3    H175230   6.640   5.708   1.135  0.1693 -1.4914 -0.1865
17913TIP3    H275231   6.594   5.752   0.997  0.9243  3.7214  1.0197
17914TIP3   OH275232   5.177   2.009   1.854 -0.4797 -0.5130  0.3398
17914TIP3    H175233   5.088   1.988   1.826 -0.9590  2.3904 -0.5966
17914TIP3    H275234   5.170   2.020   1.949 -1.4459  0.9349  0.1266
17915TIP3   OH275235   3.362   5.877  12.167  1.0522 -0.1744  0.1833
17915TIP3    H175236   3.349   5.972  12.158  1.7682 -0.0301  0.5647
17915TIP3    H275237   3.425   5.855  12.099  0.1361 -0.5619 -0.5558
17916TIP3   OH275238   1.176   4.473   3.558 -0.4999 -0.3000  0.1657
17916TIP3    H175239   1.209   4.547   3.508 -0.2369 -1.4149 -1.4095
17916TIP3    H275240   1.255   4.424   3.583 -0.7519 -1.1634 -0.6611
17917TIP3   OH275241   5.367   5.598   6.474  0.3833 -0.8647  0.0213
17917TIP3    H175242   5.453   5.640   6.477 -0.1750  0.6045 -2.2791
17917TIP3    H275243   5.365   5.554   6.389 -2.3963  2.2516 -1.7622
17918TIP3   OH275244   2.248   1.214  12.738 -0.6553  0.0992  1.0637
17918TIP3    H175245   2.288   1.228  12.652 -0.7052 -1.3533  0.7787
17918TIP3    H275246   2.160   1.183  12.719 -0.1062 -1.9012  1.5677
17919TIP3   OH275247   0.769   5.769  11.670  0.3610 -0.0338 -0.1977
17919TIP3    H175248   0.863   5.780  11.652 -0.0092 -0.4310 -2.7566
17919TIP3    H275249   0.759   5.676  11.686  0.7835  0.3859  3.3002
17920TIP3   OH275250   0.902   1.403  13.420  0.1698 -0.1819 -0.7765
17920TIP3    H175251   0.877   1.418  13.329 -0.2866  0.4377 -0.5555
17920TIP3    H275252   0.989   1.362  13.414  0.2157 -0.0044 -1.4837
17921TIP3   OH275253   5.445   5.834  13.717  0.6911  0.4568  0.0784
17921TIP3    H175254   5.470   5.920  13.684 -0.6936 -0.3127 -3.4167
17921TIP3    H275255   5.484   5.773  13.654 -1.5510 -1.2281  0.2199
17922TIP3   OH275256   6.792   2.485   2.596  0.0438  0.2480 -0.3222
17922TIP3    H175257   6.876   2.485   2.642  0.5795 -1.9158 -1.1513
17922TIP3    H275258   6.739   2.420   2.642 -0.5306  0.2976 -0.8870
17923TIP3   OH275259   1.564   6.060   0.328 -0.1713  0.0033 -0.0073
17923TIP3    H175260   1.546   6.115   0.252  1.4115  0.1208 -0.3376
17923TIP3    H275261   1.505   6.092   0.396 -1.6553 -0.1365 -1.1758
17924TIP3   OH275262   4.171   5.556   3.510  0.3465  0.6469 -0.7518
17924TIP3    H175263   4.076   5.549   3.520  0.6629 -3.2340  1.1301
17924TIP3    H275264   4.187   5.537   3.417 -0.6069 -3.5044 -0.2460
17925TIP3   OH275265   1.306   0.287  14.364  0.3317 -0.6188 -0.0957
17925TIP3    H175266   1.284   0.378  14.345  1.0950 -0.8293 -2.2654
17925TIP3    H275267   1.243   0.261  14.432  0.0307  1.4670  0.4990
17926TIP3   OH275268   2.137   2.229   2.949  0.0520  0.2332 -0.5382
17926TIP3    H175269   2.139   2.135   2.928  0.6025  0.1323 -0.0542
17926TIP3    H275270   2.076   2.266   2.885 -2.2083 -0.8373  0.8769
17927TIP3   OH275271   3.884   2.356   5.951 -0.0269  0.2718 -0.6547
17927TIP3    H175272   3.971   2.392   5.929  0.0412  2.4993  2.4825
17927TIP3    H275273   3.839   2.351   5.867  2.3532  1.3116 -2.1309
17928TIP3   OH275274   3.867   4.376   3.594  0.0384  0.0692  0.1956
17928TIP3    H175275   3.908   4.457   3.625 -2.2144  1.3796 -0.0322
17928TIP3    H275276   3.864   4.320   3.672  2.9034 -0.4343  0.0302
17929TIP3   OH275277   3.619   3.414  13.380 -0.2123  0.8720 -0.0130
17929TIP3    H175278   3.627   3.353  13.453  1.4104  0.7639 -0.2516
17929TIP3    H275279   3.687   3.480  13.395  0.3744  0.6696 -1.5694
17930TIP3   OH275280   4.215   2.178  14.181 -0.2110  0.2497 -0.0582
17930TIP3    H175281   4.126   2.194  14.214 -0.1885  0.1735  0.0383
17930TIP3    H275282   4.218   2.084  14.167  0.4830 -0.0134  1.7326
17931TIP3   OH275283   3.849   3.318   1.763  0.0117 -0.1857 -0.2605
17931TIP3    H175284   3.898   3.386   1.809  1.9794  0.8100 -3.4648
17931TIP3    H275285   3.913   3.248   1.748 -0.6854 -0.6845 -0.9933
17932TIP3   OH275286   5.806   6.606   4.740 -0.3990 -0.4731 -0.4149
17932TIP3    H175287   5.846   6.661   4.806  0.1197 -2.4787  1.0441
17932TIP3    H275288   5.867   6.609   4.666 -0.0813  0.3912 -0.1311
17933TIP3   OH275289   0.362   3.974  15.294  0.4750 -0.6048  0.1008
17933TIP3    H175290   0.376   3.973  15.199  0.6442 -1.3212  0.1206
17933TIP3    H275291   0.267   3.978  15.305  0.4783  0.0196 -0.0929
17934TIP3   OH275292   4.558   0.562   5.605  0.2230  0.3038  0.1417
17934TIP3    H175293   4.610   0.493   5.645  2.3658  1.2258 -0.8618
17934TIP3    H275294   4.483   0.572   5.663  0.5347 -1.9095  1.0394
17935TIP3   OH275295   5.788   2.478  13.288 -0.4503 -0.9530  0.3107
17935TIP3    H175296   5.702   2.505  13.321 -1.6091 -2.1188 -1.5690
17935TIP3    H275297   5.768   2.421  13.214  1.9827 -0.8386 -0.5035
17936TIP3   OH275298   2.658   3.139   3.178  0.0061 -0.0815  0.3772
17936TIP3    H175299   2.599   3.065   3.190 -1.4417  1.3792  3.2095
17936TIP3    H275300   2.712   3.139   3.258  0.0908  1.7959  0.3436
17937TIP3   OH275301   2.595   5.657   0.258 -0.4990 -0.3279  0.2607
17937TIP3    H175302   2.635   5.738   0.292 -1.1999  0.8125 -1.4987
17937TIP3    H275303   2.526   5.637   0.322 -0.1092  0.2696  0.8907
17938TIP3   OH275304   1.864   1.925   2.983  0.0393 -0.2828  0.8148
17938TIP3    H175305   1.945   1.944   2.934  1.0646  0.5010  2.6933
17938TIP3    H275306   1.828   2.012   3.003 -1.1746 -0.6238  0.2032
17939TIP3   OH275307   1.665   1.529   0.225  0.0326 -0.1853 -0.1482
17939TIP3    H175308   1.664   1.451   0.171 -1.1442 -0.5168  0.3189
17939TIP3    H275309   1.709   1.595   0.172  0.6376 -1.0381 -0.7231
17940TIP3   OH275310   2.214   0.617  13.878  0.0429  0.5765 -0.2859
17940TIP3    H175311   2.251   0.679  13.940  0.1697  0.1879  0.0278
17940TIP3    H275312   2.254   0.533  13.900 -0.7967  0.1993 -0.1190
17941TIP3   OH275313   1.895   5.443  13.503  0.0830  0.2396  1.3134
17941TIP3    H175314   1.914   5.537  13.494 -1.2363  0.6152  2.0920
17941TIP3    H275315   1.915   5.406  13.417  0.0063  1.3617  0.7972
17942TIP3   OH275316   1.811   5.532   1.732 -0.1123  0.0537  0.0345
17942TIP3    H175317   1.890   5.486   1.704 -0.1851 -1.3144  1.8976
17942TIP3    H275318   1.839   5.586   1.806 -0.9539 -0.7267  0.9566
17943TIP3   OH275319   3.273   5.253  13.453 -0.1608 -0.2849  0.3319
17943TIP3    H175320   3.293   5.337  13.411 -0.0573  0.6615  2.1408
17943TIP3    H275321   3.336   5.192  13.417 -0.7508  0.2052 -1.6208
17944TIP3   OH275322   3.526   4.238  15.112  0.0210 -0.2975  0.4446
17944TIP3    H175323   3.566   4.271  15.031  0.6907 -2.0513  0.0281
17944TIP3    H275324   3.597   4.241  15.176  0.4918 -2.1350  0.0541
17945TIP3   OH275325   3.585   1.746   1.632 -0.2876  0.1329  0.0293
17945TIP3    H175326   3.629   1.821   1.593 -1.1091 -0.0655 -1.3523
17945TIP3    H275327   3.574   1.684   1.560 -1.5853 -0.3849  0.6342
17946TIP3   OH275328   1.252   6.594   2.842 -0.2170  0.3243 -0.0336
17946TIP3    H175329   1.235   6.662   2.777 -0.8022 -0.4805 -0.7483
17946TIP3    H275330   1.181   6.602   2.905 -1.0434 -0.4470 -0.8350
17947TIP3   OH275331   4.873   1.218  11.039  0.0212  0.1913 -0.0741
17947TIP3    H175332   4.880   1.216  10.944  1.2139 -1.6684 -0.0053
17947TIP3    H275333   4.861   1.310  11.061 -2.2363  0.4845 -2.1128
17948TIP3   OH275334   3.428   6.628   2.554 -0.0381 -0.2508 -0.1212
17948TIP3    H175335   3.417   6.721   2.573  0.6568 -0.1658 -0.1195
17948TIP3    H275336   3.369   6.584   2.615 -0.9101  0.2174 -0.6148
17949TIP3   OH275337   3.123   0.350  16.176  0.2581 -0.0076 -0.2787
17949TIP3    H175338   3.037   0.309  16.188 -0.2330  1.2626  0.7277
17949TIP3    H275339   3.128   0.417  16.243  0.6528  2.2177 -2.3786
17950TIP3   OH275340   5.552   6.270   0.764 -0.7009 -0.2847  0.0101
17950TIP3    H175341   5.539   6.182   0.798  0.6684 -0.2898  0.5466
17950TIP3    H275342   5.645   6.288   0.776 -0.7084  0.7672 -1.2228
17951TIP3   OH275343   2.653   3.149   0.209 -0.6142 -0.0345 -0.1066
17951TIP3    H175344   2.652   3.054   0.200 -0.8096 -0.2633  1.7968
17951TIP3    H275345   2.721   3.166   0.274 -2.1767  0.9008  1.3641
17952TIP3   OH275346   6.548   3.870  16.478  0.1678  0.0587 -0.1297
17952TIP3    H175347   6.517   3.780  16.488  0.8748 -0.2792 -0.8044
17952TIP3    H275348   6.483   3.923  16.523  1.2749 -0.9859  2.9367
17953TIP3   OH275349   4.863   0.330  11.978  0.3781  0.1670 -0.4367
17953TIP3    H175350   4.784   0.380  11.997 -0.4585 -0.3774 -2.2395
17953TIP3    H275351   4.833   0.240  11.966  0.6962  0.3591 -3.9122
17954TIP3   OH275352   3.331   4.832  12.649 -0.0495  0.0469 -0.1931
17954TIP3    H175353   3.390   4.762  12.624  1.0760  0.8938  0.0065
17954TIP3    H275354   3.263   4.832  12.582  0.3446 -0.7453 -0.6011
17955TIP3   OH275355   0.634   3.429   0.069  0.5663 -0.8680 -0.0109
17955TIP3    H175356   0.572   3.441  -0.003  0.4651 -1.6031 -0.0529
17955TIP3    H275357   0.669   3.341   0.056  1.4090 -0.5774  0.1833
17956TIP3   OH275358   1.715   6.066   5.455  0.2507 -0.1726  0.6599
17956TIP3    H175359   1.723   6.013   5.533  0.6568 -0.6489  0.3007
17956TIP3    H275360   1.804   6.068   5.418  0.1230  0.2792  0.3636
17957TIP3   OH275361   3.158   5.547   4.115  0.1148 -0.0515 -0.2522
17957TIP3    H175362   3.192   5.636   4.114 -0.8441  0.3734  1.4393
17957TIP3    H275363   3.069   5.555   4.080  0.5189 -0.6141 -1.4781
17958TIP3   OH275364   0.649   3.037  13.874 -0.1621 -0.6579  1.3107
17958TIP3    H175365   0.644   2.976  13.948  0.6144 -0.1530  1.7912
17958TIP3    H275366   0.724   3.006  13.823  1.8142  1.2810  2.8677
17959TIP3   OH275367   2.104   0.917  16.828 -0.4468 -0.2066 -0.0830
17959TIP3    H175368   2.120   0.845  16.889 -2.1907  0.0322  0.6988
17959TIP3    H275369   2.186   0.925  16.778 -0.3451 -2.9710 -0.4907
17960TIP3   OH275370   5.061   3.235  12.935 -0.2016  0.1878 -0.3888
17960TIP3    H175371   5.055   3.229  12.840  1.1091 -0.7144 -0.4346
17960TIP3    H275372   5.145   3.196  12.957 -0.8660 -0.4375  1.2267
17961TIP3   OH275373   6.014   0.962   0.972 -0.4853 -1.4179  0.2208
17961TIP3    H175374   5.997   1.017   0.895  0.9329 -0.4723  0.5504
17961TIP3    H275375   5.994   0.874   0.942 -0.6132 -0.9916 -1.0390
17962TIP3   OH275376   0.069   0.934  12.261  0.0646 -0.7747 -0.3059
17962TIP3    H175377   0.079   0.926  12.166  0.9400  0.8911 -0.3928
17962TIP3    H275378   0.158   0.941  12.294 -0.2564 -0.6929  0.5734
17963TIP3   OH275379   2.015   3.758   5.018 -0.3710 -0.6084  0.0546
17963TIP3    H175380   2.006   3.834   5.076  0.0488 -1.0631  0.7241
17963TIP3    H275381   1.988   3.684   5.071 -1.0623 -0.9029 -0.6887
17964TIP3   OH275382   6.381   3.233  15.808 -0.2025  0.2716  0.1832
17964TIP3    H175383   6.462   3.283  15.803 -0.7133  1.1194  0.1664
17964TIP3    H275384   6.337   3.267  15.886 -0.7908  0.2011 -0.1119
17965TIP3   OH275385   0.494   5.174  13.774 -0.1569  0.3367  0.1152
17965TIP3    H175386   0.449   5.125  13.705 -0.9016 -0.2470  1.0011
17965TIP3    H275387   0.426   5.230  13.812  0.5104  1.5224 -0.3751
17966TIP3   OH275388   0.215   3.801   3.278 -0.2818 -0.1356 -0.8099
17966TIP3    H175389   0.275   3.752   3.222  1.1576  0.2339  0.3288
17966TIP3    H275390   0.210   3.748   3.358 -1.0437  0.1275 -0.6807
17967TIP3   OH275391   6.464   5.686  14.998 -0.0109 -0.3255  0.4724
17967TIP3    H175392   6.480   5.765  14.947 -0.3168 -0.0562  0.7918
17967TIP3    H275393   6.384   5.649  14.961 -0.4881  0.1168  1.0552
17968TIP3   OH275394   1.606   6.551   4.753 -0.0396 -0.0948  0.2060
17968TIP3    H175395   1.671   6.585   4.691  0.1100  1.0731  0.9691
17968TIP3    H275396   1.570   6.473   4.710 -1.1892  1.5957 -2.1615
17969TIP3   OH275397   1.154   5.427   2.867  0.1568 -0.3124 -0.1319
17969TIP3    H175398   1.070   5.401   2.830  0.4139 -0.8649 -0.3355
17969TIP3    H275399   1.157   5.386   2.953  0.2793 -0.4050 -0.1808
17970TIP3   OH275400   3.489   2.867   1.093 -0.1079 -0.1542  0.9597
17970TIP3    H175401   3.520   2.868   1.003 -0.2675  1.5602  0.8848
17970TIP3    H275402   3.569   2.866   1.146  0.0015 -0.2408  0.7924
17971TIP3   OH275403   0.911   4.474  11.666  0.3494 -0.0716 -0.0288
17971TIP3    H175404   0.918   4.522  11.748  1.0549  1.2787 -0.8362
17971TIP3    H275405   0.886   4.385  11.692  0.6738  0.2902  1.6344
17972TIP3   OH275406   5.747   4.727   5.539 -0.1078 -0.0302  0.2537
17972TIP3    H175407   5.692   4.666   5.588 -1.0887  0.5270 -0.1212
17972TIP3    H275408   5.686   4.771   5.479  0.5976  1.2157  0.4240
17973TIP3   OH275409   3.773   0.664  15.581  0.1662 -0.3144 -0.2763
17973TIP3    H175410   3.762   0.594  15.646 -0.0284  0.2597  0.3135
17973TIP3    H275411   3.687   0.673  15.540 -0.3232  0.8374  0.9438
17974TIP3   OH275412   3.185   5.415  13.817 -0.5800 -0.1377  0.0021
17974TIP3    H175413   3.152   5.337  13.861 -0.7010  0.0272  0.2053
17974TIP3    H275414   3.278   5.417  13.839 -0.2746 -0.9679 -1.1108
17975TIP3   OH275415   6.674   5.885   3.467  0.2839  0.3328 -0.4023
17975TIP3    H175416   6.629   5.821   3.412  2.0048 -0.8740 -0.4934
17975TIP3    H275417   6.671   5.847   3.555 -1.5815  1.7724  0.2017
17976TIP3   OH275418   5.641   1.551  16.920 -0.2701  0.7519  0.0731
17976TIP3    H175419   5.580   1.611  16.963 -1.6337  0.1199 -0.8937
17976TIP3    H275420   5.599   1.532  16.836  0.0570 -1.6342  0.4035
17977TIP3   OH275421   4.930   4.922   0.193 -0.3690 -0.6037  0.1435
17977TIP3    H175422   4.964   4.953   0.277 -0.8359 -0.7983  0.4084
17977TIP3    H275423   4.919   5.002   0.140 -2.9082 -0.0805  1.3020
17978TIP3   OH275424   3.754   3.882   5.094 -0.1573  0.1270  0.4784
17978TIP3    H175425   3.673   3.928   5.071 -1.2390 -1.2301  1.3332
17978TIP3    H275426   3.801   3.943   5.150  0.7905  2.0348 -2.2141
17979TIP3   OH275427   5.885   4.752   4.815  0.0516  0.4581 -0.4638
17979TIP3    H175428   5.844   4.694   4.750  0.4431 -1.4656  0.9169
17979TIP3    H275429   5.827   4.747   4.891  0.3403  1.5514 -0.1566
17980TIP3   OH275430   0.094   6.633   4.059  0.0329  0.8623 -0.0504
17980TIP3    H175431   0.147   6.713   4.052  1.5481 -0.0983  0.1583
17980TIP3    H275432   0.045   6.645   4.140 -1.5560  2.5868 -1.1625
17981TIP3   OH275433   2.091   2.633   5.812  0.0195 -0.2443 -0.1187
17981TIP3    H175434   2.051   2.611   5.896 -1.7507 -1.2475 -1.1599
17981TIP3    H275435   2.094   2.729   5.812  0.8161 -0.2336  1.3895
17982TIP3   OH275436   5.028   6.218  11.443  0.4067 -0.0964  0.3540
17982TIP3    H175437   5.074   6.208  11.526  0.1526  0.3402  0.5499
17982TIP3    H275438   5.094   6.200  11.376  0.0000 -3.1745  0.6284
17983TIP3   OH275439   3.080   2.407   5.228 -0.2031 -0.7046 -0.3880
17983TIP3    H175440   3.081   2.323   5.272 -2.0440 -1.1301 -1.0770
17983TIP3    H275441   3.054   2.387   5.138 -1.1330  0.6394 -0.4464
17984TIP3   OH275442   6.809   0.200   4.141  0.1328 -0.5105  0.2289
17984TIP3    H175443   6.813   0.133   4.209  0.1167 -0.3646  0.3771
17984TIP3    H275444   6.892   0.247   4.150  0.5093 -1.0392 -0.4300
17985TIP3   OH275445   1.169   2.499  11.167 -0.2708  0.2600 -0.0110
17985TIP3    H175446   1.226   2.525  11.094  1.6631  0.3040  1.4306
17985TIP3    H275447   1.210   2.421  11.203  1.3206  2.4917  3.5648
17986TIP3   OH275448   3.063   3.574   0.992  0.4621 -0.5298 -0.1785
17986TIP3    H175449   3.126   3.646   0.996  1.3533 -1.3399  1.8043
17986TIP3    H275450   3.004   3.589   1.066 -1.9849  0.3931 -2.1772
17987TIP3   OH275451   4.246   4.932   3.301  0.2428 -0.5720  0.0103
17987TIP3    H175452   4.157   4.938   3.267 -0.1051  2.7679  1.1455
17987TIP3    H275453   4.235   4.925   3.396  1.1730 -0.4617  0.1384
17988TIP3   OH275454   4.599   3.687  12.487 -0.0762  0.3608 -0.5848
17988TIP3    H175455   4.618   3.772  12.525  0.3464 -0.7048  1.7549
17988TIP3    H275456   4.512   3.665  12.518  0.6127 -0.9070  0.5924
17989TIP3   OH275457   3.147   5.310   3.339 -0.1233 -0.5556  0.0139
17989TIP3    H175458   3.093   5.255   3.283  0.8747 -0.0917 -1.4674
17989TIP3    H275459   3.158   5.259   3.419 -2.7036 -0.6633  0.3922
17990TIP3   OH275460   6.614   3.495   5.070  0.1542  0.4976 -0.0847
17990TIP3    H175461   6.600   3.528   5.158 -0.5159  1.8274 -0.6607
17990TIP3    H275462   6.546   3.537   5.017 -0.7505 -1.8026 -0.8929
17991TIP3   OH275463   3.224   5.041  15.053 -0.0601 -0.7421 -0.2805
17991TIP3    H175464   3.273   4.981  15.110 -0.9880 -0.2283  1.1242
17991TIP3    H275465   3.279   5.119  15.047 -0.5698 -0.2317  1.1543
17992TIP3   OH275466   4.031   2.374   4.603  0.0834 -0.1567  0.3743
17992TIP3    H175467   4.069   2.462   4.615 -0.5469  0.0410  0.9934
17992TIP3    H275468   4.106   2.319   4.580  0.6294  0.3776  0.8318
17993TIP3   OH275469   3.818   5.475  11.285 -0.2640 -0.2571 -0.6326
17993TIP3    H175470   3.865   5.548  11.244  0.6481 -1.5442 -2.0219
17993TIP3    H275471   3.888   5.415  11.314 -0.9647 -0.2592  1.1777
17994TIP3   OH275472   5.050   1.298  12.698  0.2690  0.6728 -0.4759
17994TIP3    H175473   5.100   1.240  12.640 -0.9334  0.3412 -1.2153
17994TIP3    H275474   5.113   1.324  12.766  1.7066  1.0557 -1.9027
17995TIP3   OH275475   1.983   1.274  16.410  0.0156  0.0521  0.0058
17995TIP3    H175476   2.011   1.297  16.322 -0.1151 -0.8905 -0.2902
17995TIP3    H275477   2.052   1.218  16.444 -0.0635  0.1897  0.4042
17996TIP3   OH275478   1.224   0.546  11.833  0.3432 -0.5363  0.1722
17996TIP3    H175479   1.275   0.624  11.811  2.0411 -1.0151  2.1291
17996TIP3    H275480   1.235   0.535  11.927 -0.5599 -2.6620  0.1021
17997TIP3   OH275481   5.767   5.171   4.521 -0.4473  0.3578  0.1288
17997TIP3    H175482   5.770   5.077   4.538 -0.9803  0.1789 -0.7154
17997TIP3    H275483   5.834   5.187   4.455  0.0225  0.6644  0.6755
17998TIP3   OH275484   2.931   1.672   4.064 -0.2905  0.4641 -0.0111
17998TIP3    H175485   2.838   1.694   4.059 -0.6560 -1.1630 -1.4970
17998TIP3    H275486   2.952   1.639   3.976  2.2981  2.9967 -0.4927
17999TIP3   OH275487   2.245   2.246  11.106 -0.1956  0.2157 -0.0268
17999TIP3    H175488   2.214   2.318  11.051 -2.0328 -2.0306 -2.1434
17999TIP3    H275489   2.178   2.237  11.174  0.6968  1.2423  1.0425
18000TIP3   OH275490   5.482   4.487   2.050 -0.1195  0.2119  0.2811
18000TIP3    H175491   5.496   4.581   2.040 -2.5973  0.6856  0.7806
18000TIP3    H275492   5.417   4.465   1.984  0.8278 -1.3030 -0.1951
18001TIP3   OH275493   6.346   6.477   5.874  0.2928 -0.4465  0.5575
18001TIP3    H175494   6.369   6.561   5.915 -1.6471  0.0287  0.7581
18001TIP3    H275495   6.424   6.423   5.886  1.6004  1.3205  0.4088
18002TIP3   OH275496   0.582   3.540   3.777 -0.0705 -0.3170  0.5126
18002TIP3    H175497   0.634   3.620   3.772  1.2720 -1.2305 -1.5415
18002TIP3    H275498   0.528   3.541   3.698 -2.0069 -0.2092  1.7820
18003TIP3   OH275499   5.318   6.462   3.737 -0.0265 -0.9956  0.1496
18003TIP3    H175500   5.328   6.557   3.722 -1.0684 -0.7970  0.6297
18003TIP3    H275501   5.355   6.422   3.659  0.2384 -0.1797 -0.1579
18004TIP3   OH275502   1.492   3.126  11.081  0.1458 -0.0827 -0.2577
18004TIP3    H175503   1.560   3.116  11.148  1.1946  3.2573 -0.6503
18004TIP3    H275504   1.412   3.144  11.131  0.0946 -1.2826  0.1302
18005TIP3   OH275505   6.484   6.492   6.196  0.6656  0.1659 -0.3126
18005TIP3    H175506   6.416   6.535   6.247  3.0159  3.8594  0.0666
18005TIP3    H275507   6.457   6.502   6.105  0.7902  1.9640 -0.1859
18006TIP3   OH275508   1.575   2.771   1.069 -0.1336 -0.3426  0.0680
18006TIP3    H175509   1.570   2.851   1.121 -0.9755 -1.3528  1.5918
18006TIP3    H275510   1.652   2.726   1.102  0.5034 -0.0578 -0.9834
18007TIP3   OH275511   3.656   4.547   0.150 -0.3599  0.2801 -0.2658
18007TIP3    H175512   3.750   4.530   0.164 -0.5145  0.7348  1.7684
18007TIP3    H275513   3.646   4.553   0.055  1.4977 -0.7114 -0.5746
18008TIP3   OH275514   1.229   2.666  12.767 -0.2698  0.4737  0.0043
18008TIP3    H175515   1.201   2.694  12.855 -1.0056 -0.6439  0.1499
18008TIP3    H275516   1.190   2.579  12.756  0.3897  0.3028 -1.1639
18009TIP3   OH275517   1.655   4.824   5.309 -0.3932  0.0776  0.1539
18009TIP3    H175518   1.565   4.849   5.288  0.0590 -0.1376 -2.2731
18009TIP3    H275519   1.664   4.735   5.275  0.6716  0.0099  0.5782
18010TIP3   OH275520   5.730   4.399   1.269 -0.4707 -0.1711  0.2569
18010TIP3    H175521   5.732   4.343   1.346 -2.1514 -0.7798 -0.0867
18010TIP3    H275522   5.667   4.468   1.291  0.8855  1.0798  0.3303
18011TIP3   OH275523   0.920   0.875   3.307  0.0104 -0.2765  0.9327
18011TIP3    H175524   0.985   0.940   3.282 -1.0117  1.1398  1.7842
18011TIP3    H275525   0.906   0.822   3.228  1.6577 -0.1727  0.5505
18012TIP3   OH275526   5.018   3.352   4.680 -0.0330 -0.2005  0.3844
18012TIP3    H175527   5.059   3.274   4.717  0.9765 -0.1334 -0.5244
18012TIP3    H275528   4.944   3.318   4.629 -0.8230 -0.3700  1.6067
18013TIP3   OH275529   0.497   1.919   5.577  0.3262 -0.2595  0.5310
18013TIP3    H175530   0.530   1.996   5.530  0.7171  0.0076  1.2180
18013TIP3    H275531   0.403   1.934   5.585  0.0330 -0.9406 -1.2909
18014TIP3   OH275532   0.680   5.212   3.536  0.2392 -0.2920 -0.2872
18014TIP3    H175533   0.728   5.185   3.458 -2.7305 -0.2159 -2.3150
18014TIP3    H275534   0.654   5.302   3.518 -3.3980 -1.2958 -0.9715
18015TIP3   OH275535   4.363   1.437  12.359 -0.4712 -0.0234  0.0095
18015TIP3    H175536   4.445   1.397  12.388 -0.4328  0.4349  0.5440
18015TIP3    H275537   4.296   1.373  12.380 -0.4533  0.3287  1.2048
18016TIP3   OH275538   6.400   1.864   4.658  0.2315 -0.0558 -0.1491
18016TIP3    H175539   6.476   1.846   4.604  0.2973 -1.4115  0.3576
18016TIP3    H275540   6.329   1.879   4.596  0.7034  0.3174 -0.6089
18017TIP3   OH275541   1.474   4.829  13.755  0.2406 -0.3523 -0.2134
18017TIP3    H175542   1.471   4.783  13.840  0.3228 -0.9856 -0.5450
18017TIP3    H275543   1.552   4.883  13.760 -0.3148  0.4106  0.5098
18018TIP3   OH275544   1.895   3.953  12.074 -0.0530 -0.1402  0.2162
18018TIP3    H175545   1.958   3.930  12.142  1.7897 -0.2305 -1.4421
18018TIP3    H275546   1.938   4.022  12.024 -0.7287 -1.0257 -1.6808
18019TIP3   OH275547   5.746   2.355   2.996 -0.7389  0.2100  0.3613
18019TIP3    H175548   5.735   2.297   2.921  1.5618  0.4572 -0.2137
18019TIP3    H275549   5.744   2.297   3.072 -0.7605 -0.3162 -0.0370
18020TIP3   OH275550   0.638   5.855  10.766  0.1208  0.0304  0.3816
18020TIP3    H175551   0.654   5.793  10.838  0.2285 -0.5969 -0.1759
18020TIP3    H275552   0.638   5.801  10.687 -0.8977  0.5844 -0.0087
18021TIP3   OH275553   3.165   5.429   5.360  0.4462 -0.2345 -0.6490
18021TIP3    H175554   3.166   5.366   5.432 -2.9724  1.2108  0.8886
18021TIP3    H275555   3.223   5.499   5.389  0.0293 -0.2241  0.2065
18022TIP3   OH275556   6.723   0.766   4.398 -0.0759  0.0911  0.4725
18022TIP3    H175557   6.766   0.738   4.317 -1.1687 -1.3847  0.3601
18022TIP3    H275558   6.755   0.855   4.413  2.8989 -0.8364  0.3152
18023TIP3   OH275559   3.528   2.326  13.241  0.1948  1.0091 -0.1829
18023TIP3    H175560   3.557   2.407  13.201  1.6122 -0.4691 -2.3506
18023TIP3    H275561   3.505   2.269  13.168  0.1948 -0.8859  1.2057
18024TIP3   OH275562   2.000   4.939   6.738  0.2139 -0.4438  0.8634
18024TIP3    H175563   2.074   4.993   6.711 -1.3791  0.3102 -2.5843
18024TIP3    H275564   2.008   4.859   6.686 -0.5728 -0.9906  1.5505
18025TIP3   OH275565   0.089   2.537  11.477 -0.1642  0.3913 -0.2016
18025TIP3    H175566   0.066   2.525  11.385 -0.9186 -2.2920  0.2559
18025TIP3    H275567   0.034   2.609  11.507 -0.2210  1.0163 -1.7336
18026TIP3   OH275568   5.945   3.173   4.687 -0.2146 -0.5483 -0.2047
18026TIP3    H175569   6.007   3.105   4.714 -0.2851 -0.3910  0.3649
18026TIP3    H275570   5.977   3.253   4.727 -1.2310 -0.6127  0.8000
18027TIP3   OH275571   3.359   5.009  16.553  0.0283 -0.1075  0.0817
18027TIP3    H175572   3.289   5.074  16.552  0.5125  0.4295 -0.7957
18027TIP3    H275573   3.315   4.925  16.542 -0.3798  0.3782 -3.4231
18028TIP3   OH275574   6.594   6.305   1.351  0.3755 -0.1185  0.1240
18028TIP3    H175575   6.558   6.378   1.300 -0.0833 -1.1542 -1.0915
18028TIP3    H275576   6.595   6.231   1.290 -0.1680 -1.4134  1.6108
18029TIP3   OH275577   4.153   4.847   5.897 -0.1943 -0.3301  0.1498
18029TIP3    H175578   4.156   4.856   5.992  1.3558 -1.8442  0.3078
18029TIP3    H275579   4.238   4.807   5.874 -0.0492  1.0699 -2.0066
18030TIP3   OH275580   5.147   1.201  14.979 -0.0831  0.0932 -0.1561
18030TIP3    H175581   5.137   1.232  15.069 -0.5555  1.8577 -0.7849
18030TIP3    H275582   5.238   1.222  14.956 -0.3244  0.7798 -0.4958
18031TIP3   OH275583   0.958   4.114  14.005 -0.2265 -0.5020  0.3533
18031TIP3    H175584   1.038   4.098  14.055 -0.6288  0.8069  1.4705
18031TIP3    H275585   0.897   4.047  14.036  0.0382 -0.7194  0.4118
18032TIP3   OH275586   5.493   1.111   0.352 -0.1399 -0.1280  0.0612
18032TIP3    H175587   5.571   1.057   0.364  1.2209  1.6772 -0.4234
18032TIP3    H275588   5.491   1.132   0.259 -0.6865  0.6228  0.2325
18033TIP3   OH275589   3.092   2.249   3.965  0.2809 -0.0177  0.7159
18033TIP3    H175590   3.164   2.312   3.973 -0.9749  1.6438 -0.4799
18033TIP3    H275591   3.029   2.292   3.908 -0.8097 -2.2496  0.1511
18034TIP3   OH275592   5.225   4.378   5.793 -0.5357 -0.1396  0.0404
18034TIP3    H175593   5.246   4.424   5.875 -0.1580 -3.0902  1.7535
18034TIP3    H275594   5.132   4.394   5.780 -0.2884  1.6174  0.1410
18035TIP3   OH275595   0.954   0.895  11.230  0.2318  0.0019 -0.1029
18035TIP3    H175596   0.859   0.887  11.227  0.1091  0.1327  1.8251
18035TIP3    H275597   0.983   0.875  11.141 -1.6364  0.8073 -0.9421
18036TIP3   OH275598   5.014   3.799  13.299 -0.1862 -0.1957  0.0266
18036TIP3    H175599   4.977   3.881  13.334  1.0525  0.4320 -0.0843
18036TIP3    H275600   4.939   3.755  13.258 -1.3692 -0.2173  2.0556
18037TIP3   OH275601   4.697   1.657  14.694  0.0347 -0.3502  0.3751
18037TIP3    H175602   4.734   1.650  14.607 -0.3613 -0.3653  0.2045
18037TIP3    H275603   4.727   1.578  14.739 -1.6669 -1.5629 -0.4920
18038TIP3   OH275604   0.240   5.621  12.044 -0.6479 -0.8166  0.2563
18038TIP3    H175605   0.323   5.589  12.008 -0.3965 -0.5796  0.6180
18038TIP3    H275606   0.242   5.595  12.136 -0.2429  0.5738  0.6749
18039TIP3   OH275607   0.325   2.629  16.590 -0.4649  0.1300  0.4005
18039TIP3    H175608   0.410   2.667  16.568 -0.8300  1.5140  1.2521
18039TIP3    H275609   0.340   2.535  16.588  0.9834  0.3345  0.1222
18040TIP3   OH275610   2.501   4.944  15.983  0.4715  0.2517 -0.6982
18040TIP3    H175611   2.581   4.962  15.933  1.2189  2.2652  1.0343
18040TIP3    H275612   2.522   4.866  16.035  2.2086  1.8937  1.2726
18041TIP3   OH275613   5.677   5.532   2.725 -0.4148  0.2366  0.0668
18041TIP3    H175614   5.703   5.538   2.633 -1.0103  0.1862 -0.1106
18041TIP3    H275615   5.731   5.462   2.761 -0.1904  0.2473 -0.2505
18042TIP3   OH275616   5.222   5.557   3.888  0.5554 -0.1879 -0.0677
18042TIP3    H175617   5.220   5.574   3.794  1.4742  0.7683  0.0616
18042TIP3    H275618   5.131   5.540   3.912  0.5952 -2.9659 -1.5425
18043TIP3   OH275619   6.727   3.090   2.942  0.6940  0.8738 -0.2259
18043TIP3    H175620   6.809   3.138   2.937  1.4719 -0.3875  0.1603
18043TIP3    H275621   6.731   3.041   3.024  0.1856 -0.2931 -0.8581
18044TIP3   OH275622   6.386   4.964   5.159 -0.1623  0.0408 -0.6444
18044TIP3    H175623   6.336   4.981   5.239 -0.0102 -0.6792 -0.3832
18044TIP3    H275624   6.349   5.023   5.094 -1.0337 -0.1459 -0.3264
18045TIP3   OH275625   5.018   1.712   5.306 -0.3641 -0.3325  0.4872
18045TIP3    H175626   5.040   1.702   5.399 -1.4398  1.5726  0.9874
18045TIP3    H275627   4.939   1.661   5.295 -0.1710 -0.6570  0.5853
18046TIP3   OH275628   6.355   2.687  11.379  0.1911 -0.1290 -0.8038
18046TIP3    H175629   6.444   2.657  11.363  0.5167  0.5390 -0.2580
18046TIP3    H275630   6.319   2.703  11.291  0.6475 -0.2685 -1.0176
18047TIP3   OH275631   4.499   3.431  12.368 -0.1037 -0.0858 -0.6229
18047TIP3    H175632   4.538   3.516  12.385 -2.4258  1.2514 -1.4965
18047TIP3    H275633   4.461   3.405  12.452 -0.3707  0.3052 -0.6200
18048TIP3   OH275634   2.160   5.039  17.175 -0.3460 -0.6987 -0.3631
18048TIP3    H175635   2.209   5.095  17.114  0.4889 -2.6576 -1.5765
18048TIP3    H275636   2.225   4.975  17.206 -1.5859 -1.8594 -0.1022
18049TIP3   OH275637   2.296   0.025   5.956  0.1594 -0.1396 -0.0268
18049TIP3    H175638   2.338  -0.033   5.892  1.4387  0.1396  0.5194
18049TIP3    H275639   2.242  -0.033   6.009 -0.6006 -0.4320 -1.1000
18050TIP3   OH275640   1.442   1.465  13.192 -0.6286  0.1841  0.4179
18050TIP3    H175641   1.373   1.526  13.168 -1.0409  0.0328  1.1961
18050TIP3    H275642   1.502   1.516  13.246 -0.4031  0.1741  0.1829
18051TIP3   OH275643   0.964   3.897   1.773  0.1351  0.4498 -0.3079
18051TIP3    H175644   1.022   3.827   1.804 -1.9765 -0.5188  1.7630
18051TIP3    H275645   1.021   3.974   1.765  2.0469 -0.8988 -0.2290
18052TIP3   OH275646   6.732   1.042   6.187 -0.4463 -0.1154  0.7137
18052TIP3    H175647   6.798   1.022   6.253  0.7155 -0.6535 -0.5503
18052TIP3    H275648   6.750   1.133   6.162  0.6553 -0.6191 -0.4766
18053TIP3   OH275649   4.528   6.361   3.364  0.4898  0.2625  0.1395
18053TIP3    H175650   4.507   6.275   3.328  0.4059  0.5040 -0.3928
18053TIP3    H275651   4.449   6.413   3.351  0.5469  0.4273  0.4450
18054TIP3   OH275652   4.057   0.950  14.701 -0.0049  0.5733  0.1165
18054TIP3    H175653   4.132   0.959  14.760  1.4047  2.5514 -1.8110
18054TIP3    H275654   4.055   0.858  14.678  1.0959  0.2748  1.1379
18055TIP3   OH275655   5.258   2.114   5.092 -0.0356  0.0327 -0.0545
18055TIP3    H175656   5.350   2.088   5.086  0.0271 -0.3389  1.7976
18055TIP3    H275657   5.261   2.205   5.122 -0.2774  0.2445 -0.6591
18056TIP3   OH275658   6.300   5.228   0.283  0.0642  0.5835  0.4410
18056TIP3    H175659   6.207   5.251   0.282 -1.8137 -4.9713  3.2699
18056TIP3    H275660   6.336   5.278   0.357 -1.3352  0.9787  0.8947
18057TIP3   OH275661   5.809   1.500  12.878  0.0861 -0.0912  0.2015
18057TIP3    H175662   5.826   1.409  12.851 -0.1617  0.1304 -0.7503
18057TIP3    H275663   5.890   1.547  12.855 -0.8673  0.5220 -2.2406
18058TIP3   OH275664   0.285   6.064   4.311  0.5398 -0.0002 -0.0228
18058TIP3    H175665   0.193   6.048   4.329  0.2772 -0.0500 -1.2988
18058TIP3    H275666   0.305   6.147   4.354  0.3579 -0.8217  1.6897
18059TIP3   OH275667   4.599   3.323   0.317 -0.1920 -0.3385  0.3156
18059TIP3    H175668   4.615   3.234   0.346 -1.4460 -0.9767 -0.8366
18059TIP3    H275669   4.633   3.327   0.227 -0.6417  0.1657  0.1562
18060TIP3   OH275670   2.866   0.958  15.334  0.0358  0.0045  0.1717
18060TIP3    H175671   2.796   1.014  15.367 -0.7370 -0.9873  0.2849
18060TIP3    H275672   2.891   0.997  15.251 -0.1958  0.7360  0.4333
18061TIP3   OH275673   6.464   4.381  15.508  1.0075 -0.0066  0.2915
18061TIP3    H175674   6.500   4.437  15.438  0.3955  0.2762  0.2002
18061TIP3    H275675   6.398   4.435  15.550  1.0901 -0.3235  0.8370
18062TIP3   OH275676   1.720   2.179  13.182 -0.5650  0.0445 -0.2526
18062TIP3    H175677   1.712   2.086  13.165 -0.4151  0.3228 -1.9895
18062TIP3    H275678   1.678   2.192  13.267  0.0117 -1.6857  0.3313
18063TIP3   OH275679   2.236   1.566  11.523 -0.2035  0.6371  0.6723
18063TIP3    H175680   2.240   1.492  11.583 -0.8304  1.0210  1.2009
18063TIP3    H275681   2.172   1.540  11.457  0.8509  0.0076 -0.1490
18064TIP3   OH275682   3.171   0.987  13.204  0.1063 -0.1565 -0.4501
18064TIP3    H175683   3.169   0.932  13.126  2.4651 -1.7225  0.4741
18064TIP3    H275684   3.223   1.063  13.179 -0.6760  0.2471 -0.8891
18065TIP3   OH275685   5.060   1.638   4.213  0.2843 -0.5808 -0.3246
18065TIP3    H175686   5.117   1.568   4.246  0.5791 -0.0833  0.2418
18065TIP3    H275687   4.975   1.596   4.200  0.6771 -1.2416 -0.8078
18066TIP3   OH275688   4.292   1.929   4.448 -0.0652  0.0459  0.4146
18066TIP3    H175689   4.306   1.983   4.369 -1.0849 -0.8657 -0.4106
18066TIP3    H275690   4.375   1.883   4.460  0.1001  0.1898 -0.1393
18067TIP3   OH275691   1.263   3.197  15.953 -0.1041  0.1769 -0.6297
18067TIP3    H175692   1.204   3.213  16.026  0.3670 -0.6677 -0.0461
18067TIP3    H275693   1.328   3.267  15.958  1.8680 -1.6036  1.8206
18068TIP3   OH275694   6.545   2.960   1.647 -0.1024 -0.1943 -0.2536
18068TIP3    H175695   6.508   3.045   1.673  0.6698  0.7264 -1.9850
18068TIP3    H275696   6.470   2.901   1.645 -0.7323  0.5523  0.5334
18069TIP3   OH275697   0.740   0.409   0.320 -0.3172 -0.3105  0.3946
18069TIP3    H175698   0.795   0.473   0.365 -1.8261  1.6591 -0.4482
18069TIP3    H275699   0.775   0.406   0.231  0.6834 -1.8596  0.7888
18070TIP3   OH275700   5.011   2.574  15.743  0.1279 -0.2098 -0.0260
18070TIP3    H175701   5.011   2.607  15.833 -0.0764  4.8436 -1.5728
18070TIP3    H275702   4.972   2.644  15.691 -0.5169 -3.1745 -4.0650
18071TIP3   OH275703   3.188   4.333   0.766  0.9405 -0.4132  0.0748
18071TIP3    H175704   3.112   4.384   0.737  0.1293 -0.6541  1.6510
18071TIP3    H275705   3.243   4.397   0.812  0.8742 -0.5568  0.3591
18072TIP3   OH275706   3.164   4.175   0.459  0.1679 -0.1295  0.0481
18072TIP3    H175707   3.117   4.136   0.533  0.3696 -2.5493 -1.0267
18072TIP3    H275708   3.110   4.155   0.383  1.9970 -1.3838 -0.9767
18073TIP3   OH275709   0.541   2.440   4.886  0.0005  0.3424  0.3600
18073TIP3    H175710   0.587   2.496   4.948 -0.5622 -0.2996  1.3910
18073TIP3    H275711   0.451   2.438   4.918 -0.1470 -0.5658 -0.0605
18074TIP3   OH275712   0.118   0.837   3.646 -0.1616 -0.3021 -0.2141
18074TIP3    H175713   0.131   0.748   3.612 -0.1385 -0.4625  0.2051
18074TIP3    H275714   0.109   0.825   3.740 -1.3532  0.0191 -0.2729
18075TIP3   OH275715   4.815   5.851  15.806  0.1860 -0.1238  0.7010
18075TIP3    H175716   4.827   5.788  15.876 -0.5049 -1.8696 -0.6698
18075TIP3    H275717   4.901   5.891  15.794  1.3889 -2.7560 -0.1325
18076TIP3   OH275718   3.651   1.274  12.254 -0.2699 -0.2127  0.3797
18076TIP3    H175719   3.707   1.278  12.331  0.0050  1.2413  0.1168
18076TIP3    H275720   3.563   1.291  12.287 -0.1050  0.7534  0.3267
18077TIP3   OH275721   5.342   4.257   3.007  0.3811  0.0380 -0.7288
18077TIP3    H175722   5.262   4.309   3.017  0.9414  0.9927 -1.1092
18077TIP3    H275723   5.377   4.282   2.921  0.1201 -1.7538 -1.4015
18078TIP3   OH275724   0.606   6.715   3.962  0.4443  0.3084 -0.2349
18078TIP3    H175725   0.624   6.660   3.885 -0.3097  0.8595 -0.8246
18078TIP3    H275726   0.614   6.655   4.036 -0.4917 -0.6392 -0.8698
18079TIP3   OH275727   0.663   4.375   1.461 -0.4139  1.3335 -0.0881
18079TIP3    H175728   0.663   4.283   1.437 -1.8598  1.3306 -0.1359
18079TIP3    H275729   0.742   4.411   1.420 -1.2807  0.7160 -2.4226
18080TIP3   OH275730   2.456   3.031  11.407  0.5760 -0.0084  0.3950
18080TIP3    H175731   2.480   3.001  11.320 -1.9623  0.5043 -0.5729
18080TIP3    H275732   2.488   3.122  11.411 -0.0966  0.2745 -0.3837
18081TIP3   OH275733   5.890   5.910   3.960  0.2874 -0.3220  0.2175
18081TIP3    H175734   5.951   5.937   4.028  0.5173  0.3873 -0.2546
18081TIP3    H275735   5.841   5.838   3.998  1.0510 -0.5424  0.7992
18082TIP3   OH275736   3.839   2.178  13.143 -0.3246  0.1615  0.3570
18082TIP3    H175737   3.841   2.273  13.137 -2.9334  0.2210 -0.8193
18082TIP3    H275738   3.849   2.159  13.236  1.1568  1.4787  0.5046
18083TIP3   OH275739   1.616   6.201  13.564 -0.3162  0.0901  0.3596
18083TIP3    H175740   1.622   6.109  13.587 -0.5009 -0.3688 -1.3075
18083TIP3    H275741   1.669   6.246  13.630  1.9514 -1.4485 -0.2993
18084TIP3   OH275742   6.007   4.967  14.461 -0.8236  0.0124 -0.2258
18084TIP3    H175743   6.092   5.011  14.455 -1.1587  0.6497 -0.4001
18084TIP3    H275744   5.946   5.026  14.416 -1.5352  0.0385  0.7217
18085TIP3   OH275745   0.817   0.299   5.934  0.0607  0.2301  0.4865
18085TIP3    H175746   0.764   0.254   5.999 -2.0675  1.5283 -0.2389
18085TIP3    H275747   0.811   0.392   5.958 -2.1987  0.9929 -2.3116
18086TIP3   OH275748   2.793   0.793  12.223 -0.6105 -0.2320 -0.3010
18086TIP3    H175749   2.829   0.879  12.200 -2.0380  1.0171  1.7745
18086TIP3    H275750   2.705   0.792  12.184 -1.4645  0.2431  1.4907
18087TIP3   OH275751   2.376   5.263  12.378  0.1117 -0.1835  0.3623
18087TIP3    H175752   2.319   5.201  12.333 -0.3052  1.2941 -1.2777
18087TIP3    H275753   2.465   5.234  12.357 -0.0615 -0.9404  0.6654
18088TIP3   OH275754   6.093   2.230   2.888  0.4345  0.7661  0.1175
18088TIP3    H175755   6.069   2.180   2.966  0.4175  1.4613  0.5646
18088TIP3    H275756   6.092   2.165   2.818  0.2934  0.1604  0.6620
18089TIP3   OH275757   2.680   4.870   3.314  0.2591 -0.4146 -0.3871
18089TIP3    H175758   2.630   4.789   3.300  0.2058 -0.8204  1.8062
18089TIP3    H275759   2.619   4.928   3.360  1.2354 -0.2716  0.7692
18090TIP3   OH275760   5.785   6.532   2.530  0.4234  0.5137  0.8526
18090TIP3    H175761   5.778   6.581   2.612  1.7502  2.1398  0.0657
18090TIP3    H275762   5.878   6.537   2.507 -0.1268  1.3615 -1.4643
18091TIP3   OH275763   3.328   4.998  12.906  0.0675  0.2580  0.0322
18091TIP3    H175764   3.352   5.083  12.943  1.1107 -0.2019  0.4560
18091TIP3    H275765   3.326   5.012  12.812 -0.4930  0.9269  0.1388
18092TIP3   OH275766   4.030   0.966   3.098 -0.6133 -0.0158  0.0330
18092TIP3    H175767   4.001   1.031   3.161 -0.1757  0.9650 -0.7547
18092TIP3    H275768   4.093   1.012   3.043  0.7223 -1.4628  0.2781
18093TIP3   OH275769   4.526   0.591  11.255 -0.7565  0.5838 -0.7224
18093TIP3    H175770   4.567   0.519  11.207 -2.3116 -0.1759 -0.9584
18093TIP3    H275771   4.573   0.594  11.338  0.4945  0.4831 -1.3872
18094TIP3   OH275772   4.262   3.874   0.880  0.1041 -0.0891  0.3091
18094TIP3    H175773   4.279   3.783   0.856 -0.4077 -0.5085  1.4632
18094TIP3    H275774   4.173   3.892   0.849  0.0862 -0.0794  0.3662
18095TIP3   OH275775   0.644   4.192  14.683  0.2990 -0.1110 -0.3405
18095TIP3    H175776   0.679   4.140  14.610  0.0217 -0.0475 -0.5189
18095TIP3    H275777   0.552   4.205  14.661 -0.4977 -2.3202  1.2706
18096TIP3   OH275778   2.536   0.199   3.620 -0.2065  0.6389 -0.0810
18096TIP3    H175779   2.460   0.151   3.590  0.5759 -1.3071  0.8836
18096TIP3    H275780   2.598   0.194   3.548 -0.4115  0.8995 -0.2781
18097TIP3   OH275781   0.228   3.193  10.487 -0.8527 -0.0577 -0.5154
18097TIP3    H175782   0.299   3.184  10.551  1.1423  0.8021 -2.4661
18097TIP3    H275783   0.199   3.104  10.471 -0.6542 -0.3778  0.7661
18098TIP3   OH275784   4.559   3.979   4.593 -0.0173 -0.6718 -0.5117
18098TIP3    H175785   4.648   3.947   4.607 -0.5901 -2.3446 -0.5118
18098TIP3    H275786   4.548   4.048   4.658  1.4989  0.0737 -0.9739
18099TIP3   OH275787   2.432   4.654  14.182  0.0739  0.2123  0.2032
18099TIP3    H175788   2.379   4.727  14.212  0.9802 -0.0034  2.5002
18099TIP3    H275789   2.484   4.690  14.111 -1.9164  0.8398 -1.0222
18100TIP3   OH275790   4.166   4.565  12.888 -0.4264  0.6760  0.2332
18100TIP3    H175791   4.240   4.551  12.947  0.1437 -0.7235 -0.7414
18100TIP3    H275792   4.191   4.640  12.834 -0.1680  0.8399  0.5828
18101TIP3   OH275793   4.778   2.133   1.261  0.1047 -0.2082 -0.2053
18101TIP3    H175794   4.798   2.226   1.257  1.8757 -0.5517 -0.3957
18101TIP3    H275795   4.753   2.109   1.172  0.3944 -0.0542 -0.3283
18102TIP3   OH275796   5.713   6.761   2.405  0.1668  0.1943  0.2787
18102TIP3    H175797   5.718   6.677   2.451 -2.1699  1.1529  2.5314
18102TIP3    H275798   5.652   6.745   2.333 -0.7681  0.0389  1.0725
18103TIP3   OH275799   6.150   1.073   1.800  0.7113 -0.4629 -0.3107
18103TIP3    H175800   6.237   1.085   1.839  0.3649 -0.7461  0.5768
18103TIP3    H275801   6.094   1.050   1.874 -0.8760  2.9684 -0.2567
18104TIP3   OH275802   4.493   6.737  16.338 -0.6341  0.0092 -0.0670
18104TIP3    H175803   4.462   6.691  16.416 -1.9431 -0.2618 -0.7203
18104TIP3    H275804   4.423   6.799  16.318  0.1324  0.7604 -0.4709
18105TIP3   OH275805   1.717   2.087  11.530  0.7147  0.5786 -0.8490
18105TIP3    H175806   1.693   1.994  11.535 -0.0936  0.8328  2.3077
18105TIP3    H275807   1.640   2.129  11.490 -0.0686  0.1790  0.1837
18106TIP3   OH275808   0.720   3.280  15.271  0.4354 -0.5187  0.1750
18106TIP3    H175809   0.705   3.365  15.230  0.3112 -0.8397 -0.4545
18106TIP3    H275810   0.636   3.235  15.263  0.2237 -0.3713  1.3263
18107TIP3   OH275811   0.944   2.559   3.710  0.2470  0.5756 -0.3207
18107TIP3    H175812   0.906   2.589   3.628  0.5848  0.7510 -0.4156
18107TIP3    H275813   0.872   2.516   3.756 -0.2409  1.5354 -0.1770
18108TIP3   OH275814   4.602   5.139  12.566  0.7443 -0.1581 -0.4319
18108TIP3    H175815   4.675   5.200  12.573 -0.5948  1.3332  1.2870
18108TIP3    H275816   4.583   5.136  12.472  1.3072  1.5273 -0.6336
18109TIP3   OH275817   2.519   0.332  15.151  0.4688 -0.2782 -0.1399
18109TIP3    H175818   2.469   0.284  15.217 -0.2388  1.0335  0.3173
18109TIP3    H275819   2.537   0.417  15.191 -0.1025  0.6139 -1.6834
18110TIP3   OH275820   5.565   5.542   5.942  0.2863 -0.2403 -0.2029
18110TIP3    H175821   5.652   5.532   5.903  0.1663  0.2807 -0.6231
18110TIP3    H275822   5.526   5.455   5.936  0.1376 -0.1086 -1.6087
18111TIP3   OH275823   3.949   4.163   2.891  0.0355 -0.1559  0.2021
18111TIP3    H175824   3.897   4.234   2.930  1.3328  0.4279  0.9702
18111TIP3    H275825   3.997   4.126   2.965  1.3798 -0.0592 -0.5775
18112TIP3   OH275826   0.151   1.322  16.417  0.0871  0.3826 -0.1210
18112TIP3    H175827   0.138   1.393  16.480  1.0005  0.9306 -0.5275
18112TIP3    H275828   0.066   1.311  16.375 -0.0421  1.2997 -0.1164
18113TIP3   OH275829   5.381   5.957   5.758 -0.4978  0.8405 -0.4428
18113TIP3    H175830   5.318   5.885   5.755  1.7787 -1.5815  3.0112
18113TIP3    H275831   5.464   5.918   5.729  1.1904  1.3576  3.1239
18114TIP3   OH275832   3.739   4.543  16.192 -0.4965 -0.3044  0.2896
18114TIP3    H175833   3.661   4.579  16.234  0.1671  0.8966  0.5239
18114TIP3    H275834   3.725   4.558  16.098 -0.2799  0.4736  0.3756
18115TIP3   OH275835   0.536   6.773  13.766  0.7424 -0.0776  0.1532
18115TIP3    H175836   0.452   6.819  13.756  0.6447 -0.0457  1.0860
18115TIP3    H275837   0.574   6.810  13.845 -0.4173 -3.2450  2.4020
18116TIP3   OH275838   4.579   4.598   4.044 -0.0744 -0.5907 -0.5424
18116TIP3    H175839   4.541   4.628   4.126 -1.7949 -0.5337 -1.3079
18116TIP3    H275840   4.653   4.543   4.069  0.3054  0.5581  0.9865
18117TIP3   OH275841   0.904   5.795   2.701  0.3168  0.5878 -0.8663
18117TIP3    H175842   0.981   5.738   2.700 -0.1983 -0.3717  2.1349
18117TIP3    H275843   0.938   5.882   2.681  2.6240  0.5370  2.0774
18118TIP3   OH275844   0.335   4.211   1.477  0.1364 -0.6511  0.1943
18118TIP3    H175845   0.344   4.305   1.490  0.5534 -0.6849  0.1624
18118TIP3    H275846   0.302   4.202   1.387 -1.7874 -0.4590  0.8354
18119TIP3   OH275847   4.374   3.914  16.517 -0.6595 -0.1240 -0.0405
18119TIP3    H175848   4.441   3.887  16.453  1.2904 -1.3371  2.3474
18119TIP3    H275849   4.355   4.005  16.494  0.3453 -0.3532 -2.0233
18120TIP3   OH275850   6.290   5.893   4.087  0.1670 -0.0458  0.4841
18120TIP3    H175851   6.329   5.806   4.071 -2.3664 -0.9908 -1.1680
18120TIP3    H275852   6.364   5.947   4.114  2.2556 -2.1696 -0.5776
18121TIP3   OH275853   2.620   2.742   3.364 -0.1382  0.0483  0.0968
18121TIP3    H175854   2.694   2.766   3.419  0.3757  1.3590 -1.0880
18121TIP3    H275855   2.649   2.665   3.316  0.3339  0.3480 -0.1045
18122TIP3   OH275856   2.598   2.110   2.112 -0.3103 -0.7243  0.0575
18122TIP3    H175857   2.609   2.018   2.135 -0.9041 -1.0065 -0.7657
18122TIP3    H275858   2.639   2.158   2.185  0.6039 -1.6348  0.1573
18123TIP3   OH275859   6.772   1.985   5.870  0.1446 -0.1626 -0.0404
18123TIP3    H175860   6.852   1.995   5.921  0.9213 -0.1595 -1.2130
18123TIP3    H275861   6.750   1.893   5.878  0.6145 -0.2930 -0.1962
18124TIP3   OH275862   0.128   2.985   2.346  0.5758 -0.3245 -0.4882
18124TIP3    H175863   0.038   3.017   2.337  1.2374  1.3565 -1.6242
18124TIP3    H275864   0.119   2.899   2.387 -1.4525  0.3649  0.6537
18125TIP3   OH275865   0.537   4.959   1.272 -0.0589  0.2534 -0.3990
18125TIP3    H175866   0.502   4.877   1.238  1.2841 -0.8419  0.7140
18125TIP3    H275867   0.632   4.951   1.260  0.1141  1.5299 -0.0189
18126TIP3   OH275868   3.712   3.116  14.162  0.1655 -0.0788 -0.1133
18126TIP3    H175869   3.803   3.110  14.192  0.0802 -1.8033 -0.1455
18126TIP3    H275870   3.686   3.026  14.143 -2.5817 -0.0659  2.8183
18127TIP3   OH275871   6.646   0.572   0.329  0.3072 -0.2265  0.1183
18127TIP3    H175872   6.608   0.545   0.245  4.0770  0.0908 -1.9017
18127TIP3    H275873   6.603   0.655   0.348 -0.2152  0.0099 -1.8237
18128TIP3   OH275874   6.452   6.385   4.373  0.1122 -0.3907 -0.3566
18128TIP3    H175875   6.379   6.389   4.435  0.3405 -1.9306  0.0392
18128TIP3    H275876   6.410   6.376   4.287 -0.1880 -1.9722 -0.0671
18129TIP3   OH275877   6.681   0.848   1.252  1.0052  0.3790 -0.4318
18129TIP3    H175878   6.663   0.754   1.259  0.7835  0.3298 -1.4892
18129TIP3    H275879   6.657   0.870   1.162 -0.3434  1.7561  0.2156
18130TIP3   OH275880   3.570   1.843  13.985 -0.4163  0.2451 -0.3451
18130TIP3    H175881   3.610   1.759  13.963 -0.1328 -0.0460  1.1661
18130TIP3    H275882   3.642   1.896  14.018 -1.1710 -0.2427  2.2929
18131TIP3   OH275883   4.664   1.326  15.895  0.1896  0.6698 -0.0706
18131TIP3    H175884   4.701   1.314  15.808  1.8789  1.9297  0.4281
18131TIP3    H275885   4.738   1.321  15.954 -0.6019  1.9920  1.0988
18132TIP3   OH275886   2.604   5.659   2.900  0.2239  0.1612 -0.3336
18132TIP3    H175887   2.594   5.751   2.872  1.3163  0.3891  0.0075
18132TIP3    H275888   2.630   5.613   2.821 -1.7996 -0.1604 -0.8718
18133TIP3   OH275889   6.465   2.739  12.166 -0.1528 -0.7316 -0.0120
18133TIP3    H175890   6.385   2.775  12.128  0.7099  0.9771 -0.2895
18133TIP3    H275891   6.530   2.809  12.157  0.5485 -0.8305  3.1591
18134TIP3   OH275892   5.968   1.425   1.959 -0.1383 -0.6007 -0.8078
18134TIP3    H175893   5.918   1.349   1.987 -0.9523  0.0886 -0.3683
18134TIP3    H275894   5.992   1.405   1.868 -0.8866 -1.0951 -0.9060
18135TIP3   OH275895   3.250   6.499  11.209  0.2183  1.1486  0.4199
18135TIP3    H175896   3.250   6.590  11.178 -0.1668  1.1295  0.3586
18135TIP3    H275897   3.209   6.449  11.138  1.4667  0.7487 -0.0452
18136TIP3   OH275898   5.560   4.264  14.312 -0.8137 -0.0232  0.1669
18136TIP3    H175899   5.616   4.316  14.369  0.1590 -0.0339 -0.7646
18136TIP3    H275900   5.527   4.194  14.369 -0.8000  0.6325  1.0004
18137TIP3   OH275901   6.660   4.761  14.514  0.4001  0.2583 -0.0164
18137TIP3    H175902   6.740   4.798  14.553  1.1793  1.2498 -2.3817
18137TIP3    H275903   6.603   4.837  14.501  0.4686  0.0801 -1.4587
18138TIP3   OH275904   1.342   4.565  14.258  0.2806  0.5016  0.2666
18138TIP3    H175905   1.319   4.514  14.180  0.8361  0.4499  0.1351
18138TIP3    H275906   1.436   4.550  14.270  0.3925  1.2753  0.3940
18139TIP3   OH275907   2.085   2.465  15.258 -0.4228  0.0434 -0.1555
18139TIP3    H175908   2.112   2.391  15.203 -0.2072  0.3113 -0.4144
18139TIP3    H275909   2.086   2.540  15.198  1.9685  0.7708  0.6888
18140TIP3   OH275910   1.121   2.274  14.056 -0.4488 -0.5757 -0.3045
18140TIP3    H175911   1.113   2.186  14.095 -2.5035 -1.3932 -2.3657
18140TIP3    H275912   1.074   2.331  14.115  1.4837 -0.6425  1.4323
18141TIP3   OH275913   1.032   5.775   0.266  0.3724 -0.2134  0.2495
18141TIP3    H175914   1.115   5.821   0.256  0.3207 -0.2998 -0.6400
18141TIP3    H275915   1.011   5.744   0.178 -1.2279  0.8792  0.2017
18142TIP3   OH275916   4.464   5.061  16.828  0.3626 -0.1124  0.7168
18142TIP3    H175917   4.410   4.983  16.837  1.5615 -0.8966  1.4490
18142TIP3    H275918   4.522   5.042  16.754 -0.1141  0.5627  0.1667
18143TIP3   OH275919   3.092   3.993  15.114 -0.2977 -0.3053 -0.1745
18143TIP3    H175920   3.022   3.955  15.167  0.7427 -2.5316 -0.2699
18143TIP3    H275921   3.047   4.042  15.046 -1.6951  0.5957  1.3323
18144TIP3   OH275922   6.171   4.958   4.397 -0.3922 -0.4767  0.0866
18144TIP3    H175923   6.124   4.882   4.429 -0.6777 -0.0310  0.7614
18144TIP3    H275924   6.145   4.967   4.305 -1.7593 -0.1407  0.4916
18145TIP3   OH275925   5.613   4.340  13.378 -0.6367 -0.8244  0.4069
18145TIP3    H175926   5.532   4.355  13.426 -0.4924  1.4488  0.0304
18145TIP3    H275927   5.600   4.255  13.336 -2.9619 -0.3818  0.0911
18146TIP3   OH275928   3.212   4.992  13.202  1.1792  0.5500 -0.0392
18146TIP3    H175929   3.189   5.033  13.118  1.2852  0.7784  0.0417
18146TIP3    H275930   3.149   4.921  13.212  0.3819  1.2828  0.2611
18147TIP3   OH275931   0.807   1.217   3.578 -0.6351  1.1267 -0.4326
18147TIP3    H175932   0.725   1.175   3.551 -0.9587  3.1840 -3.0519
18147TIP3    H275933   0.778   1.297   3.623 -0.0537  1.2400 -0.2584
18148TIP3   OH275934   5.206   0.691  17.053  0.3164  0.1202  0.2621
18148TIP3    H175935   5.270   0.748  17.011  1.3703  0.3936  2.1253
18148TIP3    H275936   5.121   0.730  17.032  0.7484  0.0035 -1.8777
18149TIP3   OH275937   1.842   0.847  16.964 -0.1485  0.2886 -0.3360
18149TIP3    H175938   1.768   0.787  16.950 -0.9123  1.2294 -0.4823
18149TIP3    H275939   1.806   0.934  16.945  1.1819  0.7104 -1.0775
18150TIP3   OH275940   1.975   6.645  16.212  0.5175 -0.1313 -0.2205
18150TIP3    H175941   2.035   6.586  16.166  0.2239 -1.4424  0.9885
18150TIP3    H275942   1.889   6.603  16.205 -0.1532  1.3740 -1.3300
18151TIP3   OH275943   4.900   1.693  15.786 -0.1024 -0.1074  0.1556
18151TIP3    H175944   4.991   1.695  15.755 -0.3864 -1.4620 -0.8345
18151TIP3    H275945   4.881   1.785  15.808  2.0063 -0.0142  1.9735
18152TIP3   OH275946   6.390   3.033  14.258 -0.0610  0.1364 -0.0285
18152TIP3    H175947   6.327   3.014  14.189  0.7283 -2.0461 -0.2178
18152TIP3    H275948   6.465   3.071  14.213  0.6158 -1.6582 -0.4772
18153TIP3   OH275949   1.821   1.236   5.781  0.1078  0.4094  0.3134
18153TIP3    H175950   1.743   1.206   5.827 -1.1985 -0.1013 -2.0743
18153TIP3    H275951   1.870   1.156   5.762 -0.9159  0.2038 -1.7594
18154TIP3   OH275952   3.380   3.293   4.968 -0.1106 -0.7542 -0.1083
18154TIP3    H175953   3.462   3.342   4.967 -0.6957  0.2796  0.4555
18154TIP3    H275954   3.349   3.297   4.878 -0.5090  0.5803  0.0648
18155TIP3   OH275955   1.282   6.091   5.594 -0.2001  0.7967  0.3504
18155TIP3    H175956   1.258   5.999   5.601  1.0291  0.3665 -0.6195
18155TIP3    H275957   1.207   6.139   5.628 -2.2342 -0.4361 -2.0728
18156TIP3   OH275958   6.790   3.804   2.872 -0.3484 -0.0081 -0.3463
18156TIP3    H175959   6.779   3.816   2.967  0.0458 -1.7523 -0.0559
18156TIP3    H275960   6.701   3.789   2.840 -0.3558 -0.5564 -0.0764
18157TIP3   OH275961   5.547   4.621  14.665  0.2004 -0.3376 -0.3057
18157TIP3    H175962   5.538   4.712  14.635 -2.1044 -0.7194 -0.9569
18157TIP3    H275963   5.493   4.617  14.743 -0.4043 -1.3366 -0.7605
18158TIP3   OH275964   4.736   0.041  14.560 -0.4035 -0.1396  0.2165
18158TIP3    H175965   4.825   0.011  14.579  0.4606  1.0233 -1.7342
18158TIP3    H275966   4.697  -0.031  14.510  0.3375  0.3517 -1.1080
18159TIP3   OH275967   0.988   6.255   4.810 -0.1541  0.6512 -0.1411
18159TIP3    H175968   0.998   6.280   4.902  0.2799  0.7630 -0.2172
18159TIP3    H275969   0.935   6.175   4.812  1.0291 -0.1409  0.2970
18160TIP3   OH275970   5.440   4.080   3.181 -0.2466 -1.0051 -0.2652
18160TIP3    H175971   5.531   4.064   3.157  0.0460 -0.7100  0.6055
18160TIP3    H275972   5.408   4.140   3.115  0.7472  0.3462  0.4264
18161TIP3   OH275973   3.949   2.273  13.705  0.0843 -0.0061 -0.5625
18161TIP3    H175974   3.857   2.267  13.732  0.4234  0.8178  0.8920
18161TIP3    H275975   3.974   2.363  13.727  1.1298 -0.0955 -1.3359
18162TIP3   OH275976   0.334   5.171   2.772  0.1409  0.3017 -0.5677
18162TIP3    H175977   0.263   5.107   2.782  1.3124 -1.2693 -1.7962
18162TIP3    H275978   0.406   5.121   2.733  1.8677  1.8878  0.4382
18163TIP3   OH275979   1.334   0.285   5.756 -0.4015  0.0069  0.3966
18163TIP3    H175980   1.304   0.201   5.721  0.5919 -0.3441  0.3440
18163TIP3    H275981   1.258   0.343   5.751 -0.9703 -0.7671  0.0212
18164TIP3   OH275982   0.533   4.549  15.111  0.6782  0.5458 -0.0588
18164TIP3    H175983   0.511   4.642  15.114  0.5323  0.5091  2.2001
18164TIP3    H275984   0.469   4.511  15.051  0.3282  1.8083 -0.5143
18165TIP3   OH275985   6.471   6.186   0.977 -0.2541  0.3480  0.0085
18165TIP3    H175986   6.505   6.198   0.888  0.1581  1.2240  0.2701
18165TIP3    H275987   6.501   6.263   1.024  0.9485 -0.8926  1.3585
18166TIP3   OH275988   1.261   6.296   1.053 -0.1292  0.0130 -0.4088
18166TIP3    H175989   1.324   6.320   0.985 -0.3146  2.9823  0.3004
18166TIP3    H275990   1.255   6.375   1.108 -2.4905 -1.0953  1.0791
18167TIP3   OH275991   5.351   2.666   2.742 -0.5994  0.1353  0.1414
18167TIP3    H175992   5.320   2.608   2.672 -0.6506  0.7621 -0.3538
18167TIP3    H275993   5.419   2.719   2.702 -0.7596  0.6312  0.5117
18168TIP3   OH275994   2.719   5.007  10.753 -0.1981  0.7484  0.1113
18168TIP3    H175995   2.783   5.041  10.815  0.2536 -0.6693  0.4534
18168TIP3    H275996   2.771   4.958  10.689 -0.9001 -0.2365  0.2699
18169TIP3   OH275997   0.990   6.203   5.670 -0.3630  0.0525  0.2419
18169TIP3    H175998   0.920   6.138   5.667  0.1348 -0.4753 -0.1704
18169TIP3    H275999   1.008   6.223   5.578  0.9018 -0.7741  0.2980
18170TIP3   OH276000   1.736   0.405  12.525 -0.2351  0.4243  0.3870
18170TIP3    H176001   1.822   0.428  12.491  0.8568 -1.1792  1.8846
18170TIP3    H276002   1.709   0.328  12.475  0.6869 -1.0029  1.9798
18171TIP3   OH276003   5.612   1.376   0.052 -0.2276 -0.4337 -0.8175
18171TIP3    H176004   5.668   1.348  -0.021  0.2906 -0.6596 -0.3380
18171TIP3    H276005   5.556   1.300   0.068  1.6324 -1.5410  0.9294
18172TIP3   OH276006   0.424   4.881  16.003  0.4305 -0.0706 -0.1210
18172TIP3    H176007   0.433   4.791  15.972 -0.9142  0.0977 -1.1001
18172TIP3    H276008   0.481   4.886  16.080  2.0378 -1.1860 -1.1806
18173TIP3   OH276009   0.488   0.261   3.517 -0.0411 -0.2690  0.4437
18173TIP3    H176010   0.482   0.174   3.556  0.3176 -0.2136  0.6287
18173TIP3    H276011   0.403   0.276   3.477  0.5711 -1.6329 -1.5153
18174TIP3   OH276012   3.397   2.003  15.301 -0.2631 -0.0895 -0.2280
18174TIP3    H176013   3.456   2.079  15.296 -0.1200 -0.1406  0.6237
18174TIP3    H276014   3.310   2.040  15.291 -0.2459  0.2858  0.9177
18175TIP3   OH276015   3.436   2.145   3.529  0.1245 -0.1721 -0.8861
18175TIP3    H176016   3.425   2.195   3.610 -2.0533 -1.2024 -0.4535
18175TIP3    H276017   3.406   2.204   3.460  2.0563  0.7371 -0.9982
18176TIP3   OH276018   3.447   4.047  16.102  0.5336  0.0991  0.0389
18176TIP3    H176019   3.378   3.981  16.091  0.6670 -0.0045 -0.1964
18176TIP3    H276020   3.417   4.102  16.174 -1.1153  1.7204 -1.7883
18177TIP3   OH276021   5.543   3.928   2.693  0.4748 -0.2861 -0.0292
18177TIP3    H176022   5.543   3.863   2.764  0.3515 -0.5453 -0.2654
18177TIP3    H276023   5.458   3.917   2.650 -0.1112  0.9399  0.7517
18178TIP3   OH276024   2.750   4.062   6.790  0.1350  0.7714  0.5939
18178TIP3    H176025   2.733   3.969   6.775  0.2959  0.3528  2.8081
18178TIP3    H276026   2.832   4.078   6.743 -1.2688  0.5422 -2.1753
18179TIP3   OH276027   2.074   3.416   0.882 -0.3733  0.7680  0.0992
18179TIP3    H176028   1.996   3.360   0.886  1.1006 -1.3283  2.1395
18179TIP3    H276029   2.123   3.384   0.807  0.1857 -0.3854  0.9224
18180TIP3   OH276030   0.888   3.652   4.632 -0.3139  0.2685 -0.2600
18180TIP3    H176031   0.844   3.573   4.665 -2.3318  2.1510  1.9682
18180TIP3    H276032   0.975   3.622   4.607 -1.1293 -2.7268  0.0605
18181TIP3   OH276033   6.188   0.793   4.293 -0.1166 -0.2411  0.0460
18181TIP3    H176034   6.202   0.832   4.379 -0.5793 -0.6205  0.2978
18181TIP3    H276035   6.206   0.700   4.307  1.8079 -0.0400 -0.7335
18182TIP3   OH276036   3.818   0.938  16.555 -0.1192  0.4366 -0.0875
18182TIP3    H176037   3.844   1.025  16.526  2.8825 -0.4602 -0.4488
18182TIP3    H276038   3.883   0.914  16.621 -0.7634 -1.5919 -0.1241
18183TIP3   OH276039   4.753   2.718  10.753 -0.2681  0.1647  0.2462
18183TIP3    H176040   4.718   2.807  10.753  1.0784  0.7539 -1.6570
18183TIP3    H276041   4.716   2.678  10.832 -2.7577  1.6516 -0.0391
18184TIP3   OH276042   6.772   2.301  16.786 -0.2733  0.1082  0.4178
18184TIP3    H176043   6.724   2.382  16.768  0.1020  0.3071  0.2915
18184TIP3    H276044   6.864   2.328  16.787  0.0030 -0.5935 -1.3749
18185TIP3   OH276045   5.812   1.826  16.816  0.5112  0.6588 -0.0347
18185TIP3    H176046   5.720   1.851  16.819  1.0326  2.7018  0.1231
18185TIP3    H276047   5.827   1.780  16.899 -0.5351 -0.4506 -0.4346
18186TIP3   OH276048   5.504   0.460  15.713 -0.2606 -0.5076 -0.2507
18186TIP3    H176049   5.487   0.383  15.658 -1.3104  0.0885 -0.7909
18186TIP3    H276050   5.538   0.525  15.652 -2.8570  0.6796 -0.5862
18187TIP3   OH276051   5.891   4.003   1.788  0.3248 -0.0966 -0.0996
18187TIP3    H176052   5.843   4.049   1.857  1.3220  3.0901 -1.3583
18187TIP3    H276053   5.851   4.033   1.706  1.3494 -1.1731 -1.0390
18188TIP3   OH276054   3.985   6.664   4.156  0.1820 -0.8750 -0.1337
18188TIP3    H176055   3.936   6.735   4.115 -0.0271 -0.2953  1.0707
18188TIP3    H276056   3.972   6.589   4.098  1.1758  0.2745 -1.9388
18189TIP3   OH276057   6.377   4.221  14.826  0.0888  0.0530  0.4279
18189TIP3    H176058   6.416   4.164  14.760 -0.4009 -0.2370  0.3834
18189TIP3    H276059   6.380   4.309  14.788  0.7724  0.0484  0.4629
18190TIP3   OH276060   4.539   6.776  14.153 -0.7251  0.0662  0.5362
18190TIP3    H176061   4.578   6.850  14.106  0.4822 -2.7830 -3.4957
18190TIP3    H276062   4.598   6.762  14.227 -0.0658  2.1004  0.4560
18191TIP3   OH276063   0.225   1.365   1.408  0.3801 -0.4245 -1.1667
18191TIP3    H176064   0.157   1.422   1.373  0.8197  1.5408  0.9790
18191TIP3    H276065   0.295   1.369   1.343 -0.9243 -1.3663 -2.7208
18192TIP3   OH276066   1.575   3.231  12.035  0.2830 -0.7213 -0.2359
18192TIP3    H176067   1.600   3.294  11.967 -0.2325 -1.2151 -0.9019
18192TIP3    H276068   1.528   3.163  11.988 -1.3053 -0.3996  0.7872
18193TIP3   OH276069   0.478   5.078   3.848 -0.5213 -0.1480  0.2771
18193TIP3    H176070   0.494   5.038   3.763  0.7194 -1.8260  1.2344
18193TIP3    H276071   0.555   5.134   3.863 -0.3809 -0.4237  0.5971
18194TIP3   OH276072   0.558   6.074  14.109  0.1214 -0.1698  0.1404
18194TIP3    H176073   0.643   6.064  14.150  0.0997 -1.2986 -0.0632
18194TIP3    H276074   0.536   5.987  14.075 -0.3507  0.4669 -1.3115
18195TIP3   OH276075   0.401   5.338   5.872  0.2084 -0.2046 -0.0021
18195TIP3    H176076   0.432   5.373   5.956 -1.2502  0.2271  0.3905
18195TIP3    H276077   0.367   5.251   5.894  0.6546 -0.4673 -0.3330
18196TIP3   OH276078   5.121   2.039  16.170  0.6466  0.1325  0.0911
18196TIP3    H176079   5.202   2.026  16.220  0.0067 -0.1512  1.0726
18196TIP3    H276080   5.096   1.951  16.141  0.3871  0.1436  0.2771
18197TIP3   OH276081   5.145   4.195   2.262  0.4536  0.2885 -0.1083
18197TIP3    H176082   5.107   4.244   2.335  2.5282  0.8206  0.6867
18197TIP3    H276083   5.205   4.133   2.304 -0.1094 -1.0762 -1.2635
18198TIP3   OH276084   6.009   2.573   0.452 -0.0373  0.0191 -0.5675
18198TIP3    H176085   6.081   2.626   0.485 -0.4866  0.2277  0.0943
18198TIP3    H276086   6.031   2.483   0.479 -0.2451  0.1452  0.0453
18199TIP3   OH276087   6.389   5.897   2.115  0.3487  0.0007 -0.2374
18199TIP3    H176088   6.402   5.983   2.075 -0.3347 -0.4750 -1.5361
18199TIP3    H276089   6.332   5.914   2.190 -0.3006  0.5941 -0.8568
18200TIP3   OH276090   0.988   5.313   2.183  0.0953  0.8212  0.2034
18200TIP3    H176091   1.008   5.220   2.174 -1.1192  0.3437  1.9425
18200TIP3    H276092   1.052   5.356   2.126  1.6932 -0.9654  0.5080
18201TIP3   OH276093   3.264   6.087   3.293  0.1288  0.2883  0.3851
18201TIP3    H176094   3.237   6.095   3.384 -1.8248  1.5500 -0.2587
18201TIP3    H276095   3.251   5.994   3.272 -2.9789  0.6183  0.4041
18202TIP3   OH276096   4.152   6.638  14.230  0.0328 -0.1268 -0.2245
18202TIP3    H176097   4.107   6.610  14.310  0.2456  1.2795  0.4082
18202TIP3    H276098   4.082   6.666  14.172 -0.0117  0.7395  0.2343
18203TIP3   OH276099   3.461   3.098  16.966  0.0638  0.1905 -0.4685
18203TIP3    H176100   3.513   3.165  16.921 -0.3313 -0.2683 -1.6291
18203TIP3    H276101   3.453   3.027  16.903 -0.2106 -0.6231  0.4611
18204TIP3   OH276102   1.705   5.250   2.076 -0.2959  0.3146 -0.5062
18204TIP3    H176103   1.714   5.176   2.016  2.1462 -0.0332  0.1820
18204TIP3    H276104   1.622   5.234   2.121 -0.5260 -1.2329 -1.3893
18205TIP3   OH276105   4.771   1.220   5.580  0.2289  0.5546 -0.1589
18205TIP3    H176106   4.837   1.153   5.562 -0.6641 -0.2421 -0.5811
18205TIP3    H276107   4.719   1.184   5.652 -0.6467  0.4798 -0.8051
18206TIP3   OH276108   5.365   1.551  12.858  0.1195 -0.2624 -0.0925
18206TIP3    H176109   5.414   1.484  12.811  0.8405 -0.7001  1.2291
18206TIP3    H276110   5.295   1.503  12.902 -0.6859  0.1747 -0.8563
18207TIP3   OH276111   4.568   1.484   5.475 -0.2057 -0.2325 -0.7589
18207TIP3    H176112   4.573   1.487   5.570  0.2119 -0.4834 -0.7668
18207TIP3    H276113   4.547   1.573   5.448 -2.0841 -0.5218 -0.3443
18208TIP3   OH276114   0.565   0.733  16.319  0.4222 -0.3550  0.1114
18208TIP3    H176115   0.480   0.693  16.298  0.5483  0.1149 -1.4062
18208TIP3    H276116   0.543   0.803  16.381 -0.5700  0.8854 -1.5510
18209TIP3   OH276117   4.783   4.672   4.519  0.0336  0.0067 -0.6440
18209TIP3    H176118   4.798   4.664   4.613 -0.9493  1.2043 -0.3469
18209TIP3    H276119   4.774   4.582   4.487  0.1336 -0.4001  0.4508
18210TIP3   OH276120   5.918   5.468   3.984 -0.3649  0.1569  0.0170
18210TIP3    H176121   5.939   5.556   3.954  0.2377 -0.1699 -0.5450
18210TIP3    H276122   5.882   5.425   3.907 -1.5851  0.1997  0.5409
18211TIP3   OH276123   0.408   2.731  14.320  0.2530  0.3316 -0.0909
18211TIP3    H176124   0.432   2.788  14.392  1.0429 -1.4266  1.1008
18211TIP3    H276125   0.485   2.678  14.304 -1.7354 -3.7011  2.1289
18212TIP3   OH276126   3.314   2.403   4.033 -0.2132 -0.1938  0.1079
18212TIP3    H176127   3.358   2.380   4.114  0.5878 -0.8691 -0.5056
18212TIP3    H276128   3.301   2.498   4.038  0.6122 -0.1056  0.6405
18213TIP3   OH276129   1.695   0.786   0.792  0.6859 -0.1575  0.0276
18213TIP3    H176130   1.672   0.854   0.728 -0.1590  0.2293  0.7185
18213TIP3    H276131   1.791   0.784   0.791  0.8666  2.3610  1.2681
18214TIP3   OH276132   3.471   2.175  13.036  0.3569  0.3419 -0.1529
18214TIP3    H176133   3.534   2.107  13.015 -0.5845 -1.3918  2.2007
18214TIP3    H276134   3.432   2.199  12.952  1.5313 -1.1785 -1.1826
18215TIP3   OH276135   2.608   4.086  13.676 -0.8310  0.1344 -0.5443
18215TIP3    H176136   2.576   4.079  13.766 -0.5748  1.3965 -0.3291
18215TIP3    H276137   2.696   4.124  13.685  0.0314 -1.6273 -1.2241
18216TIP3   OH276138   2.344   4.046  17.171 -0.5798 -0.1710 -0.1308
18216TIP3    H176139   2.408   4.062  17.241  1.1700 -0.1525 -1.6601
18216TIP3    H276140   2.374   3.965  17.130  2.0839  2.5609 -4.4840
18217TIP3   OH276141   2.924   6.689  12.448 -0.3217  0.2427 -0.6373
18217TIP3    H176142   2.970   6.690  12.363 -1.2506 -0.6030 -1.1712
18217TIP3    H276143   2.858   6.757  12.440  0.0148  0.6109 -0.3326
18218TIP3   OH276144   0.756   0.118   2.203  0.0155 -0.3724 -0.0409
18218TIP3    H176145   0.769   0.146   2.113  0.9585 -0.7430 -0.0276
18218TIP3    H276146   0.738   0.199   2.251 -0.6537 -0.1900 -0.5759
18219TIP3   OH276147   4.244   0.456  15.072 -0.2267  0.3763  0.2642
18219TIP3    H176148   4.152   0.465  15.048  0.3465  2.2506 -1.4865
18219TIP3    H276149   4.290   0.443  14.989  1.2527  0.9543  0.9481
18220TIP3   OH276150   3.676   1.495   2.710  0.5063  0.2246  0.9373
18220TIP3    H176151   3.672   1.467   2.618  0.3382  0.4325  0.8824
18220TIP3    H276152   3.676   1.413   2.760  0.4229  0.1159  0.7584
18221TIP3   OH276153   1.711   2.544  12.651 -0.2022  0.0794  0.0424
18221TIP3    H176154   1.704   2.456  12.688  0.0093 -0.1207 -0.3817
18221TIP3    H276155   1.788   2.582  12.694  0.3028 -0.3099 -0.4996
18222TIP3   OH276156   0.801   3.109   5.350  0.3168 -0.8270  0.3260
18222TIP3    H176157   0.817   3.018   5.323  2.5713 -0.6744  0.9593
18222TIP3    H276158   0.878   3.133   5.401  0.1060  1.6849 -0.3957
18223TIP3   OH276159   2.876   1.156   5.505  0.4344  0.2578  0.3720
18223TIP3    H176160   2.909   1.083   5.453  0.7203  0.6055  0.0583
18223TIP3    H276161   2.794   1.123   5.543 -0.9013  0.6429 -1.9504
18224TIP3   OH276162   2.235   0.507   2.474 -0.1907  0.1199 -0.2877
18224TIP3    H176163   2.162   0.559   2.508  0.2254  0.1173  0.6475
18224TIP3    H276164   2.241   0.532   2.382 -0.6771  0.9409 -0.1134
18225TIP3   OH276165   2.088   4.577   5.234 -0.0245 -0.5221  0.0517
18225TIP3    H176166   1.993   4.585   5.228  0.0376  2.8296  1.5886
18225TIP3    H276167   2.103   4.522   5.311 -0.6630 -1.8320 -0.7305
18226TIP3   OH276168   2.803   4.705  16.002  0.6880 -0.3320  0.4580
18226TIP3    H176169   2.717   4.691  16.041  0.0615  1.3928 -0.2426
18226TIP3    H276170   2.786   4.746  15.918  2.1665 -0.9406 -0.1865
18227TIP3   OH276171   2.778   1.111   1.106 -0.8397 -1.1327 -0.7279
18227TIP3    H176172   2.724   1.055   1.162  1.1891 -0.8685  1.6796
18227TIP3    H276173   2.827   1.051   1.050 -1.6961 -1.4927 -1.1092
18228TIP3   OH276174   6.601   1.102  14.704  0.0414 -0.6259  0.5359
18228TIP3    H176175   6.606   1.168  14.635 -0.5578 -0.0618  1.0159
18228TIP3    H276176   6.555   1.146  14.776  0.6211 -1.2150  1.2796
18229TIP3   OH276177   2.488   1.447  13.637  0.0585 -0.1825 -0.1851
18229TIP3    H176178   2.561   1.429  13.578  1.1661 -0.7136  1.2813
18229TIP3    H276179   2.446   1.525  13.600  1.0415 -0.1721 -1.3531
18230TIP3   OH276180   6.660   6.777  14.632 -0.7807 -0.0961  0.4315
18230TIP3    H176181   6.592   6.711  14.647 -2.1136  0.5352 -2.2446
18230TIP3    H276182   6.625   6.855  14.675 -0.7677 -0.2945  0.8074
18231TIP3   OH276183   4.387   6.785  14.639  0.1692 -0.1419  0.2330
18231TIP3    H176184   4.337   6.759  14.561  1.9061  0.6408 -1.2210
18231TIP3    H276185   4.473   6.808  14.605 -0.2890  4.7191  1.6277
18232TIP3   OH276186   4.981   3.990   4.901 -0.3304 -0.4800 -0.5087
18232TIP3    H176187   5.052   4.049   4.874 -0.7034 -0.7281 -2.0870
18232TIP3    H276188   4.901   4.042   4.891 -0.6461 -1.1717 -1.7355
18233TIP3   OH276189   5.703   2.866  13.151  0.8629 -0.3154 -0.2655
18233TIP3    H176190   5.795   2.881  13.172  0.7718  0.4664 -0.4020
18233TIP3    H276191   5.702   2.854  13.056  0.8803 -0.8213 -0.2075
18234TIP3   OH276192   1.799   0.663   3.175 -0.7145 -0.2527  0.0121
18234TIP3    H176193   1.858   0.728   3.213 -2.4250  1.6814 -0.4700
18234TIP3    H276194   1.786   0.598   3.245  1.1949 -0.2480  0.4341
18235TIP3   OH276195   0.333   4.532   4.336  0.5855 -0.3290 -0.0576
18235TIP3    H176196   0.387   4.463   4.298  0.9936 -2.4335  3.7527
18235TIP3    H276197   0.393   4.581   4.392 -0.3216  1.2923 -0.4460
18236TIP3   OH276198   4.590   5.561  12.565  0.5365 -0.6268  0.4343
18236TIP3    H176199   4.613   5.533  12.477 -1.0331 -0.4436 -0.0729
18236TIP3    H276200   4.673   5.577  12.609  1.4177  2.3692 -1.9779
18237TIP3   OH276201   5.983   1.857  16.342  0.0228  0.2823 -0.0941
18237TIP3    H176202   5.942   1.939  16.314 -0.7126  0.2512  0.8283
18237TIP3    H276203   6.010   1.814  16.261 -2.7382 -0.1879 -0.8476
18238TIP3   OH276204   2.407   4.120   1.359 -0.0306  0.2338  0.2341
18238TIP3    H176205   2.323   4.140   1.401 -0.4280  1.1316 -0.9559
18238TIP3    H276206   2.446   4.205   1.341  1.5774 -0.1652  1.5489
18239TIP3   OH276207   0.172   2.144  14.873  0.7833  0.1651  0.3154
18239TIP3    H176208   0.239   2.125  14.938  0.8133  1.9413  0.8584
18239TIP3    H276209   0.195   2.231  14.840 -1.5908  1.0986  0.9612
18240TIP3   OH276210   2.336   0.038   4.198 -0.2233 -0.3441 -0.2404
18240TIP3    H176211   2.411   0.067   4.147 -0.6088  0.4455 -0.3738
18240TIP3    H276212   2.282   0.116   4.208 -0.5509 -0.6750  0.6914
18241TIP3   OH276213   3.603   6.693  11.033  0.3518  0.2434 -0.2415
18241TIP3    H176214   3.548   6.687  10.955  1.5881  1.7130 -1.2979
18241TIP3    H276215   3.683   6.645  11.010  0.8831  1.0056 -0.0621
18242TIP3   OH276216   0.801   4.062  11.001  0.1287  0.4903  0.2925
18242TIP3    H176217   0.725   4.018  11.038  0.1899  0.7850  0.7890
18242TIP3    H276218   0.808   4.029  10.912 -0.8910  0.8391  0.0657
18243TIP3   OH276219   0.924   5.484   6.316  0.4250  0.0696  0.2846
18243TIP3    H176220   0.839   5.488   6.361  0.4994  0.2844  0.4138
18243TIP3    H276221   0.984   5.448   6.382  0.1888 -1.2555 -0.2058
18244TIP3   OH276222   4.403   5.201   5.286  0.5470  0.1850  0.3769
18244TIP3    H176223   4.408   5.180   5.380  0.9502 -0.6848  0.1666
18244TIP3    H276224   4.425   5.294   5.281 -0.1661  0.4100  1.2189
18245TIP3   OH276225   6.506   4.397  15.202 -0.1738 -0.3909  0.1847
18245TIP3    H176226   6.566   4.396  15.127 -0.3623  0.7737 -0.0034
18245TIP3    H276227   6.527   4.317  15.251  0.8349 -0.5135 -0.4209
18246TIP3   OH276228   2.068   6.782   1.303 -0.1848  0.1885 -0.3338
18246TIP3    H176229   2.110   6.839   1.367  1.7860 -2.6995  1.2012
18246TIP3    H276230   1.995   6.742   1.350  0.4690 -0.9537 -0.2360
18247TIP3   OH276231   3.795   6.271   1.566  0.2082 -0.6303  0.4483
18247TIP3    H176232   3.837   6.201   1.615 -2.2743 -2.3833  0.2765
18247TIP3    H276233   3.747   6.226   1.496 -1.6163  1.1932  0.4275
18248TIP3   OH276234   0.897   4.335   1.676  0.8213  0.1421 -0.4886
18248TIP3    H176235   0.811   4.351   1.637  0.1163  0.9791  1.2692
18248TIP3    H276236   0.937   4.268   1.620 -0.8939 -0.1432 -1.4551
18249TIP3   OH276237   5.611   2.870  16.396  0.4735  0.0823  0.2614
18249TIP3    H176238   5.672   2.875  16.470 -0.9903  0.3518  1.4930
18249TIP3    H276239   5.583   2.960  16.382 -0.4621 -0.1692  0.4396
18250TIP3   OH276240   4.029   5.667  17.128 -0.3784  0.5834  0.6305
18250TIP3    H176241   3.983   5.750  17.119  1.5346  1.9581  2.6201
18250TIP3    H276242   3.962   5.606  17.159 -1.4242  1.8718  0.9942
18251TIP3   OH276243   3.923   4.134   4.071 -0.5016 -0.1298 -0.0487
18251TIP3    H176244   3.919   4.202   4.138 -0.3646 -0.0919 -0.0805
18251TIP3    H276245   4.007   4.091   4.085 -0.9031 -0.7843  0.4530
18252TIP3   OH276246   0.968   6.422  16.808 -0.1293  0.3042  0.2642
18252TIP3    H176247   0.876   6.425  16.833 -0.1704 -0.0710  0.1727
18252TIP3    H276248   0.988   6.328  16.804 -0.4841  0.2484 -2.3954
18253TIP3   OH276249   1.243   3.304  11.249 -0.5521 -0.0536 -0.1134
18253TIP3    H176250   1.242   3.282  11.342  2.2316 -0.0980 -0.0271
18253TIP3    H276251   1.247   3.400  11.247  1.5399 -0.0867 -0.0479
18254TIP3   OH276252   3.982   4.269   1.578  0.6594 -0.1015  0.1026
18254TIP3    H176253   4.010   4.205   1.512 -1.6100 -0.3820 -0.6754
18254TIP3    H276254   3.887   4.273   1.568  0.1970 -0.2085  3.4256
18255TIP3   OH276255   6.218   0.934  15.480 -0.3042  0.5254  0.1569
18255TIP3    H176256   6.202   0.861  15.540 -0.4418 -0.2585 -0.8067
18255TIP3    H276257   6.302   0.970  15.508  0.2395 -0.6175  0.0571
18256TIP3   OH276258   6.663   1.912   5.019 -0.0410 -0.3560 -0.6997
18256TIP3    H176259   6.572   1.882   5.009 -0.0241 -0.4587 -0.5363
18256TIP3    H276260   6.709   1.872   4.945  0.1254 -1.2890 -0.0985
18257TIP3   OH276261   5.731   1.452   3.537  0.1809  0.2159 -0.3635
18257TIP3    H176262   5.721   1.360   3.560  0.5125  0.1140 -0.6354
18257TIP3    H276263   5.657   1.471   3.480  0.0287  0.1590 -0.1856
18258TIP3   OH276264   4.498   6.359  16.566  0.4478 -0.2064 -0.1161
18258TIP3    H176265   4.566   6.396  16.510  0.6956 -0.1605  0.2119
18258TIP3    H276266   4.509   6.264  16.556 -0.4836 -0.2131 -1.3078
18259TIP3   OH276267   1.360   3.059   0.468  0.1777 -0.0812  0.4312
18259TIP3    H176268   1.316   3.120   0.409  1.1640  0.0867 -0.1617
18259TIP3    H276269   1.289   3.017   0.516 -0.5397  1.5083  0.8408
18260TIP3   OH276270   2.452   4.000   6.077 -0.0925  0.2655  0.3631
18260TIP3    H176271   2.518   3.931   6.082  0.8794  1.0859 -0.4853
18260TIP3    H276272   2.368   3.954   6.078  0.5263 -0.9219 -0.2472
18261TIP3   OH276273   3.644   2.759  13.267  0.1516 -0.2791  0.3346
18261TIP3    H176274   3.626   2.771  13.361 -0.2846 -0.4273  0.2673
18261TIP3    H276275   3.578   2.697  13.237  0.2454 -0.1750 -0.0913
18262TIP3   OH276276   3.863   6.659  16.966 -0.1632  0.6181 -0.3042
18262TIP3    H176277   3.909   6.721  16.910  1.5478 -0.3278 -0.0181
18262TIP3    H276278   3.831   6.591  16.906  0.2761  0.4303 -0.3315
18263TIP3   OH276279   0.031   2.804   4.617  0.1269  0.0836  0.0348
18263TIP3    H176280  -0.060   2.820   4.642  0.6325  1.5796  1.1171
18263TIP3    H276281   0.031   2.809   4.521 -1.0360 -0.6971 -0.0218
18264TIP3   OH276282   3.020   4.108   5.387 -0.0937 -0.1349  0.1937
18264TIP3    H176283   3.041   4.181   5.330 -0.4207 -0.3745 -0.2323
18264TIP3    H276284   2.942   4.068   5.349 -0.4577 -0.1586  0.9345
18265TIP3   OH276285   3.148   3.465  15.547 -0.5821 -0.5560  0.5529
18265TIP3    H176286   3.184   3.552  15.563  0.5759 -0.7249 -0.9129
18265TIP3    H276287   3.202   3.406  15.600  0.6209 -0.6803 -0.7570
18266TIP3   OH276288   5.793   0.688   2.112  0.0371  0.1663 -0.1062
18266TIP3    H176289   5.766   0.751   2.179 -0.7416 -1.1097  0.8334
18266TIP3    H276290   5.828   0.614   2.162  0.9796 -0.1417 -1.1787
18267TIP3   OH276291   2.367   2.870   4.828 -0.3728 -0.1431  0.3046
18267TIP3    H176292   2.320   2.789   4.848  1.0798 -0.8691  0.8619
18267TIP3    H276293   2.318   2.938   4.874 -1.0929 -0.8183  0.5529
18268TIP3   OH276294   0.876   6.806   1.518 -0.7808 -0.3149 -0.5349
18268TIP3    H176295   0.780   6.813   1.525 -0.7503 -0.6846  0.5504
18268TIP3    H276296   0.891   6.731   1.461 -1.1407 -0.3591 -0.5733
18269TIP3   OH276297   2.413   4.875   4.622  0.1429  0.2490 -0.2372
18269TIP3    H176298   2.384   4.956   4.665  0.3352  0.0801  0.2241
18269TIP3    H276299   2.347   4.859   4.554 -0.7767 -0.0371  0.6834
18270TIP3   OH276300   3.643   5.001  15.018 -0.0770  0.0217 -0.3197
18270TIP3    H176301   3.662   5.077  15.074  1.1866 -1.2611  1.1014
18270TIP3    H276302   3.708   4.936  15.045  0.1403 -0.9063 -2.8616
18271TIP3   OH276303   6.003   3.682  16.412 -0.3346 -0.4715 -0.8642
18271TIP3    H176304   6.066   3.615  16.439 -0.2410  0.0124  0.1952
18271TIP3    H276305   5.927   3.667  16.469 -0.4911  0.0195 -0.9412
18272TIP3   OH276306   3.244   3.422  15.003 -0.1456  0.0666  0.8545
18272TIP3    H176307   3.281   3.396  15.087 -1.8380 -3.0179  0.7962
18272TIP3    H276308   3.153   3.394  15.007 -0.7690  1.5423 -1.3363
18273TIP3   OH276309   1.269   2.255  15.094  0.4969  0.6191 -0.1390
18273TIP3    H176310   1.299   2.325  15.152  1.4077 -0.2188  0.4405
18273TIP3    H276311   1.281   2.175  15.146  1.5452 -0.1782 -1.5511
18274TIP3   OH276312   6.604   1.978  10.662 -0.4212  0.2192  0.1933
18274TIP3    H176313   6.652   1.935  10.591  0.6316  1.5299  0.0851
18274TIP3    H276314   6.513   1.953  10.648 -0.0155 -0.8574 -0.6564
18275TIP3   OH276315   5.965   6.151   3.147 -0.1340  0.4494  0.3915
18275TIP3    H176316   5.872   6.140   3.127 -0.1181  0.7922  0.1267
18275TIP3    H276317   5.968   6.219   3.214 -0.1174 -0.0191  0.8703
18276TIP3   OH276318   1.143   2.881   0.860 -0.3941 -0.2321  0.3699
18276TIP3    H176319   1.066   2.897   0.914 -0.9984 -1.1813 -0.1771
18276TIP3    H276320   1.119   2.915   0.774 -0.1193 -0.3228  0.2561
18277TIP3   OH276321   2.396   3.327  16.007  0.5537 -0.3167  0.0973
18277TIP3    H176322   2.330   3.383  16.049  0.3268 -1.3278  1.1462
18277TIP3    H276323   2.344   3.266  15.955  0.7158 -0.4515  0.0948
18278TIP3   OH276324   2.907   0.221  11.792  0.2286  0.2700 -0.4082
18278TIP3    H176325   2.924   0.127  11.793 -1.3994 -0.0654 -0.9065
18278TIP3    H276326   2.823   0.229  11.745  1.4731  2.1530 -2.5079
18279TIP3   OH276327   4.604   6.781   4.054  0.5222  0.2238  0.5068
18279TIP3    H176328   4.682   6.814   4.100  1.9876 -1.5807 -0.5113
18279TIP3    H276329   4.591   6.842   3.982  1.0959  0.4901  0.6223
18280TIP3   OH276330   4.133   2.142   0.269  0.3021 -0.1612 -0.5771
18280TIP3    H176331   4.182   2.142   0.352  2.7647 -1.1102 -1.9218
18280TIP3    H276332   4.166   2.219   0.222 -1.6650  0.8353 -0.4212
18281TIP3   OH276333   6.083   6.397  10.518 -0.3185  0.2659 -0.3795
18281TIP3    H176334   6.087   6.306  10.546  0.8149  0.0970 -1.0303
18281TIP3    H276335   6.166   6.412  10.473 -0.3785  1.7032 -0.0541
18282TIP3   OH276336   5.923   3.701  12.972  0.5623 -0.1186  0.1778
18282TIP3    H176337   6.016   3.695  12.951  0.8989  0.8536  1.2737
18282TIP3    H276338   5.883   3.627  12.926  1.6201  0.3459 -1.5987
18283TIP3   OH276339   2.612   2.612   0.378 -0.3835 -0.2664 -0.4068
18283TIP3    H176340   2.538   2.662   0.412 -1.8575 -2.1334 -0.6941
18283TIP3    H276341   2.643   2.561   0.453  0.4192  0.2294 -0.3802
18284TIP3   OH276342   1.852   4.885   2.887  0.2630 -0.3891  0.2814
18284TIP3    H176343   1.812   4.798   2.880  0.1447 -0.7528  3.9143
18284TIP3    H276344   1.836   4.925   2.801 -0.1430 -3.7015 -1.3575
18285TIP3   OH276345   4.413   1.383   4.764 -0.3798 -0.8874  0.0598
18285TIP3    H176346   4.410   1.291   4.738 -0.1390 -0.7377 -0.5193
18285TIP3    H276347   4.504   1.398   4.789 -0.2354 -0.6127 -0.6021
18286TIP3   OH276348   3.189   3.696  15.068  0.0518 -0.4057 -0.6097
18286TIP3    H176349   3.237   3.750  15.005 -0.0345 -1.0360 -1.2209
18286TIP3    H276350   3.256   3.636  15.103 -0.0450 -0.5144 -0.6114
18287TIP3   OH276351   3.158   3.896   0.207  0.1980 -0.1262 -0.3498
18287TIP3    H176352   3.196   3.896   0.295  0.2176 -1.5724 -0.3244
18287TIP3    H276353   3.157   3.803   0.182  0.8476  0.3077 -2.1604
18288TIP3   OH276354   4.099   2.716   5.760  0.3650  0.0882 -0.3643
18288TIP3    H176355   4.047   2.657   5.705  1.4971 -2.1282  0.7848
18288TIP3    H276356   4.040   2.743   5.830  0.0847 -0.4961 -0.3726
18289TIP3   OH276357   3.190   6.078  16.844 -0.0862  0.2494  0.1190
18289TIP3    H176358   3.145   6.130  16.777  2.8240  1.4983 -0.9971
18289TIP3    H276359   3.161   6.115  16.927 -0.5576  1.4737 -0.5727
18290TIP3   OH276360   1.516   2.380   5.120  0.7022 -0.6819  0.2940
18290TIP3    H176361   1.477   2.356   5.204 -0.1796 -1.1817 -0.2588
18290TIP3    H276362   1.539   2.297   5.079 -2.0997 -0.6761 -1.4941
18291TIP3   OH276363   6.453   0.034   1.023  0.9149  0.1384  0.4803
18291TIP3    H176364   6.420   0.124   1.023  1.6928  0.4410 -0.1933
18291TIP3    H276365   6.547   0.044   1.040  1.0903 -0.5105 -0.1029
18292TIP3   OH276366   2.854   3.964   5.192 -0.3663 -0.5559  0.0769
18292TIP3    H176367   2.872   3.880   5.149 -1.1301 -0.2553 -0.8819
18292TIP3    H276368   2.776   3.948   5.245 -1.1799 -0.2020 -0.9695
18293TIP3   OH276369   1.423   4.162  11.319  0.2893 -0.2339  0.0408
18293TIP3    H176370   1.513   4.170  11.352  0.5570 -1.1983 -0.4064
18293TIP3    H276371   1.387   4.250  11.326  0.7501 -0.1363  1.6900
18294TIP3   OH276372   0.945   5.743  17.188  0.3304 -0.1552  0.4566
18294TIP3    H176373   1.034   5.727  17.159  0.5889 -0.6085  1.4634
18294TIP3    H276374   0.891   5.726  17.111  1.0466 -0.6215  0.0476
18295TIP3   OH276375   5.154   3.924   6.219  0.0096 -0.4898 -0.2129
18295TIP3    H176376   5.126   3.895   6.306 -0.7791  0.0619 -0.2748
18295TIP3    H276377   5.242   3.960   6.233  0.7238 -2.2068 -0.0089
18296TIP3   OH276378   4.348   3.987  12.387 -0.1177  0.3794 -0.1900
18296TIP3    H176379   4.294   3.969  12.310 -0.9993 -0.4215  0.5905
18296TIP3    H276380   4.376   3.901  12.417 -0.0118  0.6607  0.5387
18297TIP3   OH276381   1.188   4.149   2.347 -0.0177 -0.4043  0.0175
18297TIP3    H176382   1.265   4.199   2.319 -1.2642  1.2275 -0.6786
18297TIP3    H276383   1.130   4.214   2.386 -2.0162 -1.1307 -1.5670
18298TIP3   OH276384   4.149   0.111   2.873  0.5789 -0.4125 -0.1586
18298TIP3    H176385   4.206   0.131   2.799  0.4437 -1.2242 -0.5028
18298TIP3    H276386   4.186   0.031   2.910  0.9278  0.2550  0.9589
18299TIP3   OH276387   2.810   5.662   6.291 -0.3707  0.2920 -0.0153
18299TIP3    H176388   2.896   5.673   6.330 -0.1760  0.6988 -0.5537
18299TIP3    H276389   2.750   5.704   6.353 -0.0249  1.2623 -0.3261
18300TIP3   OH276390   0.105   0.275   4.665  0.8085 -0.0167 -0.0385
18300TIP3    H176391   0.060   0.191   4.656 -0.7541  0.7421  0.3397
18300TIP3    H276392   0.151   0.286   4.581  1.3109 -1.3784  0.0290
18301TIP3   OH276393   2.330   6.456  15.620  0.4973  0.5114  0.6084
18301TIP3    H176394   2.376   6.378  15.651 -0.6574 -0.3283  0.2816
18301TIP3    H276395   2.379   6.529  15.657  0.1393 -0.3993  3.0389
18302TIP3   OH276396   5.709   0.565   0.112 -0.2649 -0.0518  0.5555
18302TIP3    H176397   5.665   0.501   0.056  0.1632  0.1524 -0.0146
18302TIP3    H276398   5.802   0.544   0.104  0.0457  1.7315 -1.0193
18303TIP3   OH276399   0.848   6.817  16.297  0.0431 -0.4975  0.5901
18303TIP3    H176400   0.801   6.737  16.322  1.7263 -2.2329 -1.4438
18303TIP3    H276401   0.780   6.884  16.295 -2.3896 -2.7766 -1.7801
18304TIP3   OH276402   0.409   5.518  16.720  0.2305 -0.3363 -0.5233
18304TIP3    H176403   0.342   5.449  16.719 -0.9840  0.7852 -2.4504
18304TIP3    H276404   0.361   5.599  16.701  1.8919  0.7605 -0.2355
18305TIP3   OH276405   2.305   6.353   5.713  0.2309  0.3938 -0.1325
18305TIP3    H176406   2.286   6.286   5.778  0.3424  0.2648 -0.2331
18305TIP3    H276407   2.398   6.372   5.724  0.4183 -0.1318 -0.7198
18306TIP3   OH276408   0.141   3.822   0.994  0.5266  0.5315 -0.0831
18306TIP3    H176409   0.090   3.742   0.989 -0.1379  0.9766 -0.7651
18306TIP3    H276410   0.105   3.869   1.070  0.9704  0.1611  0.3649
18307TIP3   OH276411   1.079   2.353  13.406  0.5742 -0.1525 -0.2809
18307TIP3    H176412   1.133   2.393  13.473  2.1179  0.1626 -1.6460
18307TIP3    H276413   1.091   2.259  13.417 -1.3500 -0.2551  1.5575
18308TIP3   OH276414   6.237   3.888  11.013 -0.4396 -0.1671 -0.3051
18308TIP3    H176415   6.205   3.815  10.960 -0.4890  0.1880 -0.7726
18308TIP3    H276416   6.323   3.908  10.977 -0.6824  0.4011 -0.5758
18309TIP3   OH276417   6.194   0.538   4.761  0.2613 -0.4205 -0.6068
18309TIP3    H176418   6.107   0.536   4.719 -0.3256  1.6117  0.3505
18309TIP3    H276419   6.192   0.465   4.822 -0.9187 -0.2494 -0.3982
18310TIP3   OH276420   0.742   4.968   2.317  0.6876  0.6956  0.4427
18310TIP3    H176421   0.799   4.918   2.376 -0.4268  1.4968  2.2489
18310TIP3    H276422   0.757   4.928   2.231  3.7023  0.6530  0.8724
18311TIP3   OH276423   1.121   3.969   6.226  0.1500 -0.8078 -0.6647
18311TIP3    H176424   1.088   3.892   6.179  0.5067 -1.2079 -0.2727
18311TIP3    H276425   1.196   3.936   6.276 -0.4169 -0.4628  0.4312
18312TIP3   OH276426   5.910   4.249   6.048 -0.0742 -0.6080 -0.3448
18312TIP3    H176427   5.819   4.270   6.027 -0.0553 -0.9497 -0.7813
18312TIP3    H276428   5.907   4.158   6.079  0.2091 -0.8522 -1.0151
18313TIP3   OH276429   5.702   1.603  11.296  0.4191  0.9660 -0.2098
18313TIP3    H176430   5.725   1.687  11.255 -2.1701  0.7670 -2.3724
18313TIP3    H276431   5.785   1.556  11.302  1.5624  2.7139 -1.3412
18314TIP3   OH276432   0.028   5.265  13.156  0.5551  0.4867  0.0688
18314TIP3    H176433   0.017   5.316  13.235 -0.1447 -0.2312  0.4505
18314TIP3    H276434   0.024   5.174  13.185  2.1914  0.1849 -0.5342
18315TIP3   OH276435   5.836   2.999  13.603  0.4881  0.1021 -0.4492
18315TIP3    H176436   5.913   2.945  13.586  0.8075  0.5707 -0.5027
18315TIP3    H276437   5.765   2.955  13.556  0.4626 -0.9906  0.5860
18316TIP3   OH276438   6.785   6.487  11.100  0.1732  0.1846 -1.1590
18316TIP3    H176439   6.805   6.424  11.031 -1.3688 -0.6274 -0.8859
18316TIP3    H276440   6.869   6.500  11.145  0.6845 -1.0630 -1.7038
18317TIP3   OH276441   2.701   3.420   4.883 -0.0048  0.1529 -0.2344
18317TIP3    H176442   2.771   3.421   4.817 -0.3175 -1.0839 -0.6152
18317TIP3    H276443   2.631   3.473   4.845  0.6610  1.2994  0.0962
18318TIP3   OH276444   2.680   5.812  11.317  0.4716  1.0565  0.4683
18318TIP3    H176445   2.667   5.891  11.265  0.3577  0.4023 -0.5392
18318TIP3    H276446   2.746   5.762  11.268 -0.2771  0.0239  0.4795
18319TIP3   OH276447   6.306   1.494  13.246  0.1939 -0.4967 -0.5548
18319TIP3    H176448   6.365   1.534  13.311  0.4134  0.1078 -1.1085
18319TIP3    H276449   6.227   1.473  13.296  0.3445 -0.0151 -0.0915
18320TIP3   OH276450   5.612   2.529   1.490  0.0141  0.0715 -0.0307
18320TIP3    H176451   5.551   2.587   1.444  0.0062 -0.5907 -0.8714
18320TIP3    H276452   5.598   2.443   1.450  0.6604 -0.3241  0.5857
18321TIP3   OH276453   2.557   6.670   5.370  0.2095  0.0628  0.4365
18321TIP3    H176454   2.554   6.678   5.275 -0.0153  0.5480  0.4834
18321TIP3    H276455   2.541   6.577   5.386  3.0470 -0.6291 -0.1283
18322TIP3   OH276456   6.363   6.359  16.428  0.2120  0.1844  1.0002
18322TIP3    H176457   6.347   6.283  16.484 -1.3695  1.5540  2.5006
18322TIP3    H276458   6.453   6.386  16.450  1.3570 -1.9945 -0.5865
18323TIP3   OH276459   5.897   3.072  16.427 -0.3182 -0.3188 -0.3594
18323TIP3    H176460   5.843   2.994  16.419  0.8162 -1.2648  0.8815
18323TIP3    H276461   5.960   3.065  16.354 -1.5095  0.5440 -1.5188
18324TIP3   OH276462   5.019   0.480  11.634  0.1478 -0.0054 -0.2741
18324TIP3    H176463   5.074   0.540  11.585  0.4582  1.0174  1.2709
18324TIP3    H276464   5.078   0.409  11.661  0.1172 -0.2325 -0.7865
18325TIP3   OH276465   5.428   1.026   1.600 -0.0785 -0.2567 -0.0998
18325TIP3    H176466   5.434   1.060   1.690  0.5995 -1.6180  0.4024
18325TIP3    H276467   5.445   0.932   1.609  0.7589 -0.2970 -1.7527
18326TIP3   OH276468   0.368   4.608   5.229  0.0355 -0.0117  0.0325
18326TIP3    H176469   0.284   4.600   5.184 -0.6910  0.6567  1.2168
18326TIP3    H276470   0.397   4.698   5.210 -0.1448  0.1828  0.6473
18327TIP3   OH276471   2.386   3.434  13.362 -0.0182  0.0502 -0.6689
18327TIP3    H176472   2.442   3.367  13.399  0.9894  0.7673 -0.8516
18327TIP3    H276473   2.329   3.461  13.434  0.9429  0.4100 -0.0288
18328TIP3   OH276474   0.821   1.587  17.125  0.2236  0.2376  0.3392
18328TIP3    H176475   0.861   1.585  17.038  0.0998  1.9573  0.1980
18328TIP3    H276476   0.761   1.662  17.122 -0.2351 -0.0360  1.7148
18329TIP3   OH276477   0.523   6.541   2.271  0.0525 -0.1812 -0.2281
18329TIP3    H176478   0.602   6.566   2.222 -0.4087  0.3726 -0.7070
18329TIP3    H276479   0.535   6.448   2.290 -1.0304 -1.2318 -3.9120
18330TIP3   OH276480   6.470   6.045  12.436 -0.1871  0.2378 -0.2963
18330TIP3    H176481   6.383   6.014  12.460 -0.4328  1.2492  0.1816
18330TIP3    H276482   6.463   6.141  12.441  0.5581  0.3824 -1.6456
18331TIP3   OH276483   5.306   6.694  13.607 -0.4209 -1.0042 -0.3327
18331TIP3    H176484   5.265   6.609  13.593 -1.3555 -0.7536  0.7256
18331TIP3    H276485   5.248   6.756  13.564  0.3270 -0.8844 -1.2187
18332TIP3   OH276486   3.958   2.584  17.099  0.3356 -0.5769  0.0703
18332TIP3    H176487   3.923   2.592  17.188  1.2589 -0.1376  0.4002
18332TIP3    H276488   3.906   2.514  17.060 -1.2880  0.4092  0.3562
18333TIP3   OH276489   0.612   6.427   5.017 -0.3896 -0.3737 -0.2247
18333TIP3    H176490   0.683   6.467   5.068 -1.2621 -0.8449  1.4458
18333TIP3    H276491   0.633   6.333   5.018  0.4230 -0.2626 -2.1574
18334TIP3   OH276492   0.488   4.846   4.286 -0.3004 -0.8195  0.2476
18334TIP3    H176493   0.549   4.776   4.308 -0.3792 -0.7166  0.8007
18334TIP3    H276494   0.486   4.847   4.190  1.0097 -0.4411  0.2109
18335TIP3   OH276495   2.630   3.691  10.743 -0.0682  0.3926 -0.3339
18335TIP3    H176496   2.557   3.661  10.798 -0.2846  0.7604 -0.4200
18335TIP3    H276497   2.649   3.616  10.687  0.5396 -0.2042  0.6239
18336TIP3   OH276498   6.393   6.366  15.286 -0.4722  0.3004  0.0873
18336TIP3    H176499   6.407   6.460  15.279 -0.2590  0.1845 -1.1230
18336TIP3    H276500   6.400   6.348  15.380  1.1615  1.2230  0.1750
18337TIP3   OH276501   5.002   0.668  14.596 -0.2652  0.3893  0.1302
18337TIP3    H176502   5.049   0.684  14.678  1.0579 -1.9121 -0.0966
18337TIP3    H276503   4.913   0.648  14.624 -0.7607  2.9581  0.6946
18338TIP3   OH276504   4.056   1.969  12.710 -0.0554  0.1523  0.6322
18338TIP3    H176505   4.047   1.932  12.797  0.3081  0.2784  0.7280
18338TIP3    H276506   4.021   2.058  12.718  0.0929  0.2073  0.6841
18339TIP3   OH276507   6.624   5.235   4.693 -0.1907  0.5195  0.5639
18339TIP3    H176508   6.700   5.180   4.709 -1.5378 -1.3173  0.8893
18339TIP3    H276509   6.615   5.289   4.772  2.2047  2.6422 -0.4827
18340TIP3   OH276510   1.258   1.814  13.297  0.4731 -0.0537  0.3718
18340TIP3    H176511   1.182   1.855  13.339  0.8178  0.2056  0.7444
18340TIP3    H276512   1.266   1.859  13.213 -1.1233 -1.5662 -0.6911
18341TIP3   OH276513   6.066   3.376   4.811  0.0663  0.2516  0.5503
18341TIP3    H176514   6.064   3.467   4.781  2.9393  0.5441  0.8791
18341TIP3    H276515   6.042   3.381   4.904 -2.0814  0.2966  0.0315
18342TIP3   OH276516   3.378   1.097  13.484  0.3186 -0.5834  0.0274
18342TIP3    H176517   3.462   1.057  13.462  1.6173  1.3529  1.0910
18342TIP3    H276518   3.312   1.037  13.450  2.1274 -1.4562 -2.1890
18343TIP3   OH276519   3.140   5.095   5.803 -0.1484  0.0448  0.7311
18343TIP3    H176520   3.145   5.013   5.754  3.1818 -0.0824  1.0101
18343TIP3    H276521   3.087   5.075   5.880 -1.3305 -1.1374 -0.3484
18344TIP3   OH276522   3.154   4.610  14.206 -0.6430  0.4418 -0.0432
18344TIP3    H176523   3.119   4.543  14.148 -2.0773  1.0377  0.1116
18344TIP3    H276524   3.151   4.691  14.155  1.0225  0.4349 -0.2078
18345TIP3   OH276525   1.057   1.677   4.084 -0.2331  0.5035  0.0656
18345TIP3    H176526   0.969   1.648   4.061 -0.7683  1.1514  1.1766
18345TIP3    H276527   1.112   1.647   4.012 -1.0279 -1.6388  0.2829
18346TIP3   OH276528   0.426   0.636  15.592 -0.0187  0.7270  0.2310
18346TIP3    H176529   0.454   0.546  15.574 -0.4595  0.7544 -0.6195
18346TIP3    H276530   0.505   0.679  15.625  1.0291  0.8153 -2.1990
18347TIP3   OH276531   1.400   1.852  16.315  0.2988  0.0912  0.1429
18347TIP3    H176532   1.376   1.915  16.384  2.0779  0.2443  0.6648
18347TIP3    H276533   1.463   1.793  16.357  0.0852 -0.8992 -0.8787
18348TIP3   OH276534   5.853   4.870   1.016 -0.4223 -0.0698  0.3860
18348TIP3    H176535   5.767   4.829   1.021 -0.3771 -0.5841 -2.0217
18348TIP3    H276536   5.893   4.852   1.101 -3.2646  1.6631  2.2647
18349TIP3   OH276537   5.069   1.594  14.305 -0.4345  0.3058 -0.7709
18349TIP3    H176538   5.006   1.603  14.233  1.1100 -2.6980 -2.6913
18349TIP3    H276539   5.018   1.553  14.376 -0.8203 -1.7162 -2.1432
18350TIP3   OH276540   1.185   5.124  10.248  0.0124 -0.1029 -0.6207
18350TIP3    H176541   1.246   5.058  10.279 -0.5380  0.5858  2.1478
18350TIP3    H276542   1.100   5.080  10.247 -0.2908  0.3930  0.8532
18351TIP3   OH276543   5.424   6.799   5.980  0.1515 -0.5298  0.2281
18351TIP3    H176544   5.504   6.845   5.956  0.3626 -2.1109 -2.5458
18351TIP3    H276545   5.454   6.717   6.018 -0.0653 -1.2882 -1.1514
18352TIP3   OH276546   4.163   5.535  13.957  0.5285 -0.3211 -0.3143
18352TIP3    H176547   4.074   5.530  13.922  0.6085  0.6326 -0.6885
18352TIP3    H276548   4.165   5.470  14.026 -1.0725  0.9266  1.0040
18353TIP3   OH276549   3.609   4.326   1.380 -0.0413 -0.2374  0.4346
18353TIP3    H176550   3.547   4.399   1.378  2.1026  1.6903 -0.5038
18353TIP3    H276551   3.649   4.331   1.467 -0.1244 -0.5291  0.4919
18354TIP3   OH276552   0.247   3.842  12.519 -0.0041 -0.5064 -0.0362
18354TIP3    H176553   0.269   3.797  12.437  1.2214 -3.3430  1.7229
18354TIP3    H276554   0.166   3.890  12.498  0.5106 -0.7197 -2.9887
18355TIP3   OH276555   2.083   6.697  10.499  0.2708  0.1456  0.7441
18355TIP3    H176556   2.134   6.769  10.536 -0.9231  1.9827 -0.9764
18355TIP3    H276557   2.015   6.681  10.564 -1.5511  3.0413 -0.2403
18356TIP3   OH276558   6.221   6.474   4.479 -0.0106  0.1569 -0.3639
18356TIP3    H176559   6.157   6.434   4.538 -0.5711  0.8458 -0.4883
18356TIP3    H276560   6.179   6.473   4.393  1.1669 -1.6597 -0.9571
18357TIP3   OH276561   2.554   2.854   0.710 -0.3231 -0.5029  0.0554
18357TIP3    H176562   2.490   2.911   0.668 -0.5677 -0.3803  0.5753
18357TIP3    H276563   2.522   2.845   0.800 -0.3486 -1.5504 -0.0474
18358TIP3   OH276564   2.300   1.200   3.646 -0.4191 -0.0828 -0.5304
18358TIP3    H176565   2.351   1.251   3.708  1.8401 -1.3314 -1.2462
18358TIP3    H276566   2.319   1.109   3.669 -0.9513 -0.5740 -1.9330
18359TIP3   OH276567   1.634   1.838  11.564  0.1967 -0.2686 -0.2964
18359TIP3    H176568   1.601   1.834  11.654 -0.8904  1.1820 -0.5874
18359TIP3    H276569   1.562   1.804  11.511  0.8656 -1.1984 -0.6394
18360TIP3   OH276570   0.249   6.762   0.893 -0.2827 -0.2766 -0.1060
18360TIP3    H176571   0.225   6.704   0.821  1.7737  0.3884 -1.4288
18360TIP3    H276572   0.212   6.721   0.971 -1.9863 -1.4023 -1.4324
18361TIP3   OH276573   3.827   5.868  13.127  0.3431  0.0215 -0.0835
18361TIP3    H176574   3.898   5.882  13.065  0.2351 -1.0795 -0.4800
18361TIP3    H276575   3.761   5.933  13.103  0.8695  0.5041 -0.2375
18362TIP3   OH276576   3.967   6.568   3.184  0.1214  0.5079 -0.0097
18362TIP3    H176577   3.887   6.540   3.228  0.9265 -1.0156  0.5691
18362TIP3    H276578   4.006   6.487   3.151  2.7845  0.7832  2.1086
18363TIP3   OH276579   6.282   5.942   2.634 -0.0099  0.1719  0.3899
18363TIP3    H176580   6.350   5.951   2.567  0.4107 -0.9309  0.6464
18363TIP3    H276581   6.208   5.992   2.600  0.3216 -0.0806 -0.7328
18364TIP3   OH276582   6.045   3.138  16.184  0.4535 -0.2300  0.0004
18364TIP3    H176583   5.987   3.079  16.136 -1.1034  1.6855 -0.6123
18364TIP3    H276584   5.987   3.206  16.219  1.9831  0.2147  1.8484
18365TIP3   OH276585   6.448   3.495  12.581  0.1866  0.4097 -0.1773
18365TIP3    H176586   6.417   3.425  12.524  1.1307 -0.9275  0.8684
18365TIP3    H276587   6.525   3.530  12.537 -0.5022  1.0431 -0.8816
18366TIP3   OH276588   0.144   3.629  14.931  0.1587 -0.0339 -0.0355
18366TIP3    H176589   0.131   3.620  15.025 -0.3447 -0.0578 -0.1051
18366TIP3    H276590   0.224   3.680  14.923 -0.1476  0.5312  0.4153
18367TIP3   OH276591   0.317   5.837  10.856  0.3670 -0.0931  0.8237
18367TIP3    H176592   0.375   5.783  10.802 -0.1532  0.7776 -0.6562
18367TIP3    H276593   0.232   5.832  10.813  0.1414  1.3189  1.0568
18368TIP3   OH276594   2.860   4.899  15.649 -0.6095  0.1538  0.7874
18368TIP3    H176595   2.829   4.828  15.593 -1.0937  1.1987 -0.3131
18368TIP3    H276596   2.942   4.867  15.686 -0.0031 -0.3723 -0.9374
18369TIP3   OH276597   5.751   3.763  11.775  0.0836  0.6006  0.3348
18369TIP3    H176598   5.717   3.773  11.686 -2.1107  1.9237  1.2204
18369TIP3    H276599   5.685   3.805  11.830  0.9741 -0.8844  2.6788
18370TIP3   OH276600   5.234   0.112  11.999  0.0215  0.0471  0.2506
18370TIP3    H176601   5.160   0.057  12.026  0.3204 -0.7323 -0.4809
18370TIP3    H276602   5.193   0.182  11.948 -0.2883  0.0665  0.5199
18371TIP3   OH276603   4.396   5.989   0.833 -0.3809  0.3129 -0.2939
18371TIP3    H176604   4.490   6.000   0.823 -0.5237  2.8214  0.5253
18371TIP3    H276605   4.387   5.901   0.872  1.7585  0.6688  1.2014
18372TIP3   OH276606   2.090   0.978   5.623 -0.1167 -0.8827  0.3608
18372TIP3    H176607   2.154   1.000   5.690 -1.4495  2.8125  0.6697
18372TIP3    H276608   2.125   1.016   5.543 -1.4006  0.3578  0.3459
18373TIP3   OH276609   2.700   6.343   0.829 -0.4838 -0.0747  0.1446
18373TIP3    H176610   2.778   6.397   0.844  0.6118 -1.6961  0.4963
18373TIP3    H276611   2.725   6.284   0.759 -1.3856 -0.6546  0.3003
18374TIP3   OH276612   4.131   3.912   5.468  0.1839 -0.1792  0.8476
18374TIP3    H176613   4.112   3.865   5.550  0.4418  0.4682  1.2878
18374TIP3    H276614   4.123   3.845   5.400 -4.2014  0.0484  0.8470
18375TIP3   OH276615   1.738   6.051  12.299  0.0421 -0.4528  0.2579
18375TIP3    H176616   1.692   5.981  12.250  0.5433 -0.5473 -0.0848
18375TIP3    H276617   1.775   6.107  12.231 -0.6043  0.3268  0.5281
18376TIP3   OH276618   2.891   5.873   1.131 -0.6254  0.1276 -0.1610
18376TIP3    H176619   2.910   5.955   1.177  0.3594  0.2732 -0.7719
18376TIP3    H276620   2.839   5.822   1.192 -1.0545  1.1101  0.3280
18377TIP3   OH276621   1.770   6.035   6.163  0.0415 -0.0894 -0.6452
18377TIP3    H176622   1.737   6.108   6.214 -1.0765  1.6238 -3.5549
18377TIP3    H276623   1.865   6.039   6.172 -0.1212  0.0006  1.3606
18378TIP3   OH276624   1.137   4.107   1.958  0.1220  0.5786  0.1261
18378TIP3    H176625   1.087   4.188   1.962  1.1151  1.1837  0.3598
18378TIP3    H276626   1.177   4.108   1.871 -0.2891  0.0779 -0.0738
18379TIP3   OH276627   2.889   0.079   0.066 -0.2821 -0.0168 -0.3357
18379TIP3    H176628   2.893   0.079   0.162 -2.2652  0.2776 -0.2193
18379TIP3    H276629   2.913   0.169   0.042  1.3203 -0.3831 -0.2102
18380TIP3   OH276630   1.250   0.533   4.303 -0.1811 -0.2776 -0.1279
18380TIP3    H176631   1.331   0.545   4.352  0.3882  0.9864 -1.3150
18380TIP3    H276632   1.204   0.616   4.310 -0.6931 -0.5049 -0.6480
18381TIP3   OH276633   3.547   6.656  16.990 -0.4018 -0.0732  0.3707
18381TIP3    H176634   3.517   6.612  17.069  0.5360 -0.6160  0.4292
18381TIP3    H276635   3.607   6.594  16.948 -1.2495 -0.0035 -1.0312
18382TIP3   OH276636   5.543   2.345  11.221  0.5378 -0.6636  0.4935
18382TIP3    H176637   5.600   2.313  11.150 -1.3455 -0.1123 -1.3895
18382TIP3    H276638   5.521   2.266  11.271  1.6195 -1.1296  0.2609
18383TIP3   OH276639   1.674   3.547  15.066 -0.1943 -0.2490 -0.5221
18383TIP3    H176640   1.629   3.472  15.102 -1.7606  0.1226 -1.5932
18383TIP3    H276641   1.622   3.622  15.094 -1.2483  0.0772 -3.0888
18384TIP3   OH276642   5.265   3.597  12.865  0.1767  0.1807  0.1357
18384TIP3    H176643   5.182   3.609  12.910 -0.1238 -1.0474 -0.0532
18384TIP3    H276644   5.241   3.554  12.783  1.1018 -1.1636  0.5522
18385TIP3   OH276645   1.888   5.427  13.821 -0.1519 -0.4229 -0.5226
18385TIP3    H176646   1.823   5.419  13.751 -1.3369  2.8839  0.0387
18385TIP3    H276647   1.950   5.492  13.788 -0.2306  0.5199  1.1084
18386TIP3   OH276648   2.486   1.811   4.247 -0.1609 -0.6544 -0.0475
18386TIP3    H176649   2.495   1.891   4.300  0.6440 -0.4196 -0.5199
18386TIP3    H276650   2.571   1.768   4.254  0.2863 -0.1576 -1.8609
18387TIP3   OH276651   4.122   1.287  12.938  0.0021 -0.1915  0.2114
18387TIP3    H176652   4.124   1.375  12.975 -1.1906  0.1306 -0.4569
18387TIP3    H276653   4.074   1.235  13.002 -0.5124 -0.0355 -0.0445
18388TIP3   OH276654   3.632   5.673  12.867  0.3316  0.1295 -0.1388
18388TIP3    H176655   3.652   5.766  12.859  0.8636  0.1280  1.0451
18388TIP3    H276656   3.683   5.632  12.797  0.4964  0.6606 -0.3373
18389TIP3   OH276657   2.120   5.084  13.578 -0.3254  0.1373  0.0015
18389TIP3    H176658   2.137   5.099  13.485 -1.3215 -1.1866 -0.4296
18389TIP3    H276659   2.045   5.024  13.579 -1.9679  2.1002  1.7293
18390TIP3   OH276660   5.404   4.105   0.915  0.2120  0.0647  0.2625
18390TIP3    H176661   5.471   4.166   0.946 -1.2513  1.7032  0.3661
18390TIP3    H276662   5.453   4.026   0.892  2.2308  1.3111 -0.0396
18391TIP3   OH276663   3.161   2.620  12.439 -0.1600 -0.2075 -0.2110
18391TIP3    H176664   3.220   2.685  12.401 -0.7211 -0.3962 -1.4656
18391TIP3    H276665   3.104   2.670  12.498 -0.7490  0.5064 -1.3490
18392TIP3   OH276666   1.461   5.401  16.422 -0.2037 -0.3415 -0.7850
18392TIP3    H176667   1.495   5.419  16.509  0.2381  1.1512 -1.2314
18392TIP3    H276668   1.492   5.313  16.402 -0.1248 -0.6112  0.4671
18393TIP3   OH276669   0.127   4.355   5.786  0.2201  0.1297  1.1427
18393TIP3    H176670   0.042   4.357   5.831 -0.6220  1.3901 -0.4043
18393TIP3    H276671   0.116   4.287   5.719  1.1026 -0.9940  2.0888
18394TIP3   OH276672   3.499   0.289   0.070  0.3533  0.2513 -0.1148
18394TIP3    H176673   3.530   0.277   0.160  0.5129 -2.9470 -0.4907
18394TIP3    H276674   3.569   0.338   0.027 -0.1514  2.6862  1.6478
18395TIP3   OH276675   3.952   6.768  13.981  0.3286 -0.1307  0.3501
18395TIP3    H176676   4.011   6.804  13.915 -0.4928 -1.6435 -1.2891
18395TIP3    H276677   3.964   6.673  13.975 -0.8514 -0.3671  1.3462
18396TIP3   OH276678   4.926   6.711   1.321 -0.1674  0.3727  0.3091
18396TIP3    H176679   5.009   6.757   1.330  0.4352 -0.5252 -0.4801
18396TIP3    H276680   4.913   6.701   1.227 -1.8118  1.6026  0.3599
18397TIP3   OH276681   3.657   2.460  10.291  0.4287  0.0496  0.3629
18397TIP3    H176682   3.643   2.530  10.355 -1.3113  1.3488 -1.3335
18397TIP3    H276683   3.733   2.489  10.240 -0.1934  0.6338 -0.2370
18398TIP3   OH276684   0.543   6.284  15.036 -0.1560 -0.4225  0.2802
18398TIP3    H176685   0.452   6.256  15.038  0.0285 -1.0510 -0.1782
18398TIP3    H276686   0.539   6.380  15.030 -0.7801 -0.4480  0.3169
18399TIP3   OH276687   0.109   1.213   5.595  0.0590  0.6545 -0.6020
18399TIP3    H176688   0.142   1.144   5.652  3.5347  2.7882  0.2522
18399TIP3    H276689   0.013   1.205   5.600  0.2669 -3.6758 -0.2031
18400TIP3   OH276690   0.464   1.894   5.132 -0.1281  0.4680 -0.0875
18400TIP3    H176691   0.504   1.969   5.088 -0.2012  1.9162  2.1692
18400TIP3    H276692   0.373   1.921   5.146  0.0341  0.3110  1.4060
18401TIP3   OH276693   4.917   5.586  11.739  0.1622 -0.3682  0.1182
18401TIP3    H176694   4.862   5.656  11.774  1.2144  0.1968  0.6881
18401TIP3    H276695   4.954   5.543  11.816 -0.0727 -1.2342 -0.2396
18402TIP3   OH276696   5.619   0.130   2.833  0.1511  0.7990  0.3382
18402TIP3    H176697   5.671   0.095   2.906  1.2368  2.2242  0.3012
18402TIP3    H276698   5.669   0.107   2.755 -1.0902 -0.8592 -0.0194
18403TIP3   OH276699   0.604   2.630  15.895  0.1805  0.1038 -0.1009
18403TIP3    H176700   0.529   2.581  15.860  1.2732 -0.3724 -1.9358
18403TIP3    H276701   0.679   2.572  15.880  1.0329  0.8507  1.0769
18404TIP3   OH276702   2.147   0.951   5.068  0.1745 -0.0720  0.0461
18404TIP3    H176703   2.117   0.936   4.978  0.6177  0.4929 -0.2027
18404TIP3    H276704   2.084   1.014   5.104  0.0499 -0.2280  0.1006
18405TIP3   OH276705   0.361   5.390   6.557 -0.1791 -0.1567 -0.1037
18405TIP3    H176706   0.270   5.419   6.560 -1.3815 -3.2659 -1.6456
18405TIP3    H276707   0.399   5.439   6.485  0.5037  3.5598  2.4913
18406TIP3   OH276708   4.110   0.512  15.991 -0.0366  0.1013 -0.1187
18406TIP3    H176709   4.193   0.516  15.944  0.1735  1.0974  0.3213
18406TIP3    H276710   4.132   0.475  16.076  0.5389  2.9975  1.1236
18407TIP3   OH276711   3.766   0.624  11.466 -0.0734  0.4504  0.3698
18407TIP3    H176712   3.822   0.658  11.536 -1.3652  1.6437  0.8787
18407TIP3    H276713   3.783   0.682  11.392 -1.7439  1.8424  1.0140
18408TIP3   OH276714   4.606   0.376  14.913 -0.1227 -0.3865  0.0979
18408TIP3    H176715   4.566   0.324  14.844  0.2421 -1.0416  0.3705
18408TIP3    H276716   4.684   0.327  14.938  0.8685  0.8843 -0.4382
18409TIP3   OH276717   4.952   5.134   4.305 -0.1588 -0.2922  0.3311
18409TIP3    H176718   4.900   5.063   4.343  0.5919 -0.3241  1.3336
18409TIP3    H276719   5.023   5.091   4.258 -1.2413 -0.2621 -1.4250
18410TIP3   OH276720   5.315   0.672  15.557  0.0058 -0.0155  0.1406
18410TIP3    H176721   5.386   0.682  15.621  1.5110 -2.4616 -0.9766
18410TIP3    H276722   5.268   0.756  15.559  2.7273  1.6163  1.1724
18411TIP3   OH276723   1.343   4.057   1.190 -0.4920  0.8043  0.0686
18411TIP3    H176724   1.304   4.141   1.169 -0.0978  0.4308 -2.5012
18411TIP3    H276725   1.388   4.030   1.110  1.2666 -0.8480  1.4861
18412TIP3   OH276726   3.823   2.106  12.193  0.3976 -0.3032  0.6899
18412TIP3    H176727   3.841   2.041  12.262 -0.3198  0.4599  1.6118
18412TIP3    H276728   3.909   2.141  12.170  0.6713 -0.7757  0.9886
18413TIP3   OH276729   5.227   0.493  16.228  0.3489 -0.4378 -0.0066
18413TIP3    H176730   5.247   0.405  16.196  1.0123 -0.0812 -0.6093
18413TIP3    H276731   5.281   0.504  16.306 -0.2920 -0.8295  0.5015
18414TIP3   OH276732   6.808   5.886   2.941 -0.5203 -0.0951 -0.0263
18414TIP3    H176733   6.807   5.797   2.976  0.1238  0.0123  0.2709
18414TIP3    H276734   6.867   5.934   2.999 -2.0506  0.9225  0.7739
18415TIP3   OH276735   1.221   5.062   3.598 -0.3305  0.0556 -0.2233
18415TIP3    H176736   1.153   5.130   3.607  0.7016  1.0072  0.7711
18415TIP3    H276737   1.264   5.082   3.515  0.0318  0.6995  0.1099
18416TIP3   OH276738   4.098   4.587   6.053 -0.3169 -0.0797  0.6054
18416TIP3    H176739   4.185   4.549   6.050 -0.1189  0.3767  0.5215
18416TIP3    H276740   4.099   4.644   6.130 -0.4093  0.2370  0.3739
18417TIP3   OH276741   5.084   0.845   2.676  0.2149 -0.1174  0.3645
18417TIP3    H176742   5.138   0.767   2.664  0.2286 -0.3515  1.7765
18417TIP3    H276743   4.996   0.812   2.691 -0.0877  0.2148 -0.6312
18418TIP3   OH276744   1.995   5.648   6.536  0.1304  0.0440  0.0703
18418TIP3    H176745   2.057   5.598   6.588 -0.0501 -0.0952  0.1548
18418TIP3    H276746   2.047   5.716   6.493  0.5205 -0.7573 -0.7468
18419TIP3   OH276747   5.673   3.839  12.249 -0.0060  0.1831 -0.2258
18419TIP3    H176748   5.695   3.899  12.177 -0.2615  0.4001 -0.1230
18419TIP3    H276749   5.709   3.880  12.327 -0.5802  0.4363 -0.0866
18420TIP3   OH276750   5.861   0.313  14.436 -0.0609 -0.0993  0.0156
18420TIP3    H176751   5.939   0.285  14.483 -0.2349 -0.5125  0.0649
18420TIP3    H276752   5.800   0.340  14.504 -0.2949 -0.6513  0.0386
18421TIP3   OH276753   6.825   3.033  10.732 -0.1831 -0.1164 -0.1788
18421TIP3    H176754   6.750   3.018  10.676 -0.5456  1.1325 -0.0569
18421TIP3    H276755   6.789   3.037  10.821  0.3134 -1.5306  0.1175
18422TIP3   OH276756   2.290   4.456  12.359  0.2062  0.3860 -0.4255
18422TIP3    H176757   2.203   4.488  12.384  0.4211  0.1637  0.6403
18422TIP3    H276758   2.314   4.394  12.428  0.7103 -0.4663 -1.3408
18423TIP3   OH276759   5.512   0.880   4.857  0.6837  0.2946  0.0695
18423TIP3    H176760   5.546   0.791   4.864  2.1425  0.8103  0.0176
18423TIP3    H276761   5.463   0.893   4.938 -0.7912 -1.0231 -0.5674
18424TIP3   OH276762   6.398   5.436   1.007 -0.4895  0.3160 -0.2400
18424TIP3    H176763   6.483   5.458   0.968 -0.6630 -1.5831 -1.8251
18424TIP3    H276764   6.420   5.377   1.080 -0.3520  1.6901  0.8842
18425TIP3   OH276765   3.226   0.035   0.230 -0.3117  0.4043  0.0841
18425TIP3    H176766   3.307   0.082   0.250  0.3316 -0.6833  0.1097
18425TIP3    H276767   3.231  -0.045   0.282 -0.8215 -0.2615 -0.8646
18426TIP3   OH276768   4.510   1.691   0.245 -0.1440  0.3347 -0.1216
18426TIP3    H176769   4.515   1.606   0.288 -0.1407  0.9155  1.0843
18426TIP3    H276770   4.454   1.676   0.169  0.2869 -0.8519 -0.2228
18427TIP3   OH276771   2.175   5.532   0.494  0.3685  0.3490 -0.0708
18427TIP3    H176772   2.203   5.441   0.493 -0.9325 -0.0782 -0.0382
18427TIP3    H276773   2.110   5.538   0.424 -0.3159  0.9794  0.5922
18428TIP3   OH276774   5.291   4.488   1.126  0.8857  0.6457 -0.1938
18428TIP3    H176775   5.254   4.434   1.056  0.6651  0.6050 -0.0466
18428TIP3    H276776   5.316   4.570   1.083  0.3107  0.8040 -0.2339
18429TIP3   OH276777   4.636   3.133   2.136 -0.8261 -0.1650  0.2796
18429TIP3    H176778   4.695   3.061   2.159 -1.9714 -0.4852  2.5605
18429TIP3    H276779   4.655   3.202   2.200 -0.6544  1.0528 -1.0508
18430TIP3   OH276780   1.770   1.917   3.399 -0.4410  0.6317  0.1216
18430TIP3    H176781   1.795   2.007   3.418 -2.1354  0.9627  1.0361
18430TIP3    H276782   1.681   1.924   3.364 -0.5249 -0.6658  0.0253
18431TIP3   OH276783   5.391   5.650   0.036 -0.5890 -0.2029 -0.0951
18431TIP3    H176784   5.425   5.560   0.034 -2.5384 -0.9844 -0.7679
18431TIP3    H276785   5.303   5.643  -0.002 -1.0833  1.8750  0.5433
18432TIP3   OH276786   4.010   2.302   1.465  0.6837 -0.3457 -0.4818
18432TIP3    H176787   4.093   2.335   1.497  1.0353 -0.1999 -1.5032
18432TIP3    H276788   3.960   2.380   1.442  0.7835 -0.4517 -1.1018
18433TIP3   OH276789   0.705   2.491  16.573  0.6522 -0.7047  0.1923
18433TIP3    H176790   0.762   2.563  16.598 -0.7143  0.9798 -1.2885
18433TIP3    H276791   0.732   2.468  16.484 -1.9096  1.3132 -1.2710
18434TIP3   OH276792   4.795   1.051   6.140  0.3809  0.1309 -0.3031
18434TIP3    H176793   4.871   1.004   6.106  2.0865  0.1820  3.0002
18434TIP3    H276794   4.823   1.142   6.144  0.3140  0.1109  1.1839
18435TIP3   OH276795   1.912   5.830  16.829  0.4496 -0.3784  0.4821
18435TIP3    H176796   1.908   5.832  16.734  0.7826  0.6524  0.4712
18435TIP3    H276797   2.004   5.850  16.850  0.5167 -1.2041  1.0093
18436TIP3   OH276798   2.070   1.006   3.124 -0.3322 -0.1804  0.0991
18436TIP3    H176799   2.114   1.086   3.154 -2.7392  0.6408  1.7113
18436TIP3    H276800   2.085   0.943   3.195  0.4617 -0.7815 -0.5819
18437TIP3   OH276801   3.182   3.821  11.286  0.5512  0.1295  0.4957
18437TIP3    H176802   3.121   3.751  11.260 -0.4474  1.0476  0.2930
18437TIP3    H276803   3.210   3.796  11.374 -0.5676 -0.0231  0.8216
18438TIP3   OH276804   1.990   6.218  13.573  0.1198 -0.5456 -0.3631
18438TIP3    H176805   1.969   6.225  13.480 -0.1226 -0.4648 -0.3000
18438TIP3    H276806   1.988   6.308  13.606 -0.6298 -0.6582 -0.0929
18439TIP3   OH276807   2.395   0.608  14.758 -0.0157 -0.1574  0.2801
18439TIP3    H176808   2.394   0.701  14.776 -2.8163 -0.0444 -0.1185
18439TIP3    H276809   2.401   0.566  14.844  0.8427  0.3432  0.4799
18440TIP3   OH276810   0.842   4.958  14.474 -0.0769  0.6624  0.6037
18440TIP3    H176811   0.881   4.872  14.481 -0.4694  0.3522 -0.7383
18440TIP3    H276812   0.748   4.942  14.468 -0.2226  1.2403  1.1193
18441TIP3   OH276813   6.509   4.640   5.131  0.0733 -0.1715 -0.1566
18441TIP3    H176814   6.425   4.659   5.173  0.6583  1.9068  0.1747
18441TIP3    H276815   6.485   4.590   5.053 -1.1246 -3.0999  1.8994
18442TIP3   OH276816   0.664   0.950  11.194 -0.0287 -0.1213  0.3551
18442TIP3    H176817   0.612   0.913  11.122  0.7767 -2.0751  0.7199
18442TIP3    H276818   0.606   1.014  11.236 -1.8671 -1.6664  0.2695
18443TIP3   OH276819   3.559   3.517  14.585  0.3517 -0.4507  0.4327
18443TIP3    H176820   3.552   3.488  14.676  0.5302 -1.2839  0.1906
18443TIP3    H276821   3.524   3.443  14.535  0.6716 -0.1750 -0.1948
18444TIP3   OH276822   2.800   1.666  11.519  0.1408  0.4802 -0.1698
18444TIP3    H176823   2.838   1.656  11.607 -0.1413 -1.2828 -0.2218
18444TIP3    H276824   2.876   1.672  11.461  0.3299  1.6719  0.1589
18445TIP3   OH276825   3.263   4.297   3.246 -0.4024  0.2071  0.0347
18445TIP3    H176826   3.223   4.279   3.331 -0.8446  0.3300 -0.1453
18445TIP3    H276827   3.197   4.273   3.182  0.1946 -0.5747 -0.3073
18446TIP3   OH276828   2.754   6.313   3.848 -0.8400  0.1575 -0.5824
18446TIP3    H176829   2.789   6.242   3.902 -0.8356  0.6483  0.0695
18446TIP3    H276830   2.813   6.317   3.773  0.8101  1.2797  0.7243
18447TIP3   OH276831   6.452   6.644  13.639 -0.0691  0.5078 -0.3731
18447TIP3    H176832   6.501   6.660  13.558  1.5653 -0.4550  0.3616
18447TIP3    H276833   6.476   6.554  13.664 -2.0533  0.0839  0.1816
18448TIP3   OH276834   6.791   3.313   2.713 -0.2785  0.6038  0.2279
18448TIP3    H176835   6.879   3.276   2.713 -0.6189 -0.2767  1.4934
18448TIP3    H276836   6.786   3.364   2.794 -1.1373  0.1051  0.5025
18449TIP3   OH276837   0.294   2.656  11.282  0.9382 -0.1562  0.0393
18449TIP3    H176838   0.312   2.570  11.321 -0.5683 -1.0033 -1.0127
18449TIP3    H276839   0.227   2.638  11.216  0.6448  1.8334 -0.2530
18450TIP3   OH276840   1.371   3.472   4.952 -0.1475  0.6753 -0.6700
18450TIP3    H176841   1.368   3.543   5.017 -0.0337  0.0036  0.0878
18450TIP3    H276842   1.294   3.486   4.897 -0.6005  0.8937  0.0059
18451TIP3   OH276843   5.530   6.561   6.104  0.1425  0.0930 -0.7431
18451TIP3    H176844   5.530   6.492   6.170 -1.8671 -0.2309 -1.0229
18451TIP3    H276845   5.606   6.543   6.049  1.7913  0.2971  1.3656
18452TIP3   OH276846   1.776   6.247   1.601  0.3374  0.8743 -0.3034
18452TIP3    H176847   1.763   6.162   1.644  0.2767  0.5181 -1.0104
18452TIP3    H276848   1.855   6.283   1.642  0.3713  0.4725 -0.0079
18453TIP3   OH276849   4.611   5.711   3.279 -0.0319 -0.5600 -0.5437
18453TIP3    H176850   4.521   5.680   3.293  0.2463 -1.6412 -1.0775
18453TIP3    H276851   4.666   5.636   3.302  0.7486  0.1239 -0.1389
18454TIP3   OH276852   6.208   6.118   0.457 -0.7270  0.0994  0.4460
18454TIP3    H176853   6.165   6.053   0.512  0.4876  0.5638  2.0432
18454TIP3    H276854   6.181   6.202   0.494  1.3911  0.4056  1.4760
18455TIP3   OH276855   1.108   6.198   1.726  0.3687  0.2645 -0.3907
18455TIP3    H176856   1.077   6.281   1.761  1.2964 -0.1473  1.5419
18455TIP3    H276857   1.029   6.144   1.719  0.0482  0.6245  0.3502
18456TIP3   OH276858   6.784   3.317   0.602  0.0077  0.9181 -0.3826
18456TIP3    H176859   6.822   3.262   0.670 -1.7701  1.8188  1.4551
18456TIP3    H276860   6.710   3.266   0.568  0.3365  0.8515 -1.0167
18457TIP3   OH276861   6.444   1.080  14.313 -0.3011  0.3215  0.1856
18457TIP3    H176862   6.511   1.116  14.255 -1.1774 -0.2178 -1.2261
18457TIP3    H276863   6.434   0.989  14.283 -0.8506  0.0616  1.1295
18458TIP3   OH276864   3.715   3.633   0.756 -0.0131  0.5210  0.8654
18458TIP3    H176865   3.749   3.717   0.787 -1.8449  1.9922 -0.8120
18458TIP3    H276866   3.631   3.624   0.800 -1.7172  1.6693 -1.9069
18459TIP3   OH276867   5.831   4.918   4.504  0.7546  0.1451  0.1796
18459TIP3    H176868   5.885   4.857   4.453  0.8925 -0.4301  0.9926
18459TIP3    H276869   5.754   4.867   4.528  1.0285  0.1752  1.1606
18460TIP3   OH276870   0.248   0.036   4.075  0.5680  0.0048  0.2603
18460TIP3    H176871   0.245   0.122   4.116 -1.3786  0.2280 -0.2235
18460TIP3    H276872   0.314  -0.012   4.124  0.8846  1.4028  1.2709
18461TIP3   OH276873   0.992   5.011   5.705 -0.7918  0.1188  0.2344
18461TIP3    H176874   1.023   4.962   5.629  0.7847 -0.3292  1.1196
18461TIP3    H276875   0.959   4.944   5.765  0.5731  0.1493  1.0859
18462TIP3   OH276876   1.314   6.294  15.934  0.1648  1.0240 -0.6730
18462TIP3    H176877   1.363   6.367  15.895  0.7343  0.8616 -0.2690
18462TIP3    H276878   1.222   6.320  15.925  0.3946  2.7851  1.2917
18463TIP3   OH276879   3.270   6.102  14.918 -0.4220  0.2090  0.3354
18463TIP3    H176880   3.226   6.036  14.863 -1.5809 -0.1631  1.6659
18463TIP3    H276881   3.352   6.121  14.871 -1.6518  0.3950 -1.8480
18464TIP3   OH276882   6.790   0.419   4.362  0.1352 -0.0015 -0.3603
18464TIP3    H176883   6.727   0.359   4.321  0.6792 -0.7225 -0.1630
18464TIP3    H276884   6.758   0.429   4.451  1.0961 -1.5831  0.2097
18465TIP3   OH276885   4.106   5.104  11.045  0.0781  0.1847  0.3491
18465TIP3    H176886   4.054   5.077  10.970 -1.8196  2.7575  0.6308
18465TIP3    H276887   4.048   5.094  11.121  0.4723  1.6005  0.8844
18466TIP3   OH276888   1.545   1.048  16.011 -0.4630 -0.5854 -0.3602
18466TIP3    H176889   1.455   1.081  16.013 -0.2005  0.0968  0.7872
18466TIP3    H276890   1.559   1.025  15.919 -1.0549  1.4211 -1.0077
18467TIP3   OH276891   1.777   5.123  14.023  0.7189 -0.3066 -0.2308
18467TIP3    H176892   1.858   5.134  13.974  1.6380 -0.8369  1.0899
18467TIP3    H276893   1.722   5.068  13.967  1.2524  0.0823 -1.1538
18468TIP3   OH276894   4.336   5.234   3.158  0.4759 -0.3537  0.3626
18468TIP3    H176895   4.304   5.149   3.128  1.2575 -0.8083  0.7788
18468TIP3    H276896   4.258   5.280   3.188 -0.0496 -0.6376 -0.5626
18469TIP3   OH276897   5.844   0.493   3.187 -0.6103  0.5011 -0.0018
18469TIP3    H176898   5.896   0.419   3.156  0.3526  0.3511  1.8165
18469TIP3    H276899   5.822   0.471   3.278 -0.6741  2.2368  0.4486
18470TIP3   OH276900   5.275   6.481   3.408  0.5291 -0.6793  0.1042
18470TIP3    H176901   5.267   6.386   3.394  0.0140 -0.5085 -0.8596
18470TIP3    H276902   5.344   6.508   3.347 -1.3107 -0.0128 -1.8030
18471TIP3   OH276903   5.049   2.531   0.343 -0.3899 -0.3810 -0.3769
18471TIP3    H176904   5.144   2.531   0.359 -0.4250  1.0499  0.0179
18471TIP3    H276905   5.011   2.551   0.428 -1.2090 -2.9780 -0.0460
18472TIP3   OH276906   4.312   2.111   0.725 -0.0917 -0.3078 -0.3246
18472TIP3    H176907   4.352   2.196   0.743  0.6259 -0.3050 -1.7406
18472TIP3    H276908   4.332   2.058   0.802  1.9180 -0.0291 -0.5910
18473TIP3   OH276909   0.204   5.566  14.156  0.2972 -1.0563 -0.9435
18473TIP3    H176910   0.130   5.599  14.105 -0.2392 -2.3917 -1.0702
18473TIP3    H276911   0.277   5.624  14.133 -0.5414 -0.1093 -1.3059
18474TIP3   OH276912   0.755   3.596  15.257  0.1210 -0.7888  0.7091
18474TIP3    H176913   0.755   3.602  15.352  1.2616  0.7573  0.6457
18474TIP3    H276914   0.848   3.595  15.233 -0.1446 -0.3935 -0.4155
18475TIP3   OH276915   2.792   3.867   3.576  0.3715 -0.1937 -0.3555
18475TIP3    H176916   2.810   3.885   3.668  0.3761 -1.0782 -0.1799
18475TIP3    H276917   2.702   3.837   3.574 -0.2992  1.6699 -0.9034
18476TIP3   OH276918   3.899   5.565  16.356 -0.2451 -0.2753 -0.3491
18476TIP3    H176919   3.916   5.641  16.300  1.3013 -1.0407 -0.9933
18476TIP3    H276920   3.805   5.549  16.348 -0.6698  1.7965  0.1265
18477TIP3   OH276921   1.435   0.344  16.600 -0.4759 -0.3886 -0.5089
18477TIP3    H176922   1.414   0.298  16.681  0.6973  0.3003  0.2208
18477TIP3    H276923   1.483   0.280  16.547  2.0991  0.1869  0.9366
18478TIP3   OH276924   5.985   5.919   3.315 -0.0192  0.1689 -0.6420
18478TIP3    H176925   6.065   5.927   3.367 -1.2578  0.4402  1.3229
18478TIP3    H276926   5.960   6.009   3.295 -0.1377  0.1146 -0.7391
18479TIP3   OH276927   5.555   4.963  11.191 -0.5129 -0.1698 -0.1308
18479TIP3    H176928   5.462   4.984  11.198 -0.6024 -0.0612 -1.4839
18479TIP3    H276929   5.578   4.931  11.278 -2.2748 -1.9909 -0.2597
18480TIP3   OH276930   5.581   6.031   3.670 -0.9966 -0.2415 -0.5047
18480TIP3    H176931   5.539   6.017   3.755  0.2954 -1.2458  0.0092
18480TIP3    H276932   5.541   5.966   3.612 -0.2053 -1.1905 -0.0206
18481TIP3   OH276933   0.686   5.283   3.861  0.4015 -0.3462 -0.1874
18481TIP3    H176934   0.641   5.363   3.887 -0.4209 -0.8792  0.0821
18481TIP3    H276935   0.689   5.286   3.765 -1.4205 -0.9124 -0.2938
18482TIP3   OH276936   5.043   6.695   2.115  0.3228 -0.8701 -0.6459
18482TIP3    H176937   5.077   6.642   2.043  0.9276 -1.7506  0.2736
18482TIP3    H276938   5.116   6.705   2.175 -0.0412  0.2581 -0.3598
18483TIP3   OH276939   4.259   1.687  12.314 -0.2971 -0.0175  0.2204
18483TIP3    H176940   4.307   1.723  12.388 -1.1869 -1.4554  1.5680
18483TIP3    H276941   4.293   1.597  12.305 -0.9858 -0.2308 -0.3967
18484TIP3   OH276942   5.372   3.356   2.972 -0.1669 -0.0729  0.2908
18484TIP3    H176943   5.306   3.374   2.905  0.3085  0.8678  0.0585
18484TIP3    H276944   5.320   3.331   3.049 -0.7206 -1.0183 -0.3583
18485TIP3   OH276945   6.029   3.275  17.125  0.4938 -0.5975 -0.7896
18485TIP3    H176946   6.028   3.258  17.219  1.8174  0.5469 -0.5432
18485TIP3    H276947   5.937   3.292  17.103  0.2615 -0.2164  0.4236
18486TIP3   OH276948   6.684   0.427  12.806 -0.2513  0.4568 -0.2107
18486TIP3    H176949   6.765   0.395  12.847  1.0699 -0.3836 -3.1721
18486TIP3    H276950   6.643   0.348  12.771 -0.6276  1.2236 -1.5536
18487TIP3   OH276951   3.960   2.304  11.066  0.0816 -0.1066  0.3883
18487TIP3    H176952   3.975   2.354  10.986  1.1138 -1.3136 -0.2126
18487TIP3    H276953   3.905   2.361  11.120  0.4055  1.2525 -0.6535
18488TIP3   OH276954   3.225   3.262  13.717 -0.1509 -0.5604 -0.1068
18488TIP3    H176955   3.273   3.229  13.793 -1.5308 -0.1446  0.9779
18488TIP3    H276956   3.193   3.184  13.672 -0.6878 -0.7802  0.6506
18489TIP3   OH276957   2.830   5.576  15.578 -0.0718  0.4128  0.4953
18489TIP3    H176958   2.850   5.632  15.502  0.6055  0.6337  0.8243
18489TIP3    H276959   2.805   5.492  15.540  0.0494  0.5884  0.0146
18490TIP3   OH276960   6.582   6.661  11.187  0.2493  0.1910 -0.4541
18490TIP3    H176961   6.531   6.684  11.109 -0.9876 -0.5927  0.1031
18490TIP3    H276962   6.650   6.602  11.154 -0.2125 -0.0643 -0.9748
18491TIP3   OH276963   5.941   0.733   4.227 -0.3079 -0.2509 -0.2103
18491TIP3    H176964   5.933   0.762   4.136  0.7485 -1.3913 -0.6991
18491TIP3    H276965   6.018   0.779   4.260 -1.3782  1.0905  0.5232
18492TIP3   OH276966   4.661   0.706  11.045  0.2951  0.3090  0.3161
18492TIP3    H176967   4.672   0.790  11.001  1.3307  0.8080  1.4724
18492TIP3    H276968   4.642   0.729  11.136  0.9358 -0.7030  0.7178
18493TIP3   OH276969   5.912   0.939  16.733  0.5156  0.1989  0.4045
18493TIP3    H176970   6.006   0.938  16.754  0.7497  0.8146 -0.5541
18493TIP3    H276971   5.907   0.983  16.648 -0.6077 -0.2478  0.2276
18494TIP3   OH276972   3.845   6.037  11.895  0.1788  0.0215 -0.2210
18494TIP3    H176973   3.907   6.019  11.825  0.9118 -2.1498  0.8884
18494TIP3    H276974   3.777   5.970  11.884  0.5965 -0.7309  1.4212
18495TIP3   OH276975   2.880   4.862  13.944 -0.2791  0.0332 -0.2239
18495TIP3    H176976   2.847   4.798  14.006  1.9817  0.4831  1.5733
18495TIP3    H276977   2.884   4.815  13.860 -0.0036 -1.7320  0.7396
18496TIP3   OH276978   5.051   4.125  11.903 -0.2255  0.3446 -0.6241
18496TIP3    H176979   5.027   4.150  11.814  0.8021  0.2125 -0.9572
18496TIP3    H276980   5.001   4.184  11.959  1.3505  2.5487 -1.3716
18497TIP3   OH276981   4.904   5.457   3.140 -1.1339  0.3430 -0.0436
18497TIP3    H176982   4.850   5.491   3.211 -0.8617  1.8644 -0.5313
18497TIP3    H276983   4.841   5.418   3.079 -1.3647 -1.0286  1.0180
18498TIP3   OH276984   1.417   0.669   4.488 -0.3012  0.1119 -0.6512
18498TIP3    H176985   1.501   0.710   4.506 -0.0697  0.0141 -1.4651
18498TIP3    H276986   1.351   0.733   4.515 -0.0044 -0.2076  0.9592
18499TIP3   OH276987   3.378   2.070   0.622  0.3667  0.0681  0.0499
18499TIP3    H176988   3.304   2.090   0.679 -0.6287  0.6874 -1.3855
18499TIP3    H276989   3.450   2.050   0.682 -0.9952 -0.7727  1.4947
18500TIP3   OH276990   2.295   2.770  12.201  0.2095  0.0838  0.1643
18500TIP3    H176991   2.293   2.678  12.229  0.8082  0.0860  0.2331
18500TIP3    H276992   2.204   2.792  12.184 -0.0600 -0.2380  1.1024
18501TIP3   OH276993   3.461   0.671  16.240 -0.4043 -0.0740 -0.3256
18501TIP3    H176994   3.428   0.638  16.156  0.2028  0.5577 -0.8304
18501TIP3    H276995   3.480   0.763  16.223  0.8641 -0.2309  0.1459
18502TIP3   OH276996   1.252   0.458  13.585 -0.5225 -0.3627  0.4541
18502TIP3    H176997   1.186   0.396  13.556  0.8550 -0.3197 -3.3212
18502TIP3    H276998   1.317   0.459  13.515  1.9262  1.8880  2.5155
18503TIP3   OH276999   3.842   0.948   6.061 -0.0689 -0.0253  0.0714
18503TIP3    H177000   3.751   0.975   6.072 -0.1270 -0.3250  0.3422
18503TIP3    H277001   3.886   0.979   6.140  0.0224 -0.0563  0.0330
18504TIP3   OH277002   3.412   6.251  11.110  0.4217  0.0055  0.0349
18504TIP3    H177003   3.471   6.322  11.086  1.6547 -1.0469 -0.1399
18504TIP3    H277004   3.325   6.291  11.107  0.9751  1.2129 -1.2060
18505TIP3   OH277005   4.194   0.883   0.013  0.1833  0.4754 -0.0274
18505TIP3    H177006   4.284   0.909   0.032  0.5718 -0.5128 -0.4336
18505TIP3    H277007   4.190   0.879  -0.082 -0.0717 -0.2305  0.0100
18506TIP3   OH277008   0.916   3.711   2.777 -0.1638  0.2516  0.5553
18506TIP3    H177009   0.997   3.738   2.735  0.3038 -3.1740 -1.1669
18506TIP3    H277010   0.901   3.776   2.845  2.9948  2.0532 -0.2595
18507TIP3   OH277011   3.860   3.260   2.519  0.4887 -0.4752 -0.4529
18507TIP3    H177012   3.828   3.246   2.430  1.6150  1.9734 -1.3499
18507TIP3    H277013   3.838   3.352   2.538  0.1906 -0.9579  1.8653
18508TIP3   OH277014   2.102   5.575   5.797 -0.3153 -0.3325  0.0111
18508TIP3    H177015   2.082   5.638   5.727  1.4765 -0.4638 -0.6850
18508TIP3    H277016   2.184   5.608   5.835  0.9200 -2.4082 -0.6515
18509TIP3   OH277017   0.651   5.748   4.998 -0.0437 -0.3293  0.2611
18509TIP3    H177018   0.724   5.735   5.058  0.7647  1.5433 -0.2720
18509TIP3    H277019   0.659   5.676   4.935  0.8371 -0.6252  0.6993
18510TIP3   OH277020   4.017   2.423  12.581 -0.3295  0.1822  0.2417
18510TIP3    H177021   4.008   2.516  12.600 -0.8235  0.5725 -1.6684
18510TIP3    H277022   3.966   2.410  12.500  0.5154 -1.5402 -0.0626
18511TIP3   OH277023   4.991   5.404   0.409  0.2441  0.0436  0.5031
18511TIP3    H177024   4.966   5.496   0.420 -2.5504 -0.2004 -2.4114
18511TIP3    H277025   4.924   5.355   0.458  1.1487 -0.5085  1.2217
18512TIP3   OH277026   4.912   2.310   5.744  0.3139  0.7065  0.0293
18512TIP3    H177027   5.001   2.331   5.715  0.7923 -0.0613  0.8792
18512TIP3    H277028   4.876   2.256   5.673  1.3170 -0.8034  0.6143
18513TIP3   OH277029   0.435   0.796  14.346 -0.8768  0.0494 -0.3341
18513TIP3    H177030   0.503   0.781  14.281 -0.5461  0.2623 -0.0363
18513TIP3    H277031   0.465   0.750  14.424 -0.8970  0.4599 -0.0869
18514TIP3   OH277032   4.623   4.088   2.916 -0.2567  0.7848  0.1346
18514TIP3    H177033   4.577   4.029   2.975  0.3060  0.1633 -0.0285
18514TIP3    H277034   4.555   4.120   2.857 -0.2364 -1.6364 -1.3661
18515TIP3   OH277035   0.900   0.179  13.300 -0.1683  0.4578  0.1848
18515TIP3    H177036   0.900   0.147  13.210  0.3931  0.0334  0.3316
18515TIP3    H277037   0.818   0.145  13.337 -0.1157  0.1374  0.0091
18516TIP3   OH277038   4.973   2.490   2.103 -0.4564  0.1913 -0.4863
18516TIP3    H177039   4.948   2.543   2.179 -2.7574  0.2743 -1.2148
18516TIP3    H277040   4.971   2.400   2.135  3.3948  0.3637  0.7375
18517TIP3   OH277041   5.705   1.304  14.978  0.5423  0.1898 -0.1995
18517TIP3    H177042   5.773   1.242  14.951  1.3879  0.5099  1.0723
18517TIP3    H277043   5.712   1.306  15.074 -1.4795  0.0037 -0.0033
18518TIP3   OH277044   3.928   3.561  15.400 -0.0274 -0.3150  1.1020
18518TIP3    H177045   4.005   3.504  15.397 -0.6330 -1.1084  0.0084
18518TIP3    H277046   3.964   3.650  15.389  0.6052 -0.8254 -1.7644
18519TIP3   OH277047   3.057   2.583   4.144  0.2721 -0.2787  0.3954
18519TIP3    H177048   3.132   2.628   4.105 -0.5670  0.7199 -0.1128
18519TIP3    H277049   3.089   2.551   4.228  1.0976  0.6563  0.4553
18520TIP3   OH277050   1.990   4.961   3.292  0.5285  0.3823  0.1663
18520TIP3    H177051   2.057   5.016   3.333  1.9648 -0.3223 -1.1608
18520TIP3    H277052   1.968   5.007   3.211  0.8076 -0.3566 -0.3277
18521TIP3   OH277053   2.283   2.132   1.446 -0.2322 -0.1452  0.1646
18521TIP3    H177054   2.296   2.206   1.505 -1.7163  0.3312 -0.0616
18521TIP3    H277055   2.352   2.070   1.470  0.5094  0.9321  0.9380
18522TIP3   OH277056   5.862   6.331  13.737  0.2289  0.3788 -0.0084
18522TIP3    H177057   5.843   6.246  13.778  0.3442  0.7401  0.8097
18522TIP3    H277058   5.897   6.308  13.651 -1.5013 -0.3768 -0.5699
18523TIP3   OH277059   3.274   1.813   0.016 -0.2617 -0.5030  0.0216
18523TIP3    H177060   3.274   1.743  -0.049  0.6011  0.0510 -0.5813
18523TIP3    H277061   3.235   1.772   0.094 -1.0477 -1.2452 -0.7406
18524TIP3   OH277062   5.684   0.154  16.715  0.0653 -0.4631  0.6663
18524TIP3    H177063   5.690   0.103  16.635 -1.3907 -2.1408  1.5578
18524TIP3    H277064   5.590   0.161  16.732  0.3368  0.0173  2.1213
18525TIP3   OH277065   2.225   0.052  16.932  0.0565  0.0084 -0.3313
18525TIP3    H177066   2.197  -0.028  16.977  2.4896 -1.7180 -1.6064
18525TIP3    H277067   2.295   0.087  16.986 -0.9215  1.2592  0.1569
18526TIP3   OH277068   4.258   2.665  14.895  0.7465 -0.2859  0.0086
18526TIP3    H177069   4.195   2.601  14.862  0.2467  0.2379 -0.0743
18526TIP3    H277070   4.208   2.717  14.958  0.8665  0.6531 -0.6513
18527TIP3   OH277071   6.668   2.366   5.259  0.4607 -0.1884 -0.0466
18527TIP3    H177072   6.731   2.295   5.267 -0.7520 -1.1919  1.0443
18527TIP3    H277073   6.584   2.326   5.281 -0.1264  1.8249  1.6228
18528TIP3   OH277074   5.303   0.385   2.698  0.6303  0.2816  0.1495
18528TIP3    H177075   5.393   0.377   2.729  0.1732  2.8703  2.5639
18528TIP3    H277076   5.258   0.308   2.733  0.9969  1.2063  2.9021
18529TIP3   OH277077   6.199   4.075   1.521 -0.3371 -0.1506  0.4137
18529TIP3    H177078   6.110   4.059   1.552 -0.6599  2.4779  1.0795
18529TIP3    H277079   6.188   4.120   1.438  0.2514  1.7738  1.3124
18530TIP3   OH277080   6.161   4.533  14.024  0.4880 -0.2816  0.5855
18530TIP3    H177081   6.089   4.569  13.972  0.3984 -2.0628 -0.5843
18530TIP3    H277082   6.156   4.581  14.107 -1.7768 -0.0729  0.3965
18531TIP3   OH277083   0.562   0.210   0.286  0.6480  0.1863 -0.1578
18531TIP3    H177084   0.616   0.282   0.318 -1.7943  1.3363  1.7739
18531TIP3    H277085   0.496   0.254   0.231 -0.8604 -0.4980  1.0253
18532TIP3   OH277086   1.957   0.810   5.438 -1.0231 -0.0889  0.3113
18532TIP3    H177087   1.871   0.851   5.425  0.1820  2.4006 -0.5419
18532TIP3    H277088   1.999   0.863   5.506  0.3569 -0.3576 -0.3000
18533TIP3   OH277089   2.536   3.545   2.790  0.4440 -0.8198  0.1354
18533TIP3    H177090   2.509   3.472   2.735  0.3603  0.4356 -1.5922
18533TIP3    H277091   2.612   3.582   2.745 -0.6681  1.3121 -0.1541
18534TIP3   OH277092   2.392   0.483   3.160 -0.3030 -0.3390 -0.7389
18534TIP3    H177093   2.474   0.441   3.132 -0.6115 -0.9773 -0.7169
18534TIP3    H277094   2.363   0.430   3.234  0.2508  1.0377  0.5167
18535TIP3   OH277095   4.944   5.589  13.965  0.6163  0.3609  0.5018
18535TIP3    H177096   4.971   5.527  13.897 -0.5391  0.4487 -0.0686
18535TIP3    H277097   4.879   5.644  13.922  1.6738  2.0373  0.9902
18536TIP3   OH277098   2.019   4.925   1.706  0.1272  0.1589  0.0822
18536TIP3    H177099   1.937   4.880   1.683  0.4112 -0.7978  0.8663
18536TIP3    H277100   2.008   5.014   1.674 -0.4755 -0.4594 -1.4945
18537TIP3   OH277101   5.990   1.509  13.803  0.4326 -0.0715 -0.3108
18537TIP3    H177102   6.053   1.567  13.761 -0.2261  0.3445 -0.7495
18537TIP3    H277103   5.992   1.429  13.751 -0.4134  0.4559 -1.2088
18538TIP3   OH277104   2.223   4.467   1.249 -0.0947  0.0907  0.1238
18538TIP3    H177105   2.297   4.408   1.242 -0.1484  0.0888 -0.4060
18538TIP3    H277106   2.232   4.527   1.175 -0.8550 -0.1705 -0.1895
18539TIP3   OH277107   1.464   4.528   4.625  0.0314 -0.2908  0.1860
18539TIP3    H177108   1.388   4.480   4.592 -0.6546 -0.1276  1.4671
18539TIP3    H277109   1.443   4.620   4.612  0.5211 -0.2766 -0.5248
18540TIP3   OH277110   1.090   1.703   1.541 -0.0925 -0.7769  0.4247
18540TIP3    H177111   1.009   1.667   1.577 -0.5487 -0.1806  0.0047
18540TIP3    H277112   1.087   1.681   1.448  0.1778 -0.6529  0.3856
18541TIP3   OH277113   4.513   1.000  17.058 -0.7393 -0.9882 -0.3155
18541TIP3    H177114   4.459   0.984  17.136  0.2347 -0.3978  0.5033
18541TIP3    H277115   4.519   0.914  17.016 -1.1833 -1.3438  0.3193
18542TIP3   OH277116   2.137   2.004   4.737 -0.2146 -0.1468 -0.0554
18542TIP3    H177117   2.101   2.003   4.648  0.9569  1.4918 -0.6048
18542TIP3    H277118   2.118   2.092   4.769 -0.1164 -0.5394  1.1074
18543TIP3   OH277119   0.721   5.918  12.944 -0.2041  0.1805 -0.2816
18543TIP3    H177120   0.708   5.824  12.957  0.7061  0.1835  0.7176
18543TIP3    H277121   0.696   5.933  12.853 -3.9762 -0.3639  0.4976
18544TIP3   OH277122   5.972   0.105  12.675 -0.0372 -0.1213 -0.2254
18544TIP3    H177123   6.010   0.183  12.634  0.2108 -0.5449 -0.8179
18544TIP3    H277124   6.029   0.033  12.648  0.3065 -0.3835  1.1055
18545TIP3   OH277125   4.386   2.872   1.501  0.0286  0.2322  0.3616
18545TIP3    H177126   4.390   2.962   1.468 -0.7303  0.9883  2.1987
18545TIP3    H277127   4.382   2.881   1.596  0.6679 -1.7897  0.6262
18546TIP3   OH277128   3.289   5.150   1.449 -0.8996  0.2841  0.2272
18546TIP3    H177129   3.198   5.179   1.457 -0.9398  0.1681  0.2019
18546TIP3    H277130   3.341   5.229   1.462 -1.0228  0.4737 -0.4151
18547TIP3   OH277131   0.399   1.810  13.463  0.3188 -0.0168  0.1538
18547TIP3    H177132   0.312   1.790  13.497 -0.0333  0.8746 -0.1778
18547TIP3    H277133   0.430   1.881  13.519  0.6519 -0.0357 -0.0063
18548TIP3   OH277134   0.535   3.451  10.550 -0.3949 -0.4216 -0.7823
18548TIP3    H177135   0.520   3.393  10.625 -0.4099  0.4824 -0.0801
18548TIP3    H277136   0.615   3.499  10.572  0.2101 -0.8981 -1.8286
18549TIP3   OH277137   2.384   4.884   5.993 -0.0028  0.4111 -0.2487
18549TIP3    H177138   2.335   4.892   5.911 -1.7758 -0.0443  0.7305
18549TIP3    H277139   2.326   4.921   6.060  1.0965  0.0814  0.9286
18550TIP3   OH277140   0.333   1.857   0.927 -0.0316  0.1211  0.1144
18550TIP3    H177141   0.240   1.858   0.906  0.2112 -2.2687 -1.3341
18550TIP3    H277142   0.377   1.880   0.846  0.6915 -1.8494 -0.1099
18551TIP3   OH277143   0.031   4.068  12.702 -0.5370 -0.6905 -0.0932
18551TIP3    H177144  -0.063   4.090  12.701 -1.1896 -3.1576 -0.1897
18551TIP3    H277145   0.039   4.002  12.771  0.8898 -1.4971 -0.9958
18552TIP3   OH277146   4.071   5.192   6.353  0.1741 -0.2087  0.2907
18552TIP3    H177147   4.003   5.254   6.325 -0.3379  0.2176  2.2878
18552TIP3    H277148   4.037   5.106   6.330  0.2958  0.1372 -1.3207
18553TIP3   OH277149   3.940   3.392  14.535 -0.3383 -0.1242 -0.4275
18553TIP3    H177150   4.036   3.386  14.530 -0.3089  0.9297 -2.4062
18553TIP3    H277151   3.924   3.471  14.588 -0.1032 -0.0406 -0.4795
18554TIP3   OH277152   6.395   5.020  14.195 -0.1351 -0.1099  0.6396
18554TIP3    H177153   6.477   5.050  14.156  0.3433 -1.4208  0.5780
18554TIP3    H277154   6.327   5.071  14.152  0.4951 -0.5211 -0.9019
18555TIP3   OH277155   1.937   2.816  14.593  0.0390  0.5109 -0.0949
18555TIP3    H177156   1.997   2.831  14.666  1.7584 -1.8313 -0.9198
18555TIP3    H277157   1.993   2.816  14.515 -0.8270 -2.4051 -0.8472
18556TIP3   OH277158   5.378   5.522   6.199  0.5472 -1.0723 -0.3644
18556TIP3    H177159   5.298   5.530   6.147  0.6514  0.3211 -0.3468
18556TIP3    H277160   5.445   5.569   6.149  0.8984 -0.6309  0.4914
18557TIP3   OH277161   2.273   0.822  15.993  0.4589 -0.0579 -0.6893
18557TIP3    H177162   2.297   0.752  15.931 -1.4687 -0.8722 -0.5700
18557TIP3    H277163   2.200   0.786  16.043 -0.6437  2.0731 -0.6711
18558TIP3   OH277164   3.787   6.114   3.885 -0.0552  0.6501 -0.1871
18558TIP3    H177165   3.772   6.020   3.875  0.3328  0.6789 -1.2093
18558TIP3    H277166   3.709   6.147   3.929 -0.3103 -0.1134 -0.0569
18559TIP3   OH277167   4.791   5.417   0.641  0.1055 -0.3899 -0.0215
18559TIP3    H177168   4.752   5.503   0.661  0.8201 -0.2117  0.6623
18559TIP3    H277169   4.746   5.357   0.701 -1.8246 -0.8952 -1.8313
18560TIP3   OH277170   0.884   4.709   2.208 -0.1449  0.1608  0.3396
18560TIP3    H177171   0.809   4.750   2.165 -0.3865  0.9655  1.4608
18560TIP3    H277172   0.845   4.647   2.270  0.0832  0.7858  1.1309
18561TIP3   OH277173   5.601   5.876  11.770  0.2328 -0.0925 -0.0033
18561TIP3    H177174   5.512   5.868  11.734  0.3354 -0.0426 -0.2653
18561TIP3    H277175   5.587   5.914  11.857  0.0767  1.0178 -0.5010
18562TIP3   OH277176   2.554   6.433  12.889 -0.1602 -0.0227  0.2990
18562TIP3    H177177   2.474   6.410  12.843 -0.7098 -0.4074  1.4066
18562TIP3    H277178   2.530   6.509  12.943  0.1553 -0.2774  0.8048
18563TIP3   OH277179   5.502   4.594   0.287 -0.1899  0.2930 -0.3665
18563TIP3    H177180   5.554   4.584   0.367  0.9855  1.6284 -0.9366
18563TIP3    H277181   5.431   4.654   0.312 -0.5034 -0.2130 -0.0281
18564TIP3   OH277182   0.435   6.761   3.679  0.2293  0.3264  0.6069
18564TIP3    H177183   0.405   6.684   3.728 -1.5071  0.7466  0.2741
18564TIP3    H277184   0.385   6.834   3.716  1.1729  1.1628  0.2928
18565TIP3   OH277185   2.843   0.930  16.486 -0.4840  0.3466  0.2780
18565TIP3    H177186   2.817   0.859  16.428 -1.8193 -1.2022  2.6028
18565TIP3    H277187   2.938   0.921  16.493 -0.4694 -0.2982 -0.5868
18566TIP3   OH277188   1.225   3.533  16.946 -0.4966  0.3382 -0.0044
18566TIP3    H177189   1.163   3.461  16.958 -0.2683  0.4138  2.0380
18566TIP3    H277190   1.197   3.599  17.010  1.7128  0.3250  1.0521
18567TIP3   OH277191   2.428   2.646   5.874 -0.4896  0.1843 -0.1318
18567TIP3    H177192   2.512   2.604   5.861 -0.6037 -0.1833  0.2750
18567TIP3    H277193   2.370   2.576   5.904 -0.6635  0.6355  0.6291
18568TIP3   OH277194   4.952   2.305   3.510 -0.1942  0.4681 -0.1590
18568TIP3    H177195   4.919   2.346   3.590  2.0212  0.9428  0.5892
18568TIP3    H277196   4.944   2.211   3.525  0.0488  0.5568  0.5623
18569TIP3   OH277197   3.194   3.386   1.271 -0.3217 -0.1984 -0.3029
18569TIP3    H177198   3.163   3.391   1.362  0.1350  1.6443 -0.2039
18569TIP3    H277199   3.176   3.296   1.244 -1.8765 -0.3493  1.1110
18570TIP3   OH277200   5.164   6.399  15.093 -0.0794  0.7009 -0.7442
18570TIP3    H177201   5.233   6.457  15.126  1.8218 -0.5980 -2.2206
18570TIP3    H277202   5.145   6.341  15.166  2.4149 -0.6604 -1.0591
18571TIP3   OH277203   1.790   5.133   1.499 -0.3259 -0.4534  0.9672
18571TIP3    H177204   1.805   5.050   1.454  1.1142 -0.8589  2.1075
18571TIP3    H277205   1.824   5.199   1.439 -2.3295 -0.5219 -0.3695
18572TIP3   OH277206   3.499   5.968   4.928 -0.4915  0.6662 -0.2483
18572TIP3    H177207   3.470   5.921   4.850 -2.2610  1.1430  0.0846
18572TIP3    H277208   3.565   6.030   4.896  0.5918 -0.7719 -0.9564
18573TIP3   OH277209   2.451   5.728   3.650  0.1543  0.9024 -0.0210
18573TIP3    H177210   2.450   5.657   3.715 -2.4734  0.6112 -0.2655
18573TIP3    H277211   2.513   5.792   3.686  2.0536 -1.1323  0.5589
18574TIP3   OH277212   5.240   5.136   4.921 -0.1112  0.4769 -0.1929
18574TIP3    H177213   5.186   5.095   4.853 -0.2257 -0.9587  0.7168
18574TIP3    H277214   5.186   5.131   5.000  1.1682 -0.6938  0.6638
18575TIP3   OH277215   1.474   5.511  11.620 -0.0334  0.1729  0.2684
18575TIP3    H177216   1.530   5.539  11.547 -0.4366 -1.5090 -0.7590
18575TIP3    H277217   1.409   5.580  11.629  1.2820  1.4250  0.4619
18576TIP3   OH277218   1.482   4.902   3.503  0.6562  0.4219  0.3227
18576TIP3    H177219   1.457   4.988   3.470 -0.4514 -0.2908 -0.7445
18576TIP3    H277220   1.475   4.910   3.598  0.4398  1.4557  0.2328
18577TIP3   OH277221   0.084   0.243   3.724  0.6431  0.6197  0.1130
18577TIP3    H177222   0.052   0.153   3.730  1.9526  0.0963 -0.5230
18577TIP3    H277223   0.006   0.294   3.703 -0.1612 -0.3284  0.7121
18578TIP3   OH277224   2.431   5.226  14.261 -0.2302  0.4375 -0.0135
18578TIP3    H177225   2.508   5.266  14.302 -0.2593 -1.7415  2.3771
18578TIP3    H277226   2.465   5.151  14.213 -0.8444 -0.8094  1.4319
18579TIP3   OH277227   5.943   0.126  14.968 -0.5948  0.3517 -0.2441
18579TIP3    H177228   5.958   0.097  14.878 -0.8581 -1.0866  0.1643
18579TIP3    H277229   6.030   0.146  15.002 -0.5167  1.1836 -0.8899
18580TIP3   OH277230   6.406   6.012   4.613 -0.5028 -0.4248  0.5129
18580TIP3    H177231   6.324   6.062   4.615 -0.3682 -0.1425 -0.2686
18580TIP3    H277232   6.382   5.924   4.639 -0.9441 -0.1942  0.8913
18581TIP3   OH277233   6.046   3.916  10.623 -0.6152  0.2720 -0.1307
18581TIP3    H177234   6.140   3.924  10.638 -0.6850  0.9000  0.0228
18581TIP3    H277235   6.027   3.982  10.556 -1.0752  0.7455  0.4562
18582TIP3   OH277236   6.314   0.437   1.617 -0.0727  0.4964 -0.4302
18582TIP3    H177237   6.369   0.476   1.549  0.8430 -1.0828 -0.6434
18582TIP3    H277238   6.376   0.390   1.673 -1.1926 -1.5179 -0.8107
18583TIP3   OH277239   4.623   0.855  15.310  0.6659 -0.0019  0.5729
18583TIP3    H177240   4.616   0.819  15.222 -0.8660  1.7022 -0.0509
18583TIP3    H277241   4.568   0.933  15.309  0.8277  0.2147  2.9721
18584TIP3   OH277242   6.805   4.681  10.923 -0.6616 -0.3588 -0.1621
18584TIP3    H177243   6.733   4.742  10.936 -2.8123 -3.2455  3.4657
18584TIP3    H277244   6.776   4.625  10.851 -1.0472 -0.2195 -0.1175
18585TIP3   OH277245   3.815   1.922   3.067  0.4666  0.3234  0.5300
18585TIP3    H177246   3.755   1.916   3.141 -1.6287 -0.6205 -1.1536
18585TIP3    H277247   3.760   1.909   2.990  2.2241  3.0961 -1.3804
18586TIP3   OH277248   1.018   5.422   4.117  0.4495 -0.2463 -0.6888
18586TIP3    H177249   1.109   5.401   4.095  0.7561 -0.0797  0.3465
18586TIP3    H277250   1.005   5.511   4.084  1.4086  0.6288  1.0973
18587TIP3   OH277251   3.867   6.172   6.573  0.3725 -0.4457 -0.2729
18587TIP3    H177252   3.857   6.139   6.483 -0.0965 -0.3708 -0.2499
18587TIP3    H277253   3.779   6.169   6.609  0.5980 -0.7065  0.2712
18588TIP3   OH277254   4.669   0.333   5.729  1.2327  0.0679 -0.3414
18588TIP3    H177255   4.736   0.264   5.734  0.2148 -1.0071 -1.0422
18588TIP3    H277256   4.587   0.288   5.749  0.6006  1.2011 -0.2901
18589TIP3   OH277257   0.770   4.238   5.982  0.0312  0.2248  0.4670
18589TIP3    H177258   0.782   4.207   6.072 -1.3057  3.4446  1.8999
18589TIP3    H277259   0.844   4.297   5.967 -1.1320  1.7704  0.5353
18590TIP3   OH277260   0.461   4.755   0.583 -0.2580 -0.0536 -0.5132
18590TIP3    H177261   0.518   4.711   0.520  2.5365  1.9667  0.3729
18590TIP3    H277262   0.435   4.836   0.539  0.1575  0.4795  0.1979
18591TIP3   OH277263   3.662   2.718   3.811  0.1946  0.0950 -0.0215
18591TIP3    H177264   3.750   2.716   3.774  0.4041 -0.0226  0.4756
18591TIP3    H277265   3.617   2.643   3.771  0.4746 -0.1407  0.1088
18592TIP3   OH277266   3.668   3.313  14.735 -0.1785 -0.1051  0.8249
18592TIP3    H177267   3.743   3.264  14.770 -0.1828 -0.6713  0.0684
18592TIP3    H277268   3.684   3.316  14.641 -0.8300  0.2570  0.7270
18593TIP3   OH277269   5.246   3.417  16.151  0.0429 -0.5299  0.1954
18593TIP3    H177270   5.172   3.372  16.194 -0.2644 -1.4128 -1.1950
18593TIP3    H277271   5.260   3.367  16.071  1.5523  0.2094 -0.0230
18594TIP3   OH277272   2.443   0.170  15.930 -0.2475 -0.5254 -0.6907
18594TIP3    H177273   2.511   0.229  15.962  0.8640 -0.9280 -2.1998
18594TIP3    H277274   2.474   0.082  15.953 -0.6664 -0.6691 -0.6636
18595TIP3   OH277275   6.590   3.193   1.444  0.7633 -0.3152 -0.3691
18595TIP3    H177276   6.643   3.170   1.521  0.8390  1.4403  0.1741
18595TIP3    H277277   6.507   3.222   1.481  0.8747  0.7431 -0.9122
18596TIP3   OH277278   3.378   1.650   0.311  0.2441 -0.3699 -0.1134
18596TIP3    H177279   3.455   1.696   0.344  0.3219  0.4141 -1.3286
18596TIP3    H277280   3.393   1.558   0.332  1.6858 -0.2740 -0.6668
18597TIP3   OH277281   4.135   2.921   0.308  0.1882  0.1189 -0.1333
18597TIP3    H177282   4.047   2.951   0.330 -0.4347 -0.6860 -1.4668
18597TIP3    H277283   4.187   3.002   0.304 -0.8401  0.7593 -0.9252
18598TIP3   OH277284   1.589   2.840  15.061  0.5009  0.2322  0.2310
18598TIP3    H177285   1.662   2.793  15.101 -2.1657 -2.4097  2.4118
18598TIP3    H277286   1.561   2.903  15.127  0.4814  0.8985 -0.3973
18599TIP3   OH277287   5.216   0.989  16.362  0.4780  0.3238 -0.0846
18599TIP3    H177288   5.303   0.954  16.344  0.8033  1.2443 -0.3787
18599TIP3    H277289   5.160   0.952  16.294  1.0780  1.3828 -1.1841
18600TIP3   OH277290   3.944   2.194   3.106 -0.1511  0.7400 -0.4323
18600TIP3    H177291   3.908   2.105   3.105  1.9487 -0.2654  2.0595
18600TIP3    H277292   3.883   2.245   3.053 -1.4315 -2.1592 -1.9653
18601TIP3   OH277293   0.580   0.435   4.429 -0.1101  0.4250 -0.5124
18601TIP3    H177294   0.570   0.423   4.334  2.5620 -1.0115 -0.7015
18601TIP3    H277295   0.628   0.518   4.437 -0.9389  0.8975 -0.3514
18602TIP3   OH277296   3.553   1.326   1.895 -0.0380 -0.5574 -0.8354
18602TIP3    H177297   3.518   1.301   1.980  1.4684  0.8947  0.2779
18602TIP3    H277298   3.602   1.250   1.864 -1.6001 -1.5265 -1.0230
18603TIP3   OH277299   1.640   1.108   6.510  0.3545 -0.0566  0.2904
18603TIP3    H177300   1.588   1.029   6.519  0.6660 -0.8874 -3.6796
18603TIP3    H277301   1.728   1.082   6.537  0.6304 -1.3833 -1.7172
18604TIP3   OH277302   4.381   6.305  12.522 -0.0184 -0.6834  0.6781
18604TIP3    H177303   4.377   6.219  12.479  2.2598 -0.3057 -0.4555
18604TIP3    H277304   4.387   6.285  12.615  1.7969 -1.8985  0.3642
18605TIP3   OH277305   2.681   5.918  15.175  0.2313  0.3001 -0.6406
18605TIP3    H177306   2.733   5.876  15.107  0.5991 -0.1553 -0.0986
18605TIP3    H277307   2.632   5.986  15.130  3.2182  2.5515 -0.8078
18606TIP3   OH277308   4.009   0.034   1.793  0.1024  0.2722 -0.0168
18606TIP3    H177309   4.001  -0.054   1.830 -1.8139  0.7836  0.9155
18606TIP3    H277310   4.091   0.068   1.829  0.5938 -0.9263  0.0427
18607TIP3   OH277311   2.839   6.516   4.202 -0.5224 -0.2766  0.3108
18607TIP3    H177312   2.827   6.609   4.219  0.9230  0.4363 -2.0446
18607TIP3    H277313   2.769   6.495   4.140 -0.1564 -0.4441 -0.0510
18608TIP3   OH277314   1.856   5.358   1.345 -0.2575 -0.3638  0.6455
18608TIP3    H177315   1.845   5.413   1.268 -0.3184  0.1407  1.0083
18608TIP3    H277316   1.918   5.407   1.400 -0.2717 -0.6837  0.9487
18609TIP3   OH277317   6.811   4.516  11.352  0.2893 -0.2854  0.4549
18609TIP3    H177318   6.892   4.471  11.377  0.0811 -0.3643  1.0155
18609TIP3    H277319   6.742   4.451  11.364  0.0771 -0.0461  0.5518
18610TIP3   OH277320   4.376   5.922   4.401  0.2270 -0.2361 -0.7584
18610TIP3    H177321   4.302   5.960   4.448 -0.4691 -0.8703 -1.3406
18610TIP3    H277322   4.353   5.930   4.309  0.6462 -0.9117 -0.9280
18611TIP3   OH277323   1.854   4.751   4.146 -0.4494  0.0097 -0.2964
18611TIP3    H177324   1.927   4.706   4.189 -0.2176  1.1740  0.5610
18611TIP3    H277325   1.777   4.699   4.167 -0.1274 -0.2086  0.3513
18612TIP3   OH277326   4.836   6.560  14.609  0.0705  0.2366  0.0379
18612TIP3    H177327   4.811   6.541  14.699 -0.3144  2.5927  0.4792
18612TIP3    H277328   4.895   6.635  14.616 -0.2411  0.6796 -1.6961
18613TIP3   OH277329   6.760   2.818  17.038 -0.1907 -0.1945  0.8743
18613TIP3    H177330   6.855   2.825  17.047  0.0188 -1.4603  0.0291
18613TIP3    H277331   6.748   2.744  16.978 -1.7349 -0.7328  1.8045
18614TIP3   OH277332   3.608   6.219  14.235 -0.1269  0.3281  0.0228
18614TIP3    H177333   3.619   6.131  14.270  0.2680 -1.3456 -3.7494
18614TIP3    H277334   3.697   6.246  14.210 -0.4035  1.3063  0.0373
18615TIP3   OH277335   6.376   1.518  14.408  0.1140  0.0991 -0.0746
18615TIP3    H177336   6.427   1.593  14.377  1.2716 -0.2170  0.9839
18615TIP3    H277337   6.288   1.553  14.423  0.1329  0.7756 -1.4372
18616TIP3   OH277338   3.927   0.497   1.346  0.0350  0.1563 -0.1853
18616TIP3    H177339   3.934   0.528   1.256 -1.1486  2.9472  0.5690
18616TIP3    H277340   4.001   0.537   1.391 -0.5027  0.4266  0.4743
18617TIP3   OH277341   0.654   6.285  16.572  0.5256  0.0674  0.4721
18617TIP3    H177342   0.613   6.371  16.579  1.3550  0.5521 -0.4654
18617TIP3    H277343   0.646   6.248  16.660  1.1840  1.5816  1.2146
18618TIP3   OH277344   4.020   4.174   5.477 -0.5271  0.2458  0.2186
18618TIP3    H177345   4.001   4.195   5.569 -0.4477 -2.3286  0.9212
18618TIP3    H277346   4.067   4.091   5.482  0.5609  0.6681 -2.1236
18619TIP3   OH277347   3.318   6.190   2.765 -0.2038  0.1317 -1.2562
18619TIP3    H177348   3.373   6.159   2.837 -0.6604  0.0199 -0.9499
18619TIP3    H277349   3.265   6.260   2.803 -1.3960 -0.8049 -1.1059
18620TIP3   OH277350   2.023   0.522  13.318  0.3224  0.1444 -0.2140
18620TIP3    H177351   2.078   0.504  13.242 -1.4929 -1.8245 -1.1402
18620TIP3    H277352   1.963   0.591  13.288  0.0503 -0.1533 -0.3627
18621TIP3   OH277353   2.637   1.095   2.949  0.4202 -0.0824 -0.0089
18621TIP3    H177354   2.635   1.024   3.012  0.4806 -0.0510  0.0286
18621TIP3    H277355   2.545   1.110   2.926  0.3669  0.1546  0.3519
18622TIP3   OH277356   5.044   6.710   3.108  0.0466  0.0547 -0.0698
18622TIP3    H177357   5.080   6.798   3.106 -0.2019  0.2341  1.8999
18622TIP3    H277358   4.975   6.711   3.041  0.0631  1.3328 -0.0888
18623TIP3   OH277359   0.938   0.609   5.774 -0.0504  0.1181 -0.0255
18623TIP3    H177360   0.860   0.584   5.725 -0.4789 -0.3859  0.8824
18623TIP3    H277361   0.909   0.615   5.865  0.8032  0.6708  0.2289
18624TIP3   OH277362   3.092   1.653   3.132  0.2977  0.2473 -0.5355
18624TIP3    H177363   3.155   1.582   3.145  0.9636  0.8333 -0.4986
18624TIP3    H277364   3.106   1.681   3.042 -1.2139 -0.8369 -1.1600
18625TIP3   OH277365   0.990   5.502  15.541 -0.3398  0.2631  0.1755
18625TIP3    H177366   1.065   5.450  15.514 -0.1198  0.8367 -0.3500
18625TIP3    H277367   1.005   5.517  15.635 -0.7585 -1.1626  0.4924
18626TIP3   OH277368   4.518   0.701   2.319 -0.4557 -0.0464  0.1110
18626TIP3    H177369   4.580   0.639   2.281  0.3482 -1.9163  3.9461
18626TIP3    H277370   4.566   0.783   2.324  0.4436 -0.5386 -0.1896
18627TIP3   OH277371   2.156   0.426  14.805 -0.0380  0.4521  0.1101
18627TIP3    H177372   2.172   0.334  14.826  1.2299  0.6864  0.2726
18627TIP3    H277373   2.223   0.473  14.855 -0.4828  1.4348 -0.2075
18628TIP3   OH277374   6.722   2.743   0.218  0.4208  0.1103  0.3508
18628TIP3    H177375   6.659   2.739   0.146 -0.4478  2.5040  0.8713
18628TIP3    H277376   6.808   2.740   0.176 -0.0435 -0.5619 -0.5850
18629TIP3   OH277377   6.371   3.066   5.577 -0.5245 -0.4699 -0.1686
18629TIP3    H177378   6.436   3.132   5.602  0.5241 -1.5634  0.0888
18629TIP3    H277379   6.411   3.022   5.502 -0.5799 -1.6874  0.4908
18630TIP3   OH277380   3.484   4.563   1.937  0.4354  0.2618 -0.2526
18630TIP3    H177381   3.559   4.615   1.966 -0.1874  0.9760  0.1019
18630TIP3    H277382   3.419   4.628   1.911 -0.2405 -0.3481 -0.0945
18631TIP3   OH277383   6.160   5.914  13.884 -0.2773 -0.1456 -0.0169
18631TIP3    H177384   6.181   5.968  13.808 -1.3873  0.0450 -0.1993
18631TIP3    H277385   6.192   5.964  13.959  1.2901 -0.5621 -0.3574
18632TIP3   OH277386   0.744   2.649   0.966 -0.3666 -0.0799 -0.3921
18632TIP3    H177387   0.686   2.725   0.959  0.0837  0.3447  0.4015
18632TIP3    H277388   0.759   2.639   1.060 -0.4031 -1.1455 -0.4848
18633TIP3   OH277389   5.329   5.863   1.465 -0.0881 -0.2762 -0.1974
18633TIP3    H177390   5.355   5.773   1.485 -0.9035 -1.0124 -2.2226
18633TIP3    H277391   5.275   5.889   1.539  1.8304 -0.6853  1.4176
18634TIP3   OH277392   3.404   1.274  10.922 -0.1071  0.2614 -0.2286
18634TIP3    H177393   3.430   1.209  10.857 -0.2760 -0.8603  0.7660
18634TIP3    H277394   3.314   1.296  10.899 -0.3258 -0.4843 -0.1303
18635TIP3   OH277395   4.243   0.348   1.083  0.2753 -0.1393 -0.2717
18635TIP3    H177396   4.325   0.398   1.085  0.1858  0.4875 -3.9275
18635TIP3    H277397   4.259   0.279   1.018 -1.3562 -1.5257  0.7145
18636TIP3   OH277398   4.426   6.707   1.975 -0.4957 -0.2017  0.3765
18636TIP3    H177399   4.449   6.688   1.884 -2.5163 -0.0455 -0.2383
18636TIP3    H277400   4.458   6.633   2.025 -0.0910 -0.6983 -0.6043
18637TIP3   OH277401   4.314   3.588   4.697  0.1683  0.4114 -0.1715
18637TIP3    H177402   4.367   3.604   4.620 -0.8286  2.0313 -0.5554
18637TIP3    H277403   4.328   3.664   4.753 -0.4419  0.0562  0.4896
18638TIP3   OH277404   1.127   5.029   6.691 -0.2442 -0.9938 -0.1490
18638TIP3    H177405   1.116   5.099   6.757  1.2649  1.5052 -2.3300
18638TIP3    H277406   1.220   5.007   6.695  0.0147 -0.3455 -1.7811
18639TIP3   OH277407   6.084   5.249  13.221  0.0066  0.0331 -0.2912
18639TIP3    H177408   6.039   5.236  13.305 -1.8522 -2.2678 -1.5229
18639TIP3    H277409   6.059   5.337  13.195 -0.2267  0.4015  1.0803
18640TIP3   OH277410   1.742   0.679   2.500  0.2330 -0.0024 -0.3558
18640TIP3    H177411   1.708   0.761   2.463  0.5084  0.5427  0.5606
18640TIP3    H277412   1.720   0.612   2.435 -1.4688  0.5252 -0.3560
18641TIP3   OH277413   1.479   0.167  14.011 -0.7076 -0.7212  0.2218
18641TIP3    H177414   1.526   0.236  14.058 -1.6107 -0.0327  0.1390
18641TIP3    H277415   1.451   0.209  13.930 -4.0974 -0.1348  1.5588
18642TIP3   OH277416   0.232   1.829  15.003 -0.5501  0.5643 -0.5192
18642TIP3    H177417   0.240   1.735  15.019  2.2577  0.4740 -1.8655
18642TIP3    H277418   0.138   1.844  14.995 -1.1615 -1.8425  1.1646
18643TIP3   OH277419   0.509   3.448  16.048 -0.1183  0.1038  0.3304
18643TIP3    H177420   0.472   3.529  16.084 -2.4654 -1.4352  1.6462
18643TIP3    H277421   0.454   3.429  15.972  0.7594 -0.0027 -0.2881
18644TIP3   OH277422   2.300   0.084   1.507  0.3851 -0.1011  0.3724
18644TIP3    H177423   2.262   0.110   1.591 -0.6281  0.8827 -0.3537
18644TIP3    H277424   2.390   0.061   1.527  0.6802  1.7992  1.4807
18645TIP3   OH277425   0.599   4.918   5.434 -0.3197  0.0439  0.2911
18645TIP3    H177426   0.522   4.863   5.449 -0.1005 -0.5345 -0.6352
18645TIP3    H277427   0.647   4.913   5.516 -1.8587  1.4033  1.3306
18646TIP3   OH277428   0.342   0.879   0.614 -0.0742 -0.2214 -0.0391
18646TIP3    H177429   0.313   0.821   0.544 -0.8560 -0.1804  0.2354
18646TIP3    H277430   0.432   0.902   0.591  0.0990 -1.1826 -0.3858
18647TIP3   OH277431   6.627   6.681   6.485 -0.5140  0.0487 -0.8154
18647TIP3    H177432   6.538   6.648   6.481 -0.2265 -1.7032  2.7230
18647TIP3    H277433   6.618   6.774   6.505 -1.6415 -0.3468  0.6936
18648TIP3   OH277434   1.944   2.149   3.852  0.3885 -0.7618  0.1072
18648TIP3    H177435   1.965   2.056   3.847 -1.9561 -1.3815  0.4321
18648TIP3    H277436   1.946   2.169   3.946 -0.8144 -0.9852  0.2070
18649TIP3   OH277437   0.447   3.883  16.786  0.2619  0.2593  0.3629
18649TIP3    H177438   0.414   3.932  16.861  2.5407  2.1619  0.2148
18649TIP3    H277439   0.531   3.848  16.815  0.5353 -0.1552 -0.8527
18650TIP3   OH277440   2.110   6.627  12.769 -0.0803 -0.7893  0.6788
18650TIP3    H177441   2.093   6.719  12.747 -0.4198 -1.2758 -1.3334
18650TIP3    H277442   2.028   6.594  12.804 -0.6745 -0.8540 -0.6956
18651TIP3   OH277443   0.072   3.562  10.463 -0.0712  0.1678  0.5131
18651TIP3    H177444   0.155   3.569  10.416 -0.1896  2.0955  0.5145
18651TIP3    H277445   0.005   3.565  10.394 -0.1788  0.5314  0.6297
18652TIP3   OH277446   1.574   0.699   1.921 -0.1380 -0.7223 -0.1069
18652TIP3    H177447   1.489   0.658   1.908  0.0789 -0.8364 -1.3245
18652TIP3    H277448   1.608   0.713   1.832  0.4244  0.7801  0.3064
18653TIP3   OH277449   5.596   4.458   3.976  0.0584 -0.2964 -0.0464
18653TIP3    H177450   5.534   4.527   3.955  1.1584  0.8953  0.4985
18653TIP3    H277451   5.546   4.377   3.966 -1.8208  0.6466  1.1792
18654TIP3   OH277452   0.004   3.062   1.606 -0.0322  0.2408  0.1098
18654TIP3    H177453   0.075   3.027   1.660  0.6426  0.8789 -0.3333
18654TIP3    H277454  -0.074   3.015   1.634  0.9168 -2.0538 -0.8863
18655TIP3   OH277455   0.875   2.459  17.013 -0.5898  0.6910 -0.0849
18655TIP3    H177456   0.822   2.452  17.092 -2.2735  1.4804 -1.1049
18655TIP3    H277457   0.947   2.517  17.038 -0.3843 -0.0718  1.1939
18656TIP3   OH277458   4.351   1.531  13.294  0.1700  0.5029  0.7739
18656TIP3    H177459   4.381   1.540  13.384  0.4188 -2.1870  1.0254
18656TIP3    H277460   4.430   1.539  13.241  0.1127  1.4236  0.7995
18657TIP3   OH277461   2.243   3.110   5.016 -0.1804 -0.8425 -0.6734
18657TIP3    H177462   2.196   3.173   4.961  0.1007 -1.2134 -1.3429
18657TIP3    H277463   2.323   3.156   5.043 -0.4782 -0.5400 -0.2824
18658TIP3   OH277464   6.546   1.580  11.224  0.1529 -0.5235 -0.0739
18658TIP3    H177465   6.594   1.651  11.182  0.9367  0.1778  1.8853
18658TIP3    H277466   6.473   1.561  11.165  0.3229  1.4202 -0.9712
18659TIP3   OH277467   6.616   1.752  13.809  0.0632 -0.2480  0.7558
18659TIP3    H177468   6.592   1.665  13.777  0.5176 -0.0531 -0.1595
18659TIP3    H277469   6.535   1.789  13.842 -0.1387 -1.0088  1.1267
18660TIP3   OH277470   3.780   6.570   5.219 -0.2082  0.4196 -0.8218
18660TIP3    H177471   3.827   6.587   5.301  0.7985 -0.7896 -1.1099
18660TIP3    H277472   3.744   6.654   5.194  2.9996  1.7934 -1.2930
18661TIP3   OH277473   5.624   0.755  12.563 -0.0815  0.0246  0.1710
18661TIP3    H177474   5.535   0.720  12.556 -0.2333  0.0764  1.5880
18661TIP3    H277475   5.632   0.782  12.654  1.1041  0.8183 -0.1503
18662TIP3   OH277476   1.502   1.581   4.861  0.1712  0.0525 -0.0645
18662TIP3    H177477   1.573   1.603   4.802 -0.7424  0.9209 -0.8758
18662TIP3    H277478   1.427   1.563   4.804 -0.8525  1.3162  0.8099
18663TIP3   OH277479   1.151   3.773   3.250 -0.1088 -0.3616  0.5857
18663TIP3    H177480   1.145   3.804   3.341 -2.3362 -2.5072  1.2987
18663TIP3    H277481   1.211   3.699   3.255 -0.3792 -0.5976  0.3660
18664TIP3   OH277482   3.122   2.793  12.650  0.3009  1.2019  0.4572
18664TIP3    H177483   3.193   2.855  12.667  1.7641  0.1712 -1.5019
18664TIP3    H277484   3.047   2.829  12.697  1.8237  2.9150  1.7131
18665TIP3   OH277485   0.646   4.042   3.475  0.0009 -0.6043  0.2528
18665TIP3    H177486   0.737   4.056   3.448  0.3020 -3.2744 -0.3132
18665TIP3    H277487   0.649   4.049   3.571  0.9249 -1.1734  0.2797
18666TIP3   OH277488   0.910   1.761  14.565 -0.4139  0.0919 -0.5442
18666TIP3    H177489   0.971   1.691  14.591 -0.0557  0.0451 -1.4934
18666TIP3    H277490   0.824   1.724  14.584 -0.2393 -0.7051 -1.2463
18667TIP3   OH277491   5.299   5.002  10.923 -0.0625  0.3069  0.2241
18667TIP3    H177492   5.207   4.980  10.909 -1.2664  4.5116 -0.1303
18667TIP3    H277493   5.338   4.993  10.836 -0.6650  0.2826 -0.0545
18668TIP3   OH277494   5.769   0.594  14.523  0.1847 -0.0223 -0.7907
18668TIP3    H177495   5.722   0.524  14.568  1.3590 -0.4354 -0.1353
18668TIP3    H277496   5.747   0.673  14.572 -0.9713  0.0454 -1.3978
18669TIP3   OH277497   5.930   0.121  12.213 -0.1423  0.1313  0.4897
18669TIP3    H177498   5.875   0.124  12.291 -0.8782 -1.7253  0.1027
18669TIP3    H277499   5.963   0.031  12.211  1.5628  0.7320 -0.2241
18670TIP3   OH277500   4.217   1.309  11.852 -0.0864  0.1409  0.1622
18670TIP3    H177501   4.206   1.264  11.935  4.0902 -2.7288 -0.5164
18670TIP3    H277502   4.163   1.259  11.790 -1.0815  0.6085  0.6355
18671TIP3   OH277503   2.137   3.643   1.921 -0.1153  0.3615 -0.1108
18671TIP3    H177504   2.232   3.642   1.915 -0.0962 -0.5056  0.2624
18671TIP3    H277505   2.107   3.635   1.830  0.1655  0.0527 -0.1775
18672TIP3   OH277506   0.429   6.522  12.064 -0.5357  0.4755  0.4725
18672TIP3    H177507   0.486   6.585  12.021 -1.2022  0.2522 -0.7886
18672TIP3    H277508   0.480   6.490  12.139  0.7193  0.7810 -0.2322
18673TIP3   OH277509   5.348   3.140  10.788  0.0846 -0.0596 -0.4296
18673TIP3    H177510   5.422   3.199  10.774  0.7044 -0.6683  0.2013
18673TIP3    H277511   5.341   3.091  10.706 -0.0546  0.4612 -0.7355
18674TIP3   OH277512   2.784   3.385  15.774  0.0483  0.1975  0.0619
18674TIP3    H177513   2.825   3.318  15.719  1.2161 -0.0997  1.2449
18674TIP3    H277514   2.848   3.403  15.843 -1.4431  0.3817  1.4796
18675TIP3   OH277515   2.753   5.249   3.271 -0.3892 -0.8329  0.1046
18675TIP3    H177516   2.659   5.265   3.266 -0.4895 -1.7615 -1.8112
18675TIP3    H277517   2.788   5.283   3.189  0.8332 -1.3479  0.3825
18676TIP3   OH277518   5.579   2.085  11.267  0.7510 -0.0040  0.2143
18676TIP3    H177519   5.674   2.073  11.267  0.6385 -0.9695  0.8334
18676TIP3    H277520   5.546   2.026  11.200  0.5809  0.3543 -0.0236
18677TIP3   OH277521   0.119   0.314  13.352 -0.5313  0.0403  0.2371
18677TIP3    H177522   0.161   0.400  13.342 -2.2112  0.9389  0.5655
18677TIP3    H277523   0.098   0.287  13.263 -1.6623  0.8511  0.2481
18678TIP3   OH277524   6.099   2.188  10.965  0.1806 -0.2475 -0.2016
18678TIP3    H177525   6.143   2.159  10.885  2.8062  1.2814  0.5688
18678TIP3    H277526   6.093   2.283  10.955 -0.3579 -0.1429  0.9989
18679TIP3   OH277527   2.699   0.824   5.566 -0.2186 -0.0710  0.4256
18679TIP3    H177528   2.635   0.895   5.576 -1.3123 -0.2690 -3.5316
18679TIP3    H277529   2.647   0.744   5.562  0.8064 -0.9056  2.2713
18680TIP3   OH277530   5.352   5.111   3.123  0.8001  0.4144  0.3639
18680TIP3    H177531   5.424   5.056   3.090 -0.3431 -1.0855  0.2596
18680TIP3    H277532   5.388   5.154   3.200  1.6971 -0.6407  0.5652
18681TIP3   OH277533   5.408   1.731  15.333 -0.0467  0.2937 -0.3640
18681TIP3    H177534   5.320   1.699  15.355  0.1091  1.1608  1.8002
18681TIP3    H277535   5.421   1.805  15.392  2.1140  0.2278 -0.7010
18682TIP3   OH277536   0.887   6.114  15.396 -0.1153 -0.0662 -0.5502
18682TIP3    H177537   0.808   6.088  15.348 -0.0013 -1.6441  0.0377
18682TIP3    H277538   0.957   6.061  15.358  0.1511 -0.6327  0.6911
18683TIP3   OH277539   4.267   4.615   4.451  0.0389 -0.9051  0.3477
18683TIP3    H177540   4.288   4.691   4.398  0.7171 -1.0272  0.4368
18683TIP3    H277541   4.280   4.644   4.541 -0.2283 -0.9706  0.4103
18684TIP3   OH277542   4.034   4.647   0.977 -0.5683  0.1868 -0.1175
18684TIP3    H177543   4.030   4.694   0.894 -1.9898 -1.0953 -0.8242
18684TIP3    H277544   3.959   4.588   0.975  1.7025 -2.9830  0.1906
18685TIP3   OH277545   3.179   5.851   1.142 -0.3141 -0.8027 -0.0465
18685TIP3    H177546   3.106   5.795   1.116  0.6499 -1.8392 -0.6041
18685TIP3    H277547   3.146   5.940   1.134 -1.4243 -1.2534 -0.5589
18686TIP3   OH277548   5.367   1.429  12.421 -0.0403 -0.0600  0.0126
18686TIP3    H177549   5.345   1.363  12.355 -0.2702  0.6271 -0.6014
18686TIP3    H277550   5.445   1.471  12.388 -0.6100  0.8319 -0.2213
18687TIP3   OH277551   2.674   2.568   0.124  0.2941  0.1553  0.1712
18687TIP3    H177552   2.648   2.607   0.208  2.0728  2.0145 -0.0657
18687TIP3    H277553   2.741   2.505   0.147 -0.8726 -1.0840  0.3168
18688TIP3   OH277554   3.925   0.870   4.332 -0.1456 -0.4890  0.3625
18688TIP3    H177555   4.006   0.821   4.320 -0.1741 -0.1832 -1.1695
18688TIP3    H277556   3.856   0.804   4.324 -0.0759 -0.7334  1.5752
18689TIP3   OH277557   6.787   5.091   4.124 -0.0429 -0.2270 -0.4286
18689TIP3    H177558   6.750   5.064   4.208 -0.6125  0.3591 -0.4895
18689TIP3    H277559   6.828   5.176   4.142 -0.4560  0.0566 -0.8190
18690TIP3   OH277560   4.079   0.245  14.277 -0.0502 -0.6320  0.0723
18690TIP3    H177561   4.153   0.192  14.249 -0.5477 -1.2812 -0.0452
18690TIP3    H277562   4.004   0.186  14.271 -0.9145  0.5706 -1.7478
18691TIP3   OH277563   1.307   6.622   4.456  0.0719  0.1160 -0.5335
18691TIP3    H177564   1.398   6.623   4.425  1.1200  3.9009  2.0253
18691TIP3    H277565   1.285   6.529   4.460  4.0482 -1.0390 -0.7003
18692TIP3   OH277566   1.925   6.193   5.847  0.0654  0.1092 -0.2235
18692TIP3    H177567   1.837   6.210   5.881 -0.1814  0.8753 -1.2098
18692TIP3    H277568   1.976   6.169   5.925 -1.1277 -0.8791  0.2856
18693TIP3   OH277569   0.140   4.181  11.180  0.0953 -0.1917 -0.3848
18693TIP3    H177570   0.102   4.104  11.137  1.1470  0.0530 -1.8602
18693TIP3    H277571   0.072   4.247  11.175  0.1419 -0.2022 -1.6584
18694TIP3   OH277572   6.457   2.504  12.376  0.8449  0.4185 -0.2312
18694TIP3    H177573   6.445   2.416  12.339  1.0155  0.3395 -0.0987
18694TIP3    H277574   6.551   2.520  12.368  1.1506 -0.2263  1.5807
18695TIP3   OH277575   2.079   6.564   5.784 -0.0823  0.0613  0.2962
18695TIP3    H177576   2.142   6.497   5.810  2.2003  0.8822 -2.5174
18695TIP3    H277577   2.111   6.595   5.699 -2.8467  2.4606 -0.0367
18696TIP3   OH277578   1.518   1.467  14.159  0.2578  0.5379  0.6355
18696TIP3    H177579   1.507   1.482  14.065 -3.9584  1.6280  1.0965
18696TIP3    H277580   1.512   1.372  14.169  0.8029  0.4083 -0.1626
18697TIP3   OH277581   4.321   2.176  13.213 -0.1515 -0.0189  0.0334
18697TIP3    H177582   4.358   2.172  13.301 -0.2339 -0.9621  0.0394
18697TIP3    H277583   4.270   2.095  13.205 -1.6817  0.9284 -0.2139
18698TIP3   OH277584   6.160   4.148   0.437 -0.2633  0.1639 -0.1652
18698TIP3    H177585   6.145   4.184   0.349  1.0691 -1.5317 -1.1569
18698TIP3    H277586   6.167   4.225   0.494 -1.8112  1.2915 -1.3921
18699TIP3   OH277587   0.231   6.070   6.227  0.1297  0.8563 -0.0886
18699TIP3    H177588   0.207   6.032   6.143  0.7537 -1.0862  0.5720
18699TIP3    H277589   0.262   6.158   6.205  0.3419  0.3621 -1.8958
18700TIP3   OH277590   5.368   2.948  15.239 -0.2059 -0.5942 -0.2377
18700TIP3    H177591   5.445   2.971  15.187 -0.2183  1.8301  0.6958
18700TIP3    H277592   5.404   2.906  15.317  0.3800  1.7629  0.8549
18701TIP3   OH277593   1.617   3.272   0.055 -0.0983  0.0344  0.4300
18701TIP3    H177594   1.553   3.339   0.032 -1.4551 -0.7591  1.7137
18701TIP3    H277595   1.676   3.314   0.117  1.2459  1.0388 -1.4321
18702TIP3   OH277596   6.489   2.189  16.308  0.6181 -0.0321 -0.5697
18702TIP3    H177597   6.482   2.271  16.259  2.0360  1.0686  0.9605
18702TIP3    H277598   6.403   2.177  16.347  0.2070  0.3656 -1.3332
18703TIP3   OH277599   4.541   0.711   2.614 -0.4217 -0.0758 -0.5709
18703TIP3    H177600   4.521   0.690   2.523  0.4544  0.0831 -0.8159
18703TIP3    H277601   4.486   0.787   2.635  0.9505  1.2940 -1.6851
18704TIP3   OH277602   3.502   5.331   1.749  0.2851  0.1487  0.1710
18704TIP3    H177603   3.522   5.424   1.757  0.1122  0.1687  0.3667
18704TIP3    H277604   3.520   5.311   1.657  3.1252 -0.2677  0.7196
18705TIP3   OH277605   2.470   5.738   2.059  0.0075 -0.0810 -0.4128
18705TIP3    H177606   2.375   5.727   2.069  0.1627 -0.6307  0.5777
18705TIP3    H277607   2.493   5.675   1.990  0.0267 -2.0160  1.2512
18706TIP3   OH277608   4.023   6.248   5.439 -0.6817  0.1558 -0.7292
18706TIP3    H177609   4.068   6.315   5.490  0.2159 -0.4847 -0.6511
18706TIP3    H277610   4.000   6.291   5.357 -0.2425  0.6023 -0.6199
18707TIP3   OH277611   5.076   6.466   1.416  0.5030  0.1679 -0.0534
18707TIP3    H177612   5.038   6.553   1.415 -0.4598 -0.2350 -0.7314
18707TIP3    H277613   5.077   6.439   1.324 -1.7081 -1.5270  0.3021
18708TIP3   OH277614   2.462   5.869   0.692 -0.1584  0.7480 -0.3848
18708TIP3    H177615   2.388   5.924   0.719  0.6697  2.0508 -0.6754
18708TIP3    H277616   2.537   5.907   0.737  0.3688 -0.4753 -0.2009
18709TIP3   OH277617   4.177   1.501   0.915  0.1236 -0.0961 -0.0700
18709TIP3    H177618   4.251   1.482   0.857  2.0236  2.0798  1.4409
18709TIP3    H277619   4.197   1.453   0.995 -1.1670 -1.0383 -0.2804
18710TIP3   OH277620   0.429   3.389   4.625 -0.0238  0.3929 -0.2897
18710TIP3    H177621   0.463   3.333   4.555  0.8472  0.0779  0.3642
18710TIP3    H277622   0.334   3.383   4.618  0.0241  1.0993 -2.0303
18711TIP3   OH277623   3.340   5.037   5.170 -0.0044  0.3404 -0.0025
18711TIP3    H177624   3.373   5.045   5.081 -1.3863 -0.3268 -0.5977
18711TIP3    H277625   3.257   5.086   5.170  0.4992  1.2660  1.2277
18712TIP3   OH277626   0.826   4.383  17.170  0.3997 -0.3974  0.3015
18712TIP3    H177627   0.766   4.314  17.196 -0.4246 -0.5650 -1.8262
18712TIP3    H277628   0.792   4.462  17.210 -0.7807 -0.6385 -0.1944
18713TIP3   OH277629   6.825   0.771   1.871  0.4359  0.0386 -0.2413
18713TIP3    H177630   6.761   0.700   1.869  0.1096  0.1428  2.3726
18713TIP3    H277631   6.907   0.729   1.897  0.8498  0.2826 -1.1176
18714TIP3   OH277632   2.769   3.195   2.937 -0.2380 -0.2594 -0.0697
18714TIP3    H177633   2.695   3.206   2.878 -0.0175  0.9900 -0.1278
18714TIP3    H277634   2.730   3.183   3.023 -0.5125  0.0763 -0.1488
18715TIP3   OH277635   5.823   2.846   1.240  0.6005  0.1309  0.3775
18715TIP3    H177636   5.909   2.812   1.214  0.4380 -1.1923  1.5014
18715TIP3    H277637   5.763   2.772   1.228  0.1865  0.0415  2.6319
18716TIP3   OH277638   1.909   6.618   1.448  0.2615 -0.0367  0.0009
18716TIP3    H177639   1.823   6.605   1.408  0.2086  1.0154 -0.2629
18716TIP3    H277640   1.956   6.537   1.429 -0.1948 -0.0681 -1.1020
18717TIP3   OH277641   1.283   1.255   0.119 -0.6665 -0.2653 -0.3216
18717TIP3    H177642   1.305   1.240   0.211 -1.0281  0.3713 -0.1240
18717TIP3    H277643   1.268   1.349   0.113 -0.4846 -0.2784 -1.0721
18718TIP3   OH277644   3.083   4.360   3.038 -0.4197 -0.5528  0.4188
18718TIP3    H177645   3.138   4.408   2.977  0.9077 -0.5696  1.5704
18718TIP3    H277646   2.993   4.381   3.010  0.1271  1.3276 -0.0645
18719TIP3   OH277647   4.476   4.584  15.654 -0.1274  0.5940 -0.4332
18719TIP3    H177648   4.547   4.634  15.693  0.2853  0.9846 -1.6335
18719TIP3    H277649   4.398   4.609  15.704  0.2695  1.5947 -0.2913
18720TIP3   OH277650   5.524   2.079   5.096  0.0515 -0.2441 -0.0685
18720TIP3    H177651   5.581   2.143   5.138 -0.0193 -1.1367  1.4723
18720TIP3    H277652   5.574   1.997   5.097 -0.1746 -0.4270 -1.2738
18721TIP3   OH277653   3.988   1.795  10.477 -0.4397  0.2563  0.0171
18721TIP3    H177654   3.923   1.784  10.406  1.6248 -1.6497 -1.7509
18721TIP3    H277655   3.989   1.709  10.520  0.1188  0.6222  0.7289
18722TIP3   OH277656   6.715   4.107  11.515  0.3431 -0.1508 -0.2896
18722TIP3    H177657   6.681   4.170  11.451  1.9518  0.5564 -0.5013
18722TIP3    H277658   6.682   4.137  11.599 -1.9259 -1.1771 -0.7489
18723TIP3   OH277659   1.663   2.995  13.555 -0.3233 -0.2592  0.3100
18723TIP3    H177660   1.639   2.908  13.588 -0.4121  0.3477  1.9238
18723TIP3    H277661   1.742   3.018  13.604  1.7402 -0.7959 -2.5211
18724TIP3   OH277662   5.346   1.614  13.527 -0.4178  0.3804 -0.0367
18724TIP3    H177663   5.260   1.607  13.486 -0.4856  0.8451  0.0187
18724TIP3    H277664   5.328   1.619  13.621 -0.5073  2.8857 -0.1312
18725TIP3   OH277665   5.573   3.227  10.259  0.4731 -0.0839 -0.0870
18725TIP3    H177666   5.518   3.151  10.241  0.1887  0.0661  0.1447
18725TIP3    H277667   5.529   3.300  10.216  0.7806 -0.0594 -0.3655
18726TIP3   OH277668   2.720   5.897  13.264  0.1336 -0.1861 -0.4035
18726TIP3    H177669   2.642   5.847  13.240 -1.2563  1.4559  0.4717
18726TIP3    H277670   2.790   5.832  13.266 -1.0348 -1.5775 -1.9706
18727TIP3   OH277671   3.369   1.677   5.253  0.9774  0.4546  0.5858
18727TIP3    H177672   3.315   1.600   5.236 -0.3209  0.9548  2.1628
18727TIP3    H277673   3.414   1.694   5.171 -0.2531 -0.7967 -0.3902
18728TIP3   OH277674   6.168   0.426  16.862  0.3735  0.5376 -0.9304
18728TIP3    H177675   6.189   0.387  16.777 -1.1938  0.3287 -1.2379
18728TIP3    H277676   6.074   0.439  16.861  0.2982  0.4502  0.8168
18729TIP3   OH277677   5.764   5.046  16.160  0.5090 -0.3278  0.0532
18729TIP3    H177678   5.688   5.022  16.213  0.7747  0.4648  0.8141
18729TIP3    H277679   5.823   4.971  16.168  0.1506 -0.6128  0.0956
18730TIP3   OH277680   1.941   5.505  11.252  0.5558 -0.5191 -0.0397
18730TIP3    H177681   1.957   5.411  11.262  1.2478 -0.3920  0.1043
18730TIP3    H277682   1.913   5.534  11.339  1.1563 -0.4379  0.1266
18731TIP3   OH277683   3.637   4.488  10.762  0.0116 -0.1258  0.4030
18731TIP3    H177684   3.677   4.542  10.694  1.8084  0.9123  2.2088
18731TIP3    H277685   3.600   4.413  10.714  0.6097  0.8950 -1.7637
18732TIP3   OH277686   1.928   4.778   0.837 -0.0296  0.5928 -0.0711
18732TIP3    H177687   1.886   4.826   0.766 -0.4452 -0.6525 -0.6907
18732TIP3    H277688   1.977   4.708   0.794 -2.8624 -2.2036  0.9150
18733TIP3   OH277689   4.953   2.538  13.224  0.0843 -0.3917  0.0594
18733TIP3    H177690   4.892   2.594  13.176  0.4732  0.1035  0.1234
18733TIP3    H277691   4.915   2.529  13.311  0.2394  0.1608  0.1912
18734TIP3   OH277692   3.997   2.051   0.842 -0.0068  0.3829  0.1333
18734TIP3    H177693   4.082   2.084   0.870 -0.1034  0.2885  0.5366
18734TIP3    H277694   3.947   2.130   0.819  0.2649  0.4248 -0.3322
18735TIP3   OH277695   5.766   3.326   6.222  0.2217  0.6928 -0.1132
18735TIP3    H177696   5.856   3.293   6.227 -0.0436  0.0401  0.6724
18735TIP3    H277697   5.730   3.307   6.309 -0.5367  1.3468 -0.2833
18736TIP3   OH277698   1.836   3.012   4.123 -0.1285 -0.0019 -0.5126
18736TIP3    H177699   1.919   3.015   4.075 -0.0818  0.9144 -0.3956
18736TIP3    H277700   1.780   3.076   4.078 -0.7093 -0.4778 -0.4735
18737TIP3   OH277701   4.475   3.797  14.108  0.1289 -0.2754 -0.0765
18737TIP3    H177702   4.540   3.835  14.048 -1.3205 -0.3515 -1.7666
18737TIP3    H277703   4.520   3.795  14.192  2.0049  0.5190 -0.9809
18738TIP3   OH277704   5.623   5.012  13.048  0.0545  0.3062 -0.5391
18738TIP3    H177705   5.533   4.980  13.056  0.8878 -1.7364  3.3587
18738TIP3    H277706   5.670   4.940  13.006  0.3581  0.0423  0.2283
18739TIP3   OH277707   2.400   1.312   3.155 -0.1959 -0.4746 -0.8696
18739TIP3    H177708   2.475   1.338   3.209  0.9243 -2.7775 -1.1992
18739TIP3    H277709   2.346   1.391   3.151  1.0715  0.6204  1.2371
18740TIP3   OH277710   2.420   5.412  16.647  0.1017 -0.2234  0.3167
18740TIP3    H177711   2.424   5.461  16.730 -1.0084  0.5285 -0.0511
18740TIP3    H277712   2.372   5.332  16.669  1.8018 -1.1436  0.8896
18741TIP3   OH277713   3.420   2.377  14.817 -0.5341  0.3809 -0.1388
18741TIP3    H177714   3.478   2.366  14.892  0.9815  1.3626 -1.0988
18741TIP3    H277715   3.336   2.344  14.846  0.1672  0.1594  1.7699
18742TIP3   OH277716   6.070   3.686   6.318 -0.5278  0.0032 -0.4010
18742TIP3    H177717   6.102   3.609   6.365 -0.3752  0.5095  0.3377
18742TIP3    H277718   5.975   3.675   6.317 -0.5074 -0.1881 -0.2761
18743TIP3   OH277719   6.449   0.444  11.428 -0.0688  0.0320 -0.2199
18743TIP3    H177720   6.507   0.379  11.467 -0.9927 -1.4574 -1.2753
18743TIP3    H277721   6.449   0.517  11.491  1.1137 -0.9012  0.8943
18744TIP3   OH277722   3.588   6.164  15.248 -0.0514  0.7811  0.4408
18744TIP3    H177723   3.644   6.150  15.172 -2.6109 -2.2719 -1.1067
18744TIP3    H277724   3.607   6.090  15.306 -0.4256  1.3270  1.2792
18745TIP3   OH277725   1.698   4.229   2.781  0.2145  0.3805 -0.3014
18745TIP3    H177726   1.682   4.170   2.855  0.0199 -0.2513 -0.8314
18745TIP3    H277727   1.786   4.208   2.751  1.0201  1.9012  0.8566
18746TIP3   OH277728   5.506   0.762   1.658 -0.0257 -0.8617 -0.0405
18746TIP3    H177729   5.543   0.687   1.612 -1.2668 -1.6516  0.1782
18746TIP3    H277730   5.505   0.734   1.750  1.0873  0.1150  0.2768
18747TIP3   OH277731   1.639   6.075  11.010 -0.3747 -0.1213 -0.6043
18747TIP3    H177732   1.730   6.095  11.033 -1.1326  0.8128  1.9931
18747TIP3    H277733   1.625   6.120  10.926  0.8624  1.9390  0.2177
18748TIP3   OH277734   4.338   3.416  14.220  0.0561  0.3307  0.0158
18748TIP3    H177735   4.244   3.429  14.232 -0.1108 -2.0429  2.0054
18748TIP3    H277736   4.344   3.350  14.150  0.2761  0.7359 -0.3534
18749TIP3   OH277737   4.926   4.080   0.979  0.6041  0.4847 -0.1651
18749TIP3    H177738   4.939   3.985   0.981  0.3192  0.3569 -2.5538
18749TIP3    H277739   4.844   4.092   0.932  1.8513  1.9929 -2.0812
18750TIP3   OH277740   4.342   2.587  12.462 -0.1793  0.0957  0.0095
18750TIP3    H177741   4.333   2.530  12.539 -2.4797 -0.9011 -0.9052
18750TIP3    H277742   4.419   2.641  12.481  0.0053 -0.9005  2.4860
18751TIP3   OH277743   3.454   2.126   2.881  0.1101  0.1068  0.2869
18751TIP3    H177744   3.547   2.137   2.862 -0.1326 -0.2600 -1.2107
18751TIP3    H277745   3.450   2.046   2.933  0.5175 -0.6283 -0.7798
18752TIP3   OH277746   1.817   5.047   4.577  0.5092  0.5607  0.7308
18752TIP3    H177747   1.862   5.059   4.661  1.0111  1.3777  0.3595
18752TIP3    H277748   1.886   5.020   4.517  0.6703  2.4436  0.0085
18753TIP3   OH277749   5.124   3.876   5.863  0.2730  0.1554  0.0054
18753TIP3    H177750   5.119   3.787   5.828  0.1594  0.3797 -0.5670
18753TIP3    H277751   5.084   3.870   5.950 -1.2702 -0.0266 -0.6847
18754TIP3   OH277752   4.541   5.112   6.751 -0.1725 -0.2099  0.1587
18754TIP3    H177753   4.576   5.074   6.832 -0.1946  0.7722  0.6463
18754TIP3    H277754   4.618   5.126   6.696  0.2946  2.0633  1.2786
18755TIP3   OH277755   4.385   6.075   5.238 -0.1295 -0.4898 -0.2420
18755TIP3    H177756   4.337   6.157   5.224  0.2353  0.2230  2.2002
18755TIP3    H277757   4.421   6.053   5.152 -2.2660  0.5792 -1.4903
18756TIP3   OH277758   1.323   0.011   1.393  0.1975 -0.2118  0.4279
18756TIP3    H177759   1.232   0.031   1.371  0.3232  0.4430  0.4744
18756TIP3    H277760   1.332   0.041   1.484  0.7252  0.6399  0.1030
18757TIP3   OH277761   6.135   2.798  14.969  0.0726  0.3189 -0.3761
18757TIP3    H177762   6.159   2.866  14.906  0.1716  1.2902  0.6777
18757TIP3    H277763   6.040   2.805  14.977 -0.0468 -0.3799 -1.0332
18758TIP3   OH277764   4.896   3.850   1.703 -0.0840  0.2628  0.4087
18758TIP3    H177765   4.894   3.933   1.656 -0.6097  0.2111  0.3262
18758TIP3    H277766   4.820   3.854   1.761 -0.1390 -0.1732  0.3735
18759TIP3   OH277767   3.573   5.809   3.032  0.7543 -0.1671  0.9957
18759TIP3    H177768   3.563   5.773   3.120  0.0026 -0.2997  0.8619
18759TIP3    H277769   3.493   5.860   3.018  0.7323 -0.3955  0.2742
18760TIP3   OH277770   0.541   5.492   3.963 -0.3528 -0.2492  0.1598
18760TIP3    H177771   0.485   5.522   3.892  0.9576 -0.8880 -1.2146
18760TIP3    H277772   0.481   5.467   4.033 -1.6283  1.4370 -0.2815
18761TIP3   OH277773   0.813   6.028  13.933  0.2383  0.0726  0.8170
18761TIP3    H177774   0.748   6.039  13.864 -1.0733 -0.7005  1.8870
18761TIP3    H277775   0.797   5.940  13.966  3.1862 -0.9838 -0.2326
18762TIP3   OH277776   0.543   0.795   4.659  0.2679 -0.1529 -0.0419
18762TIP3    H177777   0.519   0.767   4.748 -2.4614  2.6378  0.2259
18762TIP3    H277778   0.627   0.840   4.671  0.2741 -0.4030  1.0094
18763TIP3   OH277779   3.888   4.601  16.787 -0.3690 -0.1590 -0.1780
18763TIP3    H177780   3.883   4.534  16.718  1.5640  0.1644 -0.6752
18763TIP3    H277781   3.911   4.552  16.866 -1.5996 -0.3984  0.0522
18764TIP3   OH277782   3.356   2.594  15.655 -0.5314 -0.3452 -0.0062
18764TIP3    H177783   3.277   2.639  15.686  0.9877  3.1102 -0.5960
18764TIP3    H277784   3.354   2.604  15.560  0.5231 -0.3022 -0.0371
18765TIP3   OH277785   4.269   5.172  13.006 -0.5968  0.5853  0.4086
18765TIP3    H177786   4.278   5.158  12.912  1.4917  4.7331 -0.2409
18765TIP3    H277787   4.327   5.107  13.046  0.3899  0.3206 -1.3572
18766TIP3   OH277788   6.276   3.219  14.698  0.2839  0.0326  0.2669
18766TIP3    H177789   6.253   3.235  14.606 -1.2183 -0.4618  0.5115
18766TIP3    H277790   6.355   3.167  14.695 -0.3444 -0.8986 -0.8102
18767TIP3   OH277791   3.457   3.544  14.857 -0.1692  0.0584  0.0634
18767TIP3    H177792   3.377   3.516  14.902  0.5344  0.9264  1.9462
18767TIP3    H277793   3.522   3.554  14.926  0.5649  2.9499 -0.8993
18768TIP3   OH277794   5.943   0.589  16.287 -0.5784 -0.3287  0.0772
18768TIP3    H177795   5.988   0.613  16.367 -1.1672  2.2690 -0.2971
18768TIP3    H277796   5.978   0.647  16.220 -0.9546 -1.6266 -1.3241
18769TIP3   OH277797   4.913   0.685   6.213 -0.2038 -0.0425  0.9133
18769TIP3    H177798   4.976   0.688   6.285  1.9172 -1.0739 -0.7938
18769TIP3    H277799   4.909   0.592   6.189  0.6223  0.4907 -1.4909
18770TIP3   OH277800   6.801   6.814   3.699  0.4703 -0.2924  0.6243
18770TIP3    H177801   6.722   6.806   3.753  0.7202 -0.6027  0.9489
18770TIP3    H277802   6.845   6.730   3.710  0.7701 -0.1724  0.3250
18771TIP3   OH277803   3.078   0.654   4.880 -0.1100  0.0259  0.1639
18771TIP3    H177804   3.029   0.587   4.832 -0.5267  0.3294  0.1643
18771TIP3    H277805   3.164   0.655   4.838 -1.2023  2.0391 -2.3015
18772TIP3   OH277806   2.152   1.628  11.834  0.0827 -0.4145 -0.2729
18772TIP3    H177807   2.076   1.685  11.824  1.0972  1.0800  0.2763
18772TIP3    H277808   2.149   1.571  11.757 -0.8712  0.4864 -0.9351
18773TIP3   OH277809   1.475   4.803   2.293 -0.0836  0.3725  0.5893
18773TIP3    H177810   1.497   4.818   2.202  2.2976  1.5892  1.2948
18773TIP3    H277811   1.480   4.708   2.305 -0.3011  0.2191 -0.4750
18774TIP3   OH277812   4.315   4.303   3.593 -0.5632  0.2928  0.3223
18774TIP3    H177813   4.260   4.249   3.650 -1.9332  1.5452  0.2666
18774TIP3    H277814   4.392   4.323   3.647  0.1533 -1.9236  0.2213
18775TIP3   OH277815   5.614   3.515   2.844  0.0774  0.1201  0.1719
18775TIP3    H177816   5.578   3.499   2.756  1.7449 -0.8498 -0.3784
18775TIP3    H277817   5.548   3.480   2.903 -1.6492  1.8979 -0.6030
18776TIP3   OH277818   2.021   4.599  14.309  0.1906 -0.5520 -0.1333
18776TIP3    H177819   2.104   4.646  14.317  0.4089 -0.8595 -0.5363
18776TIP3    H277820   2.002   4.568  14.398  0.5030 -0.4658 -0.0361
18777TIP3   OH277821   5.053   1.490  10.954 -0.0287 -0.3365 -1.0228
18777TIP3    H177822   5.075   1.581  10.935 -2.3301  1.0037  1.8635
18777TIP3    H277823   4.985   1.468  10.890 -0.9200  0.7219 -0.4637
18778TIP3   OH277824   5.077   1.153   0.073  0.2141  0.3532 -0.3680
18778TIP3    H177825   5.064   1.169   0.166  1.4939 -1.1391  0.1203
18778TIP3    H277826   5.124   1.230   0.041  0.6549  0.4283  0.4445
18779TIP3   OH277827   3.315   3.711  13.683  0.0435 -0.0833 -0.0686
18779TIP3    H177828   3.282   3.726  13.772  0.1643 -1.2333  0.1902
18779TIP3    H277829   3.364   3.790  13.662 -1.7356  1.1106  0.0544
18780TIP3   OH277830   0.340   1.102  13.662  0.0896 -0.8665  0.5706
18780TIP3    H177831   0.390   1.184  13.671  1.5889 -1.4423 -1.6485
18780TIP3    H277832   0.250   1.131  13.649  0.2409  0.3323  1.9367
18781TIP3   OH277833   2.130   2.507   1.836 -0.8106 -0.4205 -0.4599
18781TIP3    H177834   2.172   2.426   1.864 -0.0916 -0.2051 -0.9138
18781TIP3    H277835   2.049   2.479   1.794 -0.3175 -0.9429 -1.0837
18782TIP3   OH277836   5.319   3.238   1.576 -0.2827  0.1931  0.3897
18782TIP3    H177837   5.287   3.220   1.664 -1.6592  1.3801  0.1744
18782TIP3    H277838   5.349   3.329   1.580  1.4462 -0.3290  0.0989
18783TIP3   OH277839   2.043   5.488   1.530  0.3732 -0.1607 -0.4774
18783TIP3    H177840   2.112   5.515   1.591 -0.4013  1.1109 -0.1331
18783TIP3    H277841   2.030   5.564   1.473 -0.5147 -0.4933 -0.7385
18784TIP3   OH277842   3.868   2.056  11.632 -0.1728  0.5630 -0.1851
18784TIP3    H177843   3.893   1.963  11.628  3.5321  1.3996  0.2491
18784TIP3    H277844   3.805   2.060  11.704  0.3841 -1.4696  0.4973
18785TIP3   OH277845   6.568   3.991   5.684  0.9737  0.0280  0.1933
18785TIP3    H177846   6.637   3.975   5.620  0.3276  0.0146 -0.5103
18785TIP3    H277847   6.599   4.067   5.734  1.2701  0.3327 -0.4387
18786TIP3   OH277848   5.876   2.948   0.929  0.0955  0.1723  0.1501
18786TIP3    H177849   5.815   2.882   0.962  0.6670 -0.6085 -0.3238
18786TIP3    H277850   5.820   3.017   0.894 -0.5130 -0.2702  0.2307
18787TIP3   OH277851   3.975   6.659   4.655 -0.0105  0.3496 -0.6671
18787TIP3    H177852   3.923   6.680   4.577  2.0090  2.1822 -1.6473
18787TIP3    H277853   4.047   6.722   4.652  0.4240  0.1193  2.4361
18788TIP3   OH277854   4.025   3.143  17.173  0.3605 -0.3696 -0.3484
18788TIP3    H177855   4.005   3.185  17.089  2.0302 -0.1454 -0.6609
18788TIP3    H277856   3.994   3.053  17.163  1.1955 -0.5550 -1.4905
18789TIP3   OH277857   6.358   1.958  11.293 -0.7938  0.6303 -0.5347
18789TIP3    H177858   6.420   1.914  11.351  0.1937 -0.1187 -2.0636
18789TIP3    H277859   6.287   1.895  11.283 -0.9915  0.7830 -0.1093
18790TIP3   OH277860   2.671   3.373  14.265 -0.2902 -0.3388 -0.6524
18790TIP3    H177861   2.626   3.448  14.303  2.7194  1.5325 -0.4729
18790TIP3    H277862   2.701   3.322  14.340  1.3607  0.6569 -0.6061
18791TIP3   OH277863   0.435   0.008   1.097  0.1010  0.3805 -0.5152
18791TIP3    H177864   0.404   0.027   1.008  0.1140  0.1830 -0.5625
18791TIP3    H277865   0.381   0.063   1.153 -1.6466 -1.3005 -0.4352
18792TIP3   OH277866   1.993   0.347   2.527 -0.2076 -0.6149 -0.8324
18792TIP3    H177867   1.957   0.399   2.455 -1.1651 -0.8176 -0.5194
18792TIP3    H277868   2.081   0.382   2.540 -0.0569 -0.4896 -2.0131
18793TIP3   OH277869   1.148   0.278   2.983 -0.6960 -0.3049  0.3385
18793TIP3    H177870   1.155   0.356   2.928  1.2133  1.1929  2.5038
18793TIP3    H277871   1.206   0.214   2.942  0.4832  0.6927  0.3922
18794TIP3   OH277872   4.703   1.197   6.613 -0.3397  0.2832  0.4750
18794TIP3    H177873   4.773   1.205   6.677  0.3001  0.2325 -0.2002
18794TIP3    H277874   4.679   1.287   6.592  0.1787  0.3159  0.0127
18795TIP3   OH277875   3.544   6.132  16.622  0.1531 -0.5949 -0.2071
18795TIP3    H177876   3.471   6.084  16.583  0.3763 -0.1560 -1.1943
18795TIP3    H277877   3.511   6.222  16.632 -0.5551 -1.0588  2.3995
18796TIP3   OH277878   1.001   3.312  13.610  0.0254  0.0411 -0.3347
18796TIP3    H177879   1.029   3.401  13.631  1.7088 -0.6328  0.3960
18796TIP3    H277880   0.951   3.322  13.529  1.8654  1.4353 -1.3794
18797TIP3   OH277881   4.387   0.141  11.394 -0.5282  0.2692 -0.1126
18797TIP3    H177882   4.300   0.108  11.417 -0.5068 -0.7286 -1.3144
18797TIP3    H277883   4.372   0.194  11.315  0.0754 -0.8939 -1.0422
18798TIP3   OH277884   4.329   4.703  10.656  0.4314 -0.5882 -0.2654
18798TIP3    H177885   4.262   4.706  10.587 -0.1881  0.5418  0.3700
18798TIP3    H277886   4.382   4.625  10.634  0.1673 -0.3366 -1.9288
18799TIP3   OH277887   1.053   6.427  14.756  0.1512  0.3817  0.0248
18799TIP3    H177888   0.966   6.447  14.790 -0.1747 -0.9458  0.0528
18799TIP3    H277889   1.090   6.366  14.820  1.3713  1.4172  0.3429
18800TIP3   OH277890   1.938   1.223   4.931 -0.4698  0.3990 -0.2988
18800TIP3    H177891   1.848   1.255   4.923 -0.4749  0.3146 -0.6086
18800TIP3    H277892   1.936   1.138   4.888  0.0540  0.9625 -1.4911
18801TIP3   OH277893   0.804   0.486  11.370  0.8263 -0.2320 -0.4771
18801TIP3    H177894   0.740   0.417  11.350  1.5568 -0.3246 -2.8814
18801TIP3    H277895   0.776   0.560  11.316  0.5810  1.0945  1.3852
18802TIP3   OH277896   1.578   5.857  13.474  0.4876  0.2071  0.4473
18802TIP3    H177897   1.660   5.818  13.443 -1.7530 -4.5166 -0.4206
18802TIP3    H277898   1.539   5.896  13.396  1.0015  0.8381  0.4891
18803TIP3   OH277899   1.224   6.742   2.299  0.9793 -0.4293  0.2814
18803TIP3    H177900   1.252   6.765   2.211  2.3166 -1.6848  0.3494
18803TIP3    H277901   1.134   6.774   2.305  1.7107  2.0086 -0.6255
18804TIP3   OH277902   6.487   3.751  16.190  0.0962 -0.4238 -0.0523
18804TIP3    H177903   6.400   3.785  16.208  0.3988 -0.3353  1.4485
18804TIP3    H277904   6.545   3.803  16.246  0.7415 -2.3676  1.2185
18805TIP3   OH277905   0.784   0.349  15.509  0.6826 -0.1635 -0.2415
18805TIP3    H177906   0.697   0.312  15.525  1.6059 -2.3616  0.1015
18805TIP3    H277907   0.833   0.278  15.468  1.7529  1.6929 -2.4339
18806TIP3   OH277908   6.774   4.582  13.322  0.4557 -0.5955  0.4900
18806TIP3    H177909   6.739   4.511  13.269 -0.1228 -0.9127  1.2708
18806TIP3    H277910   6.764   4.660  13.268  1.2505 -1.1245 -0.4406
18807TIP3   OH277911   6.129   5.733  15.851  0.0772 -0.1700  0.0197
18807TIP3    H177912   6.183   5.812  15.858  0.1675 -0.2942  0.7695
18807TIP3    H277913   6.085   5.726  15.935  1.4150 -1.8871  0.6173
18808TIP3   OH277914   5.158   3.206  17.071  0.1989  0.2934  0.4836
18808TIP3    H177915   5.186   3.143  17.137 -2.4308 -0.9512  0.5462
18808TIP3    H277916   5.085   3.163  17.026 -0.9707  2.8389 -0.2528
18809TIP3   OH277917   1.067   3.002   1.237 -0.7558 -0.2197  0.0446
18809TIP3    H177918   1.070   3.094   1.262  2.4888  0.1344 -1.2017
18809TIP3    H277919   1.012   3.000   1.159 -0.6010  0.7295 -0.1010
18810TIP3   OH277920   1.188   0.035  15.486  0.1230  0.2984 -0.0112
18810TIP3    H177921   1.268   0.038  15.432  0.5399 -0.3485  0.5541
18810TIP3    H277922   1.178  -0.057  15.507 -1.8801  0.0719 -1.6801
18811TIP3   OH277923   2.114   2.802  13.204 -0.1430 -0.4830  0.2771
18811TIP3    H177924   2.114   2.893  13.235  0.8681 -0.6052  0.6814
18811TIP3    H277925   2.159   2.805  13.120  0.5262 -0.7036  0.6200
18812TIP3   OH277926   6.469   4.597  12.428 -0.8150 -0.2254  0.5698
18812TIP3    H177927   6.424   4.533  12.483 -1.6145  1.3287  1.8063
18812TIP3    H277928   6.536   4.635  12.484 -1.2170  0.9364  0.3025
18813TIP3   OH277929   6.356   4.813   1.454 -0.3375  1.4138  0.3107
18813TIP3    H177930   6.301   4.735   1.458  0.5242  0.8451  3.6305
18813TIP3    H277931   6.428   4.788   1.396 -0.4628  0.0238  0.7257
18814TIP3   OH277932   3.505   2.095  11.279  0.3491  0.4576 -0.6780
18814TIP3    H177933   3.413   2.106  11.255 -0.0331  0.1861  0.5823
18814TIP3    H277934   3.512   2.004  11.307  0.7041  0.7973  0.4080
18815TIP3   OH277935   5.485   4.373   6.638  0.1105 -0.2050  0.8407
18815TIP3    H177936   5.501   4.301   6.699 -2.9506 -0.8164  1.0881
18815TIP3    H277937   5.527   4.345   6.557 -2.2232 -3.1202  0.4669
18816TIP3   OH277938   5.723   3.665  16.447 -0.2989  0.4090 -0.6568
18816TIP3    H177939   5.649   3.694  16.393 -0.7318  0.3449 -0.1108
18816TIP3    H277940   5.747   3.742  16.497  0.6151  0.6915 -1.4912
18817TIP3   OH277941   3.798   5.755   2.236  0.2847 -0.4451 -0.2200
18817TIP3    H177942   3.765   5.696   2.303 -0.0614 -0.2271 -0.1940
18817TIP3    H277943   3.722   5.807   2.211  0.3752 -0.6458 -0.9088
18818TIP3   OH277944   0.401   6.282   5.650  0.2185  0.2648  0.2114
18818TIP3    H177945   0.388   6.374   5.629 -0.2731  0.3951  1.0285
18818TIP3    H277946   0.462   6.250   5.583  0.6150  1.2473  0.0874
18819TIP3   OH277947   3.050   6.277  13.420 -0.3623 -0.3369 -0.0564
18819TIP3    H177948   2.985   6.293  13.352  0.5274 -0.8076 -1.0589
18819TIP3    H277949   3.028   6.191  13.456 -0.2264 -0.5594 -0.4950
18820TIP3   OH277950   1.485   3.253   2.790  1.1652 -0.0395  0.2807
18820TIP3    H177951   1.407   3.199   2.803  1.1496 -0.0310  0.2243
18820TIP3    H277952   1.475   3.288   2.701  1.5336 -0.5237  0.0493
18821TIP3   OH277953   4.752   3.969   0.764 -0.3996 -0.2745 -0.1798
18821TIP3    H177954   4.744   3.885   0.808 -1.6026 -0.2821 -0.3856
18821TIP3    H277955   4.666   3.984   0.724 -0.0808  0.8575 -0.4841
18822TIP3   OH277956   6.090   0.422   1.358 -0.4727  0.3012 -0.7964
18822TIP3    H177957   6.159   0.487   1.374  0.3584 -0.7272 -0.0589
18822TIP3    H277958   6.092   0.408   1.264  1.3325 -0.7473 -0.6458
18823TIP3   OH277959   5.745   0.183   4.842 -0.1661  0.1836 -0.1527
18823TIP3    H177960   5.770   0.226   4.760  1.6452  0.5597  0.5532
18823TIP3    H277961   5.804   0.219   4.907 -1.7810  0.1117  1.4152
18824TIP3   OH277962   6.195   6.062  12.579 -0.1270  0.3235  0.3381
18824TIP3    H177963   6.234   6.061  12.666 -1.4920 -0.1796  0.9740
18824TIP3    H277964   6.211   5.975  12.544  0.3153  0.4868  0.1296
18825TIP3   OH277965   1.673   0.858  11.369  0.7181 -0.0209 -0.1667
18825TIP3    H177966   1.767   0.841  11.363  1.1214  1.4560  1.0549
18825TIP3    H277967   1.666   0.954  11.364 -0.7177 -0.1120 -0.2560
18826TIP3   OH277968   2.466   1.048   6.193  0.7901  0.2305 -0.1928
18826TIP3    H177969   2.394   1.031   6.253 -2.1786 -0.7172 -3.6557
18826TIP3    H277970   2.531   0.979   6.213  0.7507  0.9304  2.8111
18827TIP3   OH277971   1.219   5.745   4.305  0.3797  0.4059 -0.3458
18827TIP3    H177972   1.312   5.725   4.291  0.2807 -0.5918  0.2683
18827TIP3    H277973   1.191   5.786   4.224  1.9067  2.9174  0.2767
18828TIP3   OH277974   1.922   5.188  15.412 -0.3372 -0.2003  0.1176
18828TIP3    H177975   1.928   5.284  15.410 -0.7236 -0.1825 -0.8711
18828TIP3    H277976   1.838   5.170  15.454  0.0079 -0.1323  0.8623
18829TIP3   OH277977   5.241   1.294  10.961 -0.1186  0.2412 -0.7237
18829TIP3    H177978   5.186   1.370  10.941  0.8544  0.8675 -1.0788
18829TIP3    H277979   5.222   1.232  10.891 -1.7398 -0.3101  0.1686
18830TIP3   OH277980   3.108   4.025   2.920 -0.4795 -0.1533 -0.7729
18830TIP3    H177981   3.121   3.931   2.905  0.4333 -0.2222  0.3032
18830TIP3    H277982   3.190   4.066   2.891 -0.0144  0.0570  0.7333
18831TIP3   OH277983   3.670   0.775  13.761 -0.7015 -0.4551 -0.3448
18831TIP3    H177984   3.649   0.820  13.843 -0.2893  0.4321 -0.7094
18831TIP3    H277985   3.753   0.814  13.733 -0.4947 -1.2373 -0.8354
18832TIP3   OH277986   6.103   4.944  13.207 -0.0423  0.5596  0.5242
18832TIP3    H177987   6.106   5.039  13.195  1.4635  0.6399  1.3088
18832TIP3    H277988   6.046   4.913  13.136 -0.0537  1.9814 -0.1277
18833TIP3   OH277989   4.565   3.949   6.098 -0.4805 -0.6593 -0.2295
18833TIP3    H177990   4.602   3.933   6.185  0.3545  0.4304 -0.3735
18833TIP3    H277991   4.471   3.963   6.114 -0.1551  0.6531  0.6405
18834TIP3   OH277992   4.953   2.071  13.265 -0.7025 -0.0958 -0.7095
18834TIP3    H177993   4.925   2.127  13.193 -1.5195  0.1793 -0.1952
18834TIP3    H277994   5.044   2.049  13.245 -0.4234  1.2781 -1.0015
18835TIP3   OH277995   3.569   2.549  17.110  0.2254  0.1120 -0.1767
18835TIP3    H177996   3.478   2.545  17.140  0.5610  0.6236  0.9638
18835TIP3    H277997   3.618   2.500  17.176  0.6208 -1.4434 -1.5578
18836TIP3   OH277998   2.148   4.196  14.735 -0.6278  0.0388 -0.1634
18836TIP3    H177999   2.083   4.194  14.665 -0.4234 -0.9610 -0.3408
18836TIP3    H278000   2.164   4.103  14.756  0.4347  0.2772  0.1586
18837TIP3   OH278001   4.156   0.821  12.604 -0.0875 -0.0572 -1.0616
18837TIP3    H178002   4.112   0.737  12.618 -1.1774  0.5786 -0.4563
18837TIP3    H278003   4.208   0.834  12.684 -0.4705  0.1616 -0.8460
18838TIP3   OH278004   0.660   5.302   6.137 -0.6373  0.1538 -0.0316
18838TIP3    H178005   0.606   5.380   6.128 -1.8320 -0.6246  0.0594
18838TIP3    H278006   0.628   5.260   6.217 -0.8267 -1.0152 -0.6972
18839TIP3   OH278007   6.817   2.318  15.314  0.7399 -0.2294  0.1074
18839TIP3    H178008   6.742   2.259  15.312  1.1541 -0.8239 -3.7813
18839TIP3    H278009   6.890   2.266  15.281  2.4572  0.9491  1.8165
18840TIP3   OH278010   1.106   3.193  13.826 -0.1848  0.4094 -0.2317
18840TIP3    H178011   1.059   3.242  13.759  0.0769  0.0715 -0.6640
18840TIP3    H278012   1.190   3.172  13.786  0.3421  1.0176  0.5426
18841TIP3   OH278013   4.228   5.675   3.778  0.4560  0.3338 -0.4754
18841TIP3    H178014   4.191   5.685   3.691  3.3599  1.8131 -1.6561
18841TIP3    H278015   4.283   5.597   3.772  1.5614  1.0764 -0.3760
18842TIP3   OH278016   0.517   6.759  14.522  0.2052 -0.3898 -1.0569
18842TIP3    H178017   0.431   6.739  14.486  0.3445 -0.4948 -1.3286
18842TIP3    H278018   0.511   6.733  14.614 -0.2418  0.1543 -0.9273
18843TIP3   OH278019   3.611   1.555   5.308  0.1091  0.1965 -0.4517
18843TIP3    H178020   3.667   1.633   5.303  1.0197 -0.2904  1.2469
18843TIP3    H278021   3.522   1.589   5.315  0.2620  1.0129 -2.0667
18844TIP3   OH278022   4.568   4.345   5.447  0.0875  0.1713 -0.1665
18844TIP3    H178023   4.571   4.419   5.508  1.3795  1.4083 -1.6530
18844TIP3    H278024   4.554   4.269   5.503  0.0729  1.3675  1.5504
18845TIP3   OH278025   1.834   2.273  13.804 -0.2778 -0.6194 -0.0751
18845TIP3    H178026   1.910   2.215  13.792 -0.0039 -0.4421  0.7486
18845TIP3    H278027   1.778   2.226  13.866  0.8892  0.8482  2.2012
18846TIP3   OH278028   5.360   6.249   3.014 -0.2023 -0.6135  0.0620
18846TIP3    H178029   5.427   6.193   2.974 -0.3398 -0.8756  0.1911
18846TIP3    H278030   5.376   6.336   2.978  1.6637 -0.1405  1.8346
18847TIP3   OH278031   0.381   6.463   4.139  0.4573 -0.2861 -0.3063
18847TIP3    H178032   0.329   6.506   4.207  0.1826  0.4406 -0.9547
18847TIP3    H278033   0.326   6.390   4.110  1.0977 -1.3491  1.0775
18848TIP3   OH278034   1.645   2.477  13.380 -0.2136  0.5805 -0.2875
18848TIP3    H178035   1.731   2.447  13.409 -0.6718 -1.8597 -1.2187
18848TIP3    H278036   1.618   2.541  13.446  0.5568 -1.6484  2.3413
18849TIP3   OH278037   3.583   6.764   4.623 -0.1741  0.0087 -0.0144
18849TIP3    H178038   3.658   6.727   4.578  0.7957  1.3841  0.4291
18849TIP3    H278039   3.523   6.791   4.552 -1.4155 -3.2006 -0.3711
18850TIP3   OH278040   2.295   0.284   0.368  0.1033 -0.2142 -0.7771
18850TIP3    H178041   2.358   0.320   0.431 -0.9079 -0.3743  0.3730
18850TIP3    H278042   2.289   0.351   0.300  1.1062  0.0363 -0.6470
18851TIP3   OH278043   0.192   3.136   2.855 -0.4583 -0.0858  0.0502
18851TIP3    H178044   0.187   3.062   2.915 -2.8584 -1.1294 -1.2888
18851TIP3    H278045   0.261   3.113   2.793  1.8904  0.9102  2.1450
18852TIP3   OH278046   6.683   5.790   2.743  0.2892  0.0535 -0.0048
18852TIP3    H178047   6.719   5.832   2.821  0.1445  0.2940 -0.0667
18852TIP3    H278048   6.680   5.859   2.677  0.2849 -0.1157 -0.1854
18853TIP3   OH278049   3.122   2.466  12.999 -0.1854 -0.2914  0.8764
18853TIP3    H178050   3.053   2.529  13.020 -1.6539 -1.1125 -1.0848
18853TIP3    H278051   3.167   2.503  12.924  0.4532 -0.5147  1.1463
18854TIP3   OH278052   3.968   1.676  16.585 -0.6651 -0.0608  0.4903
18854TIP3    H178053   3.892   1.714  16.540  0.5150  0.8576 -0.7944
18854TIP3    H278054   3.957   1.703  16.676 -2.8376 -1.5223  0.7396
18855TIP3   OH278055   3.249   1.645  14.951  0.3931  0.2782  0.3557
18855TIP3    H178056   3.190   1.576  14.921  1.3837 -0.9632  1.1105
18855TIP3    H278057   3.277   1.616  15.038  0.9053  1.6041  0.6515
18856TIP3   OH278058   4.837   4.831  11.757 -0.7924 -0.6719  0.3547
18856TIP3    H178059   4.878   4.759  11.804 -1.7464 -0.6543  1.2458
18856TIP3    H278060   4.744   4.822  11.775 -0.9762  0.5180  0.0998
18857TIP3   OH278061   3.858   4.655  14.239  0.0157 -0.0430  0.3832
18857TIP3    H178062   3.800   4.589  14.278 -1.3496  0.9059  0.0392
18857TIP3    H278063   3.802   4.732  14.229  1.7125  1.3537  1.2743
18858TIP3   OH278064   0.320   1.390   4.042  0.0447 -0.0268  0.1534
18858TIP3    H178065   0.361   1.377   3.957 -1.6278  1.6047 -0.9971
18858TIP3    H278066   0.343   1.480   4.067  2.0787 -1.0668  2.4075
18859TIP3   OH278067   3.199   1.413  12.179 -0.0454 -0.1350 -0.1714
18859TIP3    H178068   3.175   1.473  12.249  0.1401 -1.6034  1.2054
18859TIP3    H278069   3.131   1.425  12.112  0.2466  1.8874 -0.1367
18860TIP3   OH278070   3.201   0.401   4.276  0.0694  0.4708  0.2505
18860TIP3    H178071   3.192   0.360   4.361  0.1126  1.6529  0.8490
18860TIP3    H278072   3.150   0.346   4.216 -0.4785 -0.0201  1.1568
18861TIP3   OH278073   6.253   2.775   1.400 -0.0032  0.4168  0.4952
18861TIP3    H178074   6.327   2.736   1.445  0.5831 -0.1240 -0.8949
18861TIP3    H278075   6.181   2.714   1.415  0.2194  0.1785  0.5985
18862TIP3   OH278076   6.649   6.101   1.784  0.4729  0.8673  0.3046
18862TIP3    H178077   6.657   6.144   1.869  1.7395  1.4981 -0.0999
18862TIP3    H278078   6.712   6.030   1.787  0.0301  0.4603  0.1304
18863TIP3   OH278079   5.275   0.377   3.119  0.0509 -0.3775 -0.3921
18863TIP3    H178080   5.292   0.320   3.194 -0.8668 -0.6328 -0.3633
18863TIP3    H278081   5.358   0.422   3.103  0.8397 -1.8280 -0.5138
18864TIP3   OH278082   1.163   0.908  14.464  0.6386 -0.0375 -0.2304
18864TIP3    H178083   1.252   0.929  14.433  0.4489  1.7002  0.3264
18864TIP3    H278084   1.163   0.812  14.472  2.1080 -0.1646 -1.2816
18865TIP3   OH278085   3.055   4.736  15.079  0.2224  0.2351 -0.0441
18865TIP3    H178086   3.139   4.760  15.119  0.3755 -1.2345  0.5513
18865TIP3    H278087   3.013   4.679  15.142  0.3897 -2.0346 -1.8554
18866TIP3   OH278088   1.151   6.653   5.027 -0.0511 -0.6015 -0.2808
18866TIP3    H178089   1.151   6.748   5.036  1.2055 -0.7173  1.4726
18866TIP3    H278090   1.161   6.637   4.933  3.1268  1.0375 -0.3344
18867TIP3   OH278091   4.683   1.921  12.345 -0.5777  0.0052 -0.7618
18867TIP3    H178092   4.719   1.902  12.259  2.4858  0.2662  0.3425
18867TIP3    H278093   4.670   2.016  12.345 -1.1910 -0.0713 -1.1107
18868TIP3   OH278094   1.371   0.820  14.736  0.0679 -0.0302 -0.2248
18868TIP3    H178095   1.403   0.809  14.646 -1.9752 -1.6596 -0.8424
18868TIP3    H278096   1.281   0.785  14.733 -0.2349  0.3709  2.3422
18869TIP3   OH278097   1.916   1.586  13.691 -0.4020 -0.7813 -0.0495
18869TIP3    H178098   1.990   1.582  13.631 -0.8947 -1.4590 -0.6375
18869TIP3    H278099   1.853   1.524  13.655 -0.3946 -1.8234  1.6097
18870TIP3   OH278100   6.729   2.094  14.938 -0.1786  0.0729  0.4412
18870TIP3    H178101   6.712   2.188  14.934  0.7038  0.2361  0.1435
18870TIP3    H278102   6.824   2.087  14.927  0.4064 -0.5839  4.3128
18871TIP3   OH278103   0.853   2.671  13.369 -0.2492  0.2457  0.2872
18871TIP3    H178104   0.808   2.587  13.372 -0.2428  0.2041 -0.4915
18871TIP3    H278105   0.941   2.650  13.337 -0.3773  0.5914 -0.3083
18872TIP3   OH278106   2.422   4.474   0.073 -0.1115  0.4900  0.3716
18872TIP3    H178107   2.464   4.398   0.114 -0.0407 -0.1249 -0.8014
18872TIP3    H278108   2.439   4.546   0.133  1.4217 -0.0374  0.6149
18873TIP3   OH278109   1.958   2.197  11.595 -0.4639 -0.0556  0.1609
18873TIP3    H178110   1.879   2.169  11.549 -0.8732 -0.5959  1.1681
18873TIP3    H278111   2.023   2.130  11.574 -0.0448  0.7411 -1.2153
18874TIP3   OH278112   5.263   1.162   2.575  0.0003  0.4024  0.1512
18874TIP3    H178113   5.251   1.256   2.563  2.2666  0.7685  0.3133
18874TIP3    H278114   5.308   1.154   2.659 -3.1882 -1.1563  1.9044
18875TIP3   OH278115   6.505   5.663   4.168  0.0117  0.6193  0.2510
18875TIP3    H178116   6.562   5.598   4.209 -0.6396  0.4099  0.8355
18875TIP3    H278117   6.512   5.645   4.075 -1.8617 -1.7688  0.4803
18876TIP3   OH278118   1.868   4.638  13.582  1.0868  0.4044  1.0382
18876TIP3    H178119   1.861   4.589  13.664  1.0918  2.0605  2.0825
18876TIP3    H278120   1.837   4.577  13.515 -0.7129 -0.3886  2.4897
18877TIP3   OH278121   4.671   3.205  13.985 -0.8035 -0.4912  0.1380
18877TIP3    H178122   4.577   3.203  14.002 -0.8909 -1.7834 -0.4107
18877TIP3    H278123   4.679   3.243  13.898 -0.6309  1.9020  1.1211
18878TIP3   OH278124   5.307   6.764   4.365 -0.1802  0.2470  0.2192
18878TIP3    H178125   5.343   6.852   4.358  2.9868 -1.0411 -1.9044
18878TIP3    H278126   5.329   6.735   4.453  2.9244  0.0923 -0.4913
18879TIP3   OH278127   0.815   3.231  13.404 -0.0157  0.1848  0.0019
18879TIP3    H178128   0.798   3.137  13.412  2.2875 -0.4487 -1.3783
18879TIP3    H278129   0.763   3.259  13.329  0.4700 -0.3649 -0.5504
18880TIP3   OH278130   4.445   5.291  16.465 -0.4723  0.0898  0.4718
18880TIP3    H178131   4.402   5.257  16.387 -0.5787 -0.0329  0.5818
18880TIP3    H278132   4.372   5.311  16.525 -0.4829  1.4600  0.0389
18881TIP3   OH278133   5.199   4.194  15.851  0.0523 -0.7322 -0.3832
18881TIP3    H178134   5.233   4.282  15.836  0.8644 -0.8288  0.7260
18881TIP3    H278135   5.238   4.168  15.934 -1.4856 -1.4908  0.1444
18882TIP3   OH278136   3.390   4.289   1.067  0.4729 -0.1490 -0.2054
18882TIP3    H178137   3.485   4.296   1.058  0.5331 -1.3665 -0.6760
18882TIP3    H278138   3.355   4.356   1.008  1.0323  0.2431 -0.0966
18883TIP3   OH278139   4.872   0.242   3.945  0.3169 -0.2477 -0.0671
18883TIP3    H178140   4.957   0.215   3.981 -0.4010  0.2291  2.1766
18883TIP3    H278141   4.852   0.177   3.878  2.2740 -0.5702 -0.4000
18884TIP3   OH278142   4.469   0.126  16.985  0.0681 -0.0682  0.5318
18884TIP3    H178143   4.428   0.202  16.944 -0.9610 -1.0503 -0.3534
18884TIP3    H278144   4.421   0.115  17.067  2.5239  2.2568  2.4545
18885TIP3   OH278145   3.671   6.748  13.856 -0.0685 -0.0361  0.6540
18885TIP3    H178146   3.691   6.794  13.938 -0.8844 -0.3562  1.0372
18885TIP3    H278147   3.730   6.789  13.791 -0.7425  1.5391  0.9856
18886TIP3   OH278148   1.967   6.480  13.677  0.5337  0.5737 -0.1074
18886TIP3    H178149   1.874   6.491  13.696  0.3267 -0.7067 -0.3088
18886TIP3    H278150   2.011   6.504  13.758  0.0734  1.6617 -0.1619
18887TIP3   OH278151   1.490   1.447  15.255  0.0074  0.7547 -0.9154
18887TIP3    H178152   1.484   1.420  15.347  2.2250  1.7570 -0.3980
18887TIP3    H278153   1.520   1.368  15.209  1.1229  0.8366 -0.3588
18888TIP3   OH278154   2.951   1.389   2.056 -0.0880 -0.4140 -0.3991
18888TIP3    H178155   2.908   1.311   2.091 -1.8370  0.4581 -0.4652
18888TIP3    H278156   2.956   1.449   2.131  0.7559 -0.3755 -0.4762
18889TIP3   OH278157   5.224   6.500   2.863  0.5337  0.1077  0.0141
18889TIP3    H178158   5.173   6.458   2.794 -0.7276  0.9653  0.3773
18889TIP3    H278159   5.168   6.496   2.941  0.9498  1.2077  0.3994
18890TIP3   OH278160   0.862   1.344   4.569  0.4916  0.2288 -0.3519
18890TIP3    H178161   0.811   1.287   4.511  1.1875  0.9217 -1.7006
18890TIP3    H278162   0.905   1.284   4.630 -1.0380 -0.4446  0.0954
18891TIP3   OH278163   6.363   3.272   5.973  0.2755  0.1450  0.0884
18891TIP3    H178164   6.292   3.316   6.021 -0.1439  0.3309 -0.6870
18891TIP3    H278165   6.417   3.232   6.041  1.1857  2.5751  0.9202
18892TIP3   OH278166   5.864   4.742  11.575  0.4582 -0.1424  0.2244
18892TIP3    H178167   5.959   4.744  11.565  0.4261  0.6314 -0.0005
18892TIP3    H278168   5.850   4.698  11.659  1.0483  0.4592  0.6540
18893TIP3   OH278169   1.776   4.440   3.214  0.6399  0.2135 -0.0554
18893TIP3    H178170   1.743   4.430   3.303 -1.0204 -1.6241 -0.8088
18893TIP3    H278171   1.871   4.430   3.223  0.4483 -0.5779  1.4271
18894TIP3   OH278172   5.217   0.821   4.935  0.3509 -0.4078 -0.1523
18894TIP3    H178173   5.209   0.777   4.851  0.8948 -0.2512 -0.2915
18894TIP3    H278174   5.164   0.900   4.926  0.4041 -0.3950 -0.3464
18895TIP3   OH278175   5.412   0.761   3.978  0.5374 -0.1495  0.2137
18895TIP3    H178176   5.489   0.747   4.033  0.8152  1.0553  0.1584
18895TIP3    H278177   5.426   0.847   3.937 -1.6484  0.9792  1.5998
18896TIP3   OH278178   6.584   1.278  14.513 -0.0516 -0.0285  0.4938
18896TIP3    H178179   6.664   1.330  14.504  1.1638 -2.0787 -2.1258
18896TIP3    H278180   6.548   1.274  14.425 -1.7175 -1.1675  1.1757
18897TIP3   OH278181   6.037   1.276   0.468 -0.5088 -0.1214 -0.7773
18897TIP3    H178182   6.129   1.292   0.447 -0.3703 -0.9451 -0.8078
18897TIP3    H278183   6.001   1.234   0.390 -0.9349  0.2751 -0.7980
18898TIP3   OH278184   0.505   1.848   3.285 -0.3802 -0.0695  0.2539
18898TIP3    H178185   0.542   1.910   3.222  0.4144 -0.3607  0.4282
18898TIP3    H278186   0.580   1.814   3.333 -0.8714 -0.6942  0.5980
18899TIP3   OH278187   6.518   5.327   4.263  0.0486 -0.3952  0.3649
18899TIP3    H178188   6.503   5.233   4.275 -2.8775 -0.0220  0.2159
18899TIP3    H278189   6.491   5.344   4.173  2.5903  0.2978 -0.3521
18900TIP3   OH278190   3.680   0.809   2.863  0.2941  0.5301 -0.3251
18900TIP3    H178191   3.599   0.860   2.870 -0.9040 -1.2665 -0.5760
18900TIP3    H278192   3.679   0.776   2.773  2.0224  1.5886 -0.7766
18901TIP3   OH278193   3.647   2.530  12.917  0.3643  0.1715 -0.3308
18901TIP3    H178194   3.701   2.584  12.859  2.3061 -1.0367  0.2599
18901TIP3    H278195   3.675   2.441  12.899 -1.1954 -0.4690  0.2938
18902TIP3   OH278196   6.714   3.893   5.308  0.0313  0.1480  0.0317
18902TIP3    H178197   6.653   3.959   5.275  2.3772  2.2269 -0.4737
18902TIP3    H278198   6.744   3.928   5.392 -0.3996 -1.4906  0.9102
18903TIP3   OH278199   0.977   2.322   0.679  0.3901 -0.1106 -0.3876
18903TIP3    H178200   1.065   2.332   0.714 -0.4994 -0.3947  2.1125
18903TIP3    H278201   0.970   2.229   0.658  0.9527  0.0723 -1.4209
18904TIP3   OH278202   0.925   3.448  12.445  0.0392  0.6695 -0.0313
18904TIP3    H178203   0.946   3.406  12.529  1.9081  0.4729 -0.5365
18904TIP3    H278204   0.887   3.377  12.392  1.0412  0.1647 -0.1062
18905TIP3   OH278205   2.067   1.465   1.668 -0.5939  0.0864 -0.3539
18905TIP3    H178206   2.152   1.423   1.655 -0.5088 -0.1460  0.8804
18905TIP3    H278207   2.065   1.536   1.603  1.2438  1.1538  0.7012
18906TIP3   OH278208   2.583   4.791  11.093  0.3629  0.2330  0.2834
18906TIP3    H178209   2.548   4.744  11.018  0.8718 -0.5136  0.5009
18906TIP3    H278210   2.523   4.864  11.106 -0.6362 -0.5415  0.1396
18907TIP3   OH278211   5.880   4.294   2.474 -0.1792  0.2302 -0.2318
18907TIP3    H178212   5.933   4.215   2.471  0.5625  0.7456 -2.4833
18907TIP3    H278213   5.796   4.266   2.509  0.2979 -1.3874 -0.3322
18908TIP3   OH278214   4.168   1.960   5.865 -0.4195  0.2524 -0.4466
18908TIP3    H178215   4.199   1.977   5.954  0.2284  1.8308 -0.9505
18908TIP3    H278216   4.206   2.030   5.812 -1.0093 -0.5084 -1.9311
18909TIP3   OH278217   3.950   1.049   0.246 -0.7390 -0.1287  0.2028
18909TIP3    H178218   3.893   1.056   0.169 -1.5459 -2.2690  0.5245
18909TIP3    H278219   3.941   1.132   0.291 -0.2279  1.2066 -2.0032
18910TIP3   OH278220   5.128   5.373  12.551  0.2621  0.1492 -0.5895
18910TIP3    H178221   5.216   5.398  12.523 -0.0837  2.1408 -0.0392
18910TIP3    H278222   5.069   5.434  12.506 -0.5884  0.7953  1.2661
18911TIP3   OH278223   6.271   4.460   3.036  0.1772  0.0691 -0.0623
18911TIP3    H178224   6.334   4.443   2.967 -1.5048 -1.6863 -1.2580
18911TIP3    H278225   6.299   4.403   3.108  0.4558 -0.0482 -0.2606
18912TIP3   OH278226   6.495   0.788   0.377 -0.1133 -0.2649 -0.7869
18912TIP3    H178227   6.505   0.833   0.294  0.2005  1.8240  0.3213
18912TIP3    H278228   6.401   0.790   0.395 -0.0682  0.2357 -0.5994
18913TIP3   OH278229   6.715   4.310   1.922 -1.0151 -0.0340  0.2308
18913TIP3    H178230   6.687   4.319   1.831 -0.4856 -4.0576 -0.5255
18913TIP3    H278231   6.634   4.299   1.972 -1.3576 -4.3812 -0.8964
18914TIP3   OH278232   5.978   3.297   2.509 -0.0659  0.3953  0.2709
18914TIP3    H178233   6.045   3.263   2.450  0.9671  1.4016  0.8199
18914TIP3    H278234   5.958   3.224   2.568  1.1105  0.3148  0.5827
18915TIP3   OH278235   5.020   3.260  13.834  0.3584  0.0927 -0.0928
18915TIP3    H178236   4.970   3.273  13.915 -0.4120 -0.5400 -0.4527
18915TIP3    H278237   4.954   3.257  13.765  0.9848  0.3067 -0.7122
18916TIP3   OH278238   2.672   5.542  13.372  0.9683 -0.3975 -0.3745
18916TIP3    H178239   2.644   5.627  13.409  0.4686 -0.1707 -1.2513
18916TIP3    H278240   2.633   5.540  13.285  1.7044 -1.1628 -0.6911
18917TIP3   OH278241   0.872   0.656  15.100  0.0904  0.0829  0.4034
18917TIP3    H178242   0.851   0.746  15.124 -1.5212 -0.2345  0.3070
18917TIP3    H278243   0.941   0.630  15.161  2.5858  2.2275 -1.2951
18918TIP3   OH278244   6.236   4.222  12.770  0.7885 -0.8014  0.1321
18918TIP3    H178245   6.239   4.203  12.864 -1.1497  0.5930  0.5464
18918TIP3    H278246   6.212   4.139  12.729  2.0357 -1.5184  0.8024
18919TIP3   OH278247   1.562   6.400  14.499 -0.8553  0.1646  0.1761
18919TIP3    H178248   1.593   6.344  14.428  1.8116  2.2730 -0.4602
18919TIP3    H278249   1.550   6.486  14.459 -2.9088  0.6093  1.5558
18920TIP3   OH278250   0.138   2.230   3.814 -0.0010  0.3082 -0.0539
18920TIP3    H178251   0.057   2.230   3.763  0.7133  0.0128 -1.2158
18920TIP3    H278252   0.141   2.143   3.854 -0.0636  0.1835 -0.3196
18921TIP3   OH278253   5.545   1.957   5.573 -0.5374 -0.2121 -0.1143
18921TIP3    H178254   5.629   1.931   5.534 -0.3834 -1.2066  0.8389
18921TIP3    H278255   5.551   1.927   5.664 -2.1680 -0.8579 -0.1959
18922TIP3   OH278256   0.257   1.599   4.401  0.0128  0.3613  0.5705
18922TIP3    H178257   0.315   1.623   4.329  0.5624  0.7732  1.1449
18922TIP3    H278258   0.169   1.599   4.363  0.4052 -0.5883 -0.3863
18923TIP3   OH278259   6.407   3.623  14.078 -0.1713 -0.3254  0.4838
18923TIP3    H178260   6.409   3.716  14.100 -1.0147 -0.0697 -0.4414
18923TIP3    H278261   6.423   3.578  14.161  0.0293  0.6419  0.9760
18924TIP3   OH278262   5.611   0.711  15.071 -0.3767  0.0678  0.2659
18924TIP3    H178263   5.624   0.805  15.059  1.2964  0.0629  1.6901
18924TIP3    H278264   5.660   0.671  14.999  2.4190  0.2479  1.9294
18925TIP3   OH278265   4.067   6.267  15.154  0.1515 -0.3006 -0.2570
18925TIP3    H178266   4.017   6.349  15.146  0.9412  0.1184 -1.1983
18925TIP3    H278267   4.072   6.250  15.248  0.4512  1.0419 -0.0111
18926TIP3   OH278268   1.016   1.601  10.812 -0.1674  0.4231  0.0373
18926TIP3    H178269   1.048   1.671  10.755  0.3607 -0.0543 -0.2541
18926TIP3    H278270   0.933   1.635  10.847  0.5785  1.6301  0.7202
18927TIP3   OH278271   4.918   3.772  12.514  0.2800 -0.4583 -0.2766
18927TIP3    H178272   4.880   3.713  12.580  0.1637 -0.6212 -0.4875
18927TIP3    H278273   4.890   3.736  12.430 -1.1711  0.7993 -0.3879
18928TIP3   OH278274   0.214   6.374   3.695 -0.4123  0.4701  0.1218
18928TIP3    H178275   0.275   6.316   3.649 -2.2789  0.0004 -1.9606
18928TIP3    H278276   0.143   6.388   3.632 -2.7025  0.5955  2.5784
18929TIP3   OH278277   5.542   5.594   3.968  0.0574  0.2417  0.8586
18929TIP3    H178278   5.456   5.603   3.928  0.3967  1.4655  0.3539
18929TIP3    H278279   5.580   5.681   3.962  1.4782 -0.3623  0.7346
18930TIP3   OH278280   5.544   1.592   1.425 -0.5986  0.1811 -0.1469
18930TIP3    H178281   5.634   1.608   1.452 -1.0009  0.3012  1.2023
18930TIP3    H278282   5.527   1.656   1.356 -0.0344  0.9566  0.4267
18931TIP3   OH278283   1.488   5.179  16.603  0.0009 -1.0033  0.1626
18931TIP3    H178284   1.433   5.231  16.661 -0.0787 -1.4233  0.4711
18931TIP3    H278285   1.482   5.090  16.638  1.6525 -0.8956  0.7894
18932TIP3   OH278286   2.737   0.032  15.934  0.1288  0.4679 -0.5024
18932TIP3    H178287   2.725  -0.057  15.900  0.1371  0.3334 -0.1596
18932TIP3    H278288   2.787   0.020  16.015 -0.8280  0.6841  0.1379
18933TIP3   OH278289   6.663   3.041  14.952  0.1106 -0.0644 -0.1175
18933TIP3    H178290   6.720   3.014  15.024  1.6078 -0.3982 -1.3768
18933TIP3    H278291   6.576   3.014  14.980  1.0093 -2.9148  0.3243
18934TIP3   OH278292   5.677   6.778  16.200  0.8107 -0.3099 -0.3746
18934TIP3    H178293   5.638   6.842  16.141  0.0488 -0.6324 -0.2340
18934TIP3    H278294   5.771   6.788  16.187  0.7836  1.7715  0.6350
18935TIP3   OH278295   1.561   0.238   2.491 -0.4535  0.2698 -0.3347
18935TIP3    H178296   1.471   0.226   2.521 -0.6017  2.2411  0.2187
18935TIP3    H278297   1.555   0.303   2.421  0.3573 -1.0897 -1.7276
18936TIP3   OH278298   5.620   6.759  17.195  0.4449 -0.0993 -0.1069
18936TIP3    H178299   5.696   6.750  17.251  0.5294 -0.1900 -0.2344
18936TIP3    H278300   5.638   6.701  17.121  0.8543  0.8832 -0.7907
18937TIP3   OH278301   1.280   5.662   0.542 -0.2491 -0.5703 -0.6497
18937TIP3    H178302   1.228   5.581   0.544 -0.2423 -0.5770  1.4095
18937TIP3    H278303   1.224   5.725   0.497 -2.4629 -0.4079  2.0183
18938TIP3   OH278304   0.575   4.087   0.375  0.1241  0.3942 -0.3739
18938TIP3    H178305   0.662   4.128   0.385  0.3933 -0.2563 -0.0277
18938TIP3    H278306   0.593   3.993   0.372 -0.7640  0.0921  2.0639
18939TIP3   OH278307   4.351   4.124   3.348 -0.0923  0.2884  0.4136
18939TIP3    H178308   4.315   4.186   3.411  4.2788  1.7211  1.8120
18939TIP3    H278309   4.370   4.046   3.399 -0.9423 -0.3967 -0.2739
18940TIP3   OH278310   1.053   1.819   4.671  0.2204  0.0781  0.0786
18940TIP3    H178311   1.056   1.734   4.626  0.0057  0.6676 -1.0871
18940TIP3    H278312   1.088   1.801   4.758  2.0333 -0.8113 -0.7858
18941TIP3   OH278313   5.388   4.054  16.244 -0.0427 -0.5250  0.5085
18941TIP3    H178314   5.397   4.116  16.172  0.5710 -2.4540 -1.1869
18941TIP3    H278315   5.453   4.082  16.308 -1.3352  1.8652  0.8796
18942TIP3   OH278316   5.399   0.955  11.955 -0.0623  0.2290 -0.3322
18942TIP3    H178317   5.308   0.940  11.978  0.0884  0.2869  0.3129
18942TIP3    H278318   5.425   1.030  12.008  0.8084 -0.7467  0.6603
18943TIP3   OH278319   5.466   1.980   0.232  0.5011  0.5518  0.3038
18943TIP3    H178320   5.393   2.027   0.272  0.1750 -0.6826  1.2200
18943TIP3    H278321   5.502   2.042   0.168 -0.8410  1.4732  0.3942
18944TIP3   OH278322   2.705   1.900  17.121  0.2346  0.6244  0.3964
18944TIP3    H178323   2.650   1.882  17.197 -1.1853  1.2970 -0.4303
18944TIP3    H278324   2.651   1.956  17.066  0.6517 -1.0176 -1.8068
18945TIP3   OH278325   5.131   6.111  12.001 -0.3930  0.2355 -0.2749
18945TIP3    H178326   5.071   6.084  12.071 -0.9338 -1.1319 -1.2328
18945TIP3    H278327   5.202   6.047  12.003 -0.4929  0.0869 -1.0790
18946TIP3   OH278328   0.143   1.438  12.791 -0.4339  0.4571 -0.3588
18946TIP3    H178329   0.171   1.527  12.814  0.2580 -0.6061  3.7766
18946TIP3    H278330   0.222   1.396  12.758  0.3072  0.3895  1.3770
18947TIP3   OH278331   1.190   0.804   4.590 -0.0047  0.3571 -0.5226
18947TIP3    H178332   1.143   0.720   4.590 -0.3836  0.5522  0.3286
18947TIP3    H278333   1.122   0.869   4.576  0.2731  0.5362 -1.0569
18948TIP3   OH278334   4.271   6.195  16.053  0.2301  0.4727  0.5298
18948TIP3    H178335   4.252   6.282  16.018 -0.5640  0.6224  1.2835
18948TIP3    H278336   4.325   6.212  16.130  1.7936  0.1614 -0.4665
18949TIP3   OH278337   4.224   5.024   4.092 -0.5924  0.5969  0.0929
18949TIP3    H178338   4.239   5.117   4.108  1.3328  0.1612  1.0643
18949TIP3    H278339   4.307   4.992   4.056 -0.7997 -0.9792  0.9317
18950TIP3   OH278340   2.283   2.095   4.400  0.3115 -1.1772  0.0459
18950TIP3    H178341   2.313   2.152   4.329  0.9550 -1.8295 -0.2200
18950TIP3    H278342   2.217   2.147   4.446 -0.2702 -0.8172 -1.1488
18951TIP3   OH278343   2.830   4.751  16.931 -0.7923 -0.0268 -0.1062
18951TIP3    H178344   2.924   4.745  16.946 -0.9352  1.5755  1.7753
18951TIP3    H278345   2.822   4.778  16.840  0.6007  0.4911 -0.0990
18952TIP3   OH278346   2.337   4.011   5.603  0.0254  0.5971  0.2110
18952TIP3    H178347   2.283   4.027   5.526  1.2538  1.1773 -0.5704
18952TIP3    H278348   2.298   4.066   5.672 -1.0462  0.1179 -0.0018
18953TIP3   OH278349   4.861   3.786   0.319 -0.1526  0.3055 -0.4931
18953TIP3    H178350   4.777   3.812   0.356 -0.6404  1.5259 -2.2977
18953TIP3    H278351   4.839   3.746   0.235  1.0782  1.3677 -1.3686
18954TIP3   OH278352   1.403   5.436   4.392 -0.6292  0.6103 -0.3642
18954TIP3    H178353   1.465   5.492   4.345 -0.0317  0.6112  0.4040
18954TIP3    H278354   1.454   5.359   4.416 -1.3556 -0.1240 -1.1099
18955TIP3   OH278355   5.630   5.805  16.099 -0.6861 -0.3767 -0.1875
18955TIP3    H178356   5.694   5.824  16.031 -0.0155 -1.1502  0.2205
18955TIP3    H278357   5.603   5.892  16.131 -1.1010 -0.0040 -1.4991
18956TIP3   OH278358   4.513   0.889   5.835 -0.1057 -0.4756  0.2097
18956TIP3    H178359   4.511   0.797   5.808 -0.8938 -0.0397 -1.3406
18956TIP3    H278360   4.458   0.893   5.912 -2.2542 -0.9029 -1.2169
18957TIP3   OH278361   1.229   2.508  16.345 -0.3977  0.6308 -0.8537
18957TIP3    H178362   1.196   2.520  16.434 -0.1850 -2.0669 -0.3156
18957TIP3    H278363   1.317   2.545  16.347 -1.0003  2.1260 -0.4796
18958TIP3   OH278364   0.708   3.875  12.818 -0.3496 -0.4043 -0.1653
18958TIP3    H178365   0.624   3.920  12.809 -0.3555 -0.7629 -2.5472
18958TIP3    H278366   0.735   3.892  12.908 -1.0816  3.1275 -0.4512
18959TIP3   OH278367   2.121   3.240   4.205 -0.0357 -0.5755 -0.3117
18959TIP3    H178368   2.032   3.206   4.215 -0.0707 -0.3791  0.0821
18959TIP3    H278369   2.115   3.303   4.133 -0.9611  1.8459  1.7223
18960TIP3   OH278370   4.754   5.294   4.447 -0.2832  0.3166 -0.0840
18960TIP3    H178371   4.706   5.319   4.369 -1.5744 -2.0960 -0.1666
18960TIP3    H278372   4.799   5.213   4.422 -1.0644 -0.7423  1.7407
18961TIP3   OH278373   5.938   3.798   2.587  0.7633  0.2104  0.5899
18961TIP3    H178374   5.921   3.739   2.661  0.5517 -0.0379  0.3450
18961TIP3    H278375   5.921   3.745   2.510 -0.3379  0.8577  0.3657
18962TIP3   OH278376   4.533   5.204   2.670  0.2866 -0.2281  0.5754
18962TIP3    H178377   4.461   5.147   2.643  0.1045  0.0682  0.4434
18962TIP3    H278378   4.558   5.252   2.591  1.6530 -1.4298  0.2261
18963TIP3   OH278379   6.365   4.782  14.534  0.3221  0.6881 -0.4287
18963TIP3    H178380   6.313   4.750  14.608 -0.0289  1.0224 -0.5301
18963TIP3    H278381   6.443   4.819  14.574 -0.0833  1.2951 -0.1830
18964TIP3   OH278382   3.956   4.207  13.830  0.3788  0.0240  0.0045
18964TIP3    H178383   4.024   4.145  13.804 -0.8476 -0.5079 -2.1763
18964TIP3    H278384   3.999   4.292  13.826  1.3586 -0.4389  0.3240
18965TIP3   OH278385   5.940   5.017   5.086 -0.2301  0.4018 -0.5480
18965TIP3    H178386   5.872   4.950   5.091  0.6463 -0.6242 -1.7160
18965TIP3    H278387   6.020   4.968   5.069  0.6482  1.6706 -0.1915
18966TIP3   OH278388   6.107   5.105   3.788  0.2896  0.0412  0.1517
18966TIP3    H178389   6.173   5.036   3.793 -0.2409 -0.4447  0.6521
18966TIP3    H278390   6.026   5.062   3.817 -0.5678  0.2078 -1.8389
18967TIP3   OH278391   2.001   0.047  15.306  0.3559 -0.4153  0.0529
18967TIP3    H178392   1.968  -0.043  15.299  1.0375 -0.6457 -0.2973
18967TIP3    H278393   1.924   0.099  15.328 -0.0324 -1.0974  0.3464
18968TIP3   OH278394   5.953   5.369  14.427 -0.3898  0.4750 -0.1013
18968TIP3    H178395   5.887   5.428  14.463 -0.0008  1.5667 -1.1228
18968TIP3    H278396   6.023   5.370  14.492 -0.9135  0.1348  0.4822
18969TIP3   OH278397   0.518   4.094   3.722  0.5551 -0.3121 -0.3708
18969TIP3    H178398   0.520   4.090   3.817  0.0853  0.4996 -0.3255
18969TIP3    H278399   0.434   4.054   3.698 -0.3099  1.4044 -0.3244
18970TIP3   OH278400   2.648   1.900   0.773 -0.2242  0.1705 -0.1765
18970TIP3    H178401   2.689   1.980   0.740  1.5341 -0.5796  0.0504
18970TIP3    H278402   2.607   1.860   0.696 -0.3522  0.8415 -0.4613
18971TIP3   OH278403   6.086   4.268  13.635 -0.4180 -0.5334  0.4549
18971TIP3    H178404   6.019   4.261  13.703  0.6012 -3.6200  1.2958
18971TIP3    H278405   6.082   4.184  13.589 -0.3508  1.0633 -2.7047
18972TIP3   OH278406   4.746   0.695  11.764  0.4956 -0.3026  0.1772
18972TIP3    H178407   4.701   0.636  11.704 -0.4072  0.3002  0.2493
18972TIP3    H278408   4.683   0.710  11.834 -0.0205  2.1413 -0.7099
18973TIP3   OH278409   2.719   4.735  14.294 -0.3171  0.0874  0.6421
18973TIP3    H178410   2.716   4.686  14.212  1.3258  0.9730  0.0073
18973TIP3    H278411   2.742   4.670  14.360  0.8398 -0.2242 -0.0325
18974TIP3   OH278412   0.050   5.951   4.410  0.0674 -0.1381  0.0833
18974TIP3    H178413   0.100   5.928   4.488 -0.4313 -0.3898  0.3295
18974TIP3    H278414  -0.041   5.956   4.439 -0.2417 -1.0974 -0.6604
18975TIP3   OH278415   1.027   0.684   2.496 -0.6021 -0.1523 -0.2412
18975TIP3    H178416   1.114   0.679   2.457 -0.5218 -0.0348 -0.0768
18975TIP3    H278417   1.022   0.771   2.534  0.5249 -1.2875  2.8337
18976TIP3   OH278418   0.013   0.669  15.344 -0.4761  0.0015  0.0982
18976TIP3    H178419   0.039   0.706  15.428  1.0461 -0.4724 -0.1244
18976TIP3    H278420   0.066   0.590  15.335  0.2818  0.6436 -1.7995
18977TIP3   OH278421   4.886   6.233  14.167 -0.1534 -0.2126  0.1611
18977TIP3    H178422   4.909   6.303  14.228  2.1830 -0.4180 -0.3823
18977TIP3    H278423   4.952   6.239  14.098 -0.5444 -2.2925 -0.4622
18978TIP3   OH278424   4.703   2.653   2.019 -1.0616  0.2902  0.7720
18978TIP3    H178425   4.684   2.560   2.007 -0.0278  0.1830 -0.1687
18978TIP3    H278426   4.757   2.657   2.098 -1.6018  0.1732  1.1567
18979TIP3   OH278427   1.464   3.089   6.444 -0.3727  0.0923  0.5279
18979TIP3    H178428   1.557   3.069   6.432 -0.6846 -0.3033 -1.6311
18979TIP3    H278429   1.458   3.184   6.430 -0.1187  0.3820  2.1785
18980TIP3   OH278430   4.886   3.441   0.982  0.4958 -0.1817  0.1561
18980TIP3    H178431   4.895   3.359   0.935 -0.0397 -0.9205  1.2942
18980TIP3    H278432   4.793   3.446   1.005  0.5314  0.7146  0.1554
18981TIP3   OH278433   1.017   6.741   2.059 -0.6265 -0.7112 -0.4151
18981TIP3    H178434   1.033   6.682   1.986  0.3665 -0.2969 -0.5518
18981TIP3    H278435   0.970   6.815   2.021 -0.5002 -0.7024 -0.5557
18982TIP3   OH278436   2.625   3.086   2.723  0.0812  0.6407 -0.1703
18982TIP3    H178437   2.551   3.026   2.736 -0.2547  1.2766  0.8899
18982TIP3    H278438   2.699   3.028   2.706 -0.1593 -0.1072  1.2188
18983TIP3   OH278439   0.124   6.399  14.551  0.5258  0.2065 -0.0923
18983TIP3    H178440   0.136   6.494  14.551  2.0219  0.0858  1.8191
18983TIP3    H278441   0.044   6.384  14.601  2.1278  0.3921  2.6835
18984TIP3   OH278442   2.395   4.658   3.509  0.2751 -0.0853 -0.1389
18984TIP3    H178443   2.461   4.647   3.441  0.5531 -0.6594  0.2128
18984TIP3    H278444   2.416   4.742   3.550 -0.1609  0.4773 -1.0390
18985TIP3   OH278445   5.873   4.854  15.072  0.3539  0.2976 -0.0162
18985TIP3    H178446   5.791   4.806  15.087  0.1008  1.1619  1.6295
18985TIP3    H278447   5.848   4.946  15.076  1.4527  0.5745  0.8578
18986TIP3   OH278448   2.558   2.460  11.052  0.2273 -0.3685  0.1721
18986TIP3    H178449   2.620   2.387  11.054 -1.7999 -2.1600  0.9623
18986TIP3    H278450   2.583   2.514  11.127  0.4945 -1.3716  0.8218
18987TIP3   OH278451   4.947   6.554  13.528 -0.3213  0.2607  0.1159
18987TIP3    H178452   4.914   6.557  13.439 -1.8577  1.5099  0.6850
18987TIP3    H278453   4.872   6.529  13.581  0.2506  0.7674  1.1987
18988TIP3   OH278454   3.190   1.572  13.022  0.0615  1.1411  0.3949
18988TIP3    H178455   3.235   1.550  13.104 -0.7727  1.0378  0.8382
18988TIP3    H278456   3.186   1.667  13.021 -0.3561  1.1316  0.7246
18989TIP3   OH278457   0.608   3.947  11.163  0.3971  0.0553  0.6528
18989TIP3    H178458   0.680   3.930  11.224  2.1071 -2.3953 -1.8039
18989TIP3    H278459   0.549   3.873  11.175  0.5839 -0.2730 -0.3660
18990TIP3   OH278460   5.045   6.532   4.873  0.1928  0.3351  0.8806
18990TIP3    H178461   5.049   6.604   4.809  0.2244 -0.3200  0.1295
18990TIP3    H278462   5.031   6.454   4.820  1.2937 -0.3663  1.5761
18991TIP3   OH278463   5.347   3.030  11.049  0.4425  0.2158  0.0326
18991TIP3    H178464   5.356   3.048  10.955  0.2045 -0.4502 -0.1213
18991TIP3    H278465   5.428   3.066  11.088 -0.1049  1.8167 -0.2166
18992TIP3   OH278466   2.303   3.589  13.575  0.1123 -0.1921  0.2649
18992TIP3    H178467   2.217   3.626  13.553 -0.1071 -0.5210  0.5561
18992TIP3    H278468   2.289   3.543  13.658 -0.0628 -2.3966 -0.8985
18993TIP3   OH278469   1.524   3.491   3.996  0.3866  0.3313  0.2358
18993TIP3    H178470   1.537   3.484   3.902 -2.1114 -0.9874 -0.0795
18993TIP3    H278471   1.444   3.443   4.014  1.5640 -0.7919  3.2842
18994TIP3   OH278472   1.814   1.882   6.518 -0.5209 -0.1574  0.0346
18994TIP3    H178473   1.805   1.787   6.514 -0.6632 -0.1054 -1.1292
18994TIP3    H278474   1.890   1.896   6.575  1.2005 -1.0767 -1.8955
18995TIP3   OH278475   4.641   2.446   6.207  0.3620 -0.1144  0.5698
18995TIP3    H178476   4.670   2.356   6.224 -0.2570 -0.5850 -0.7335
18995TIP3    H278477   4.681   2.468   6.123 -0.6889  0.2700  0.1528
18996TIP3   OH278478   2.258   1.449  15.021 -0.2223 -0.1933  0.3404
18996TIP3    H178479   2.190   1.496  14.974 -1.8216 -1.8800  0.8670
18996TIP3    H278480   2.330   1.441  14.958 -0.2688  2.0167 -0.0653
18997TIP3   OH278481   6.177   0.151  11.155  0.3917  0.5187 -0.0198
18997TIP3    H178482   6.254   0.201  11.182  1.0354  0.5725 -1.7980
18997TIP3    H278483   6.196   0.061  11.180  0.8745  0.5974 -0.0970
18998TIP3   OH278484   3.327   5.217   6.188  0.5466 -0.1590 -0.5439
18998TIP3    H178485   3.337   5.131   6.146  0.4670  0.2301 -1.3679
18998TIP3    H278486   3.307   5.196   6.280  1.7089 -1.0206 -0.4485
18999TIP3   OH278487   6.802   2.444  10.841  0.3465  0.2099  0.7942
18999TIP3    H178488   6.850   2.489  10.771 -0.4585 -0.2463 -0.0712
18999TIP3    H278489   6.754   2.375  10.796 -0.1288 -0.1395  1.8204
19000TIP3   OH278490   2.102   1.201   1.036  0.3284 -0.1909  0.1070
19000TIP3    H178491   2.130   1.289   1.012 -0.6102  1.1884  3.4966
19000TIP3    H278492   2.178   1.146   1.018  1.7111  1.6846 -0.0932
19001TIP3   OH278493   2.747   5.355  15.412  0.1366 -0.4714  0.1475
19001TIP3    H178494   2.725   5.362  15.319  0.1939  0.2271  0.1823
19001TIP3    H278495   2.722   5.266  15.436 -0.2944 -0.5111 -0.4313
19002TIP3   OH278496   6.346   1.806   5.469 -0.3708  0.2443  0.1334
19002TIP3    H178497   6.440   1.809   5.486 -0.1803  2.3131 -0.9802
19002TIP3    H278498   6.324   1.713   5.473  2.5155 -0.8402 -3.3344
19003TIP3   OH278499   2.312   4.747  15.119 -0.0567  0.1611  0.2986
19003TIP3    H178500   2.264   4.768  15.199  2.7904  1.2623  1.8722
19003TIP3    H278501   2.328   4.832  15.078  0.6701 -0.1546 -0.0884
19004TIP3   OH278502   5.127   6.111   6.243 -0.3533  0.5161 -0.5190
19004TIP3    H178503   5.191   6.174   6.277 -0.3565  0.3045 -0.1196
19004TIP3    H278504   5.053   6.117   6.303 -0.2005 -0.1418 -0.2498
19005TIP3   OH278505   2.017   5.569   2.825 -0.5827  0.2284 -0.1243
19005TIP3    H178506   1.943   5.608   2.872  0.1409  0.4451  0.8878
19005TIP3    H278507   2.083   5.638   2.823 -0.1155 -0.2173 -0.3139
19006TIP3   OH278508   2.179   3.937   6.091  0.6103  0.2670 -0.0260
19006TIP3    H178509   2.114   3.894   6.035 -0.3228  0.7480  0.6619
19006TIP3    H278510   2.131   3.959   6.171  2.0761 -1.0152  1.2704
19007TIP3   OH278511   1.893   3.369   4.913 -0.4398 -0.0690  0.1352
19007TIP3    H178512   1.898   3.289   4.859  0.6688  0.6012 -0.8018
19007TIP3    H278513   1.807   3.405   4.892 -0.0471  0.1635 -1.2115
19008TIP3   OH278514   1.614   3.590  13.603  0.1604 -0.5335 -0.4557
19008TIP3    H178515   1.592   3.497  13.601 -2.3519 -0.0099 -0.6479
19008TIP3    H278516   1.529   3.635  13.601  1.2955  1.7722 -0.3947
19009TIP3   OH278517   3.912   5.681   5.103  0.8073  0.3824 -0.1221
19009TIP3    H178518   3.867   5.670   5.020  1.2346  1.6058 -0.5300
19009TIP3    H278519   3.842   5.684   5.168  0.2333  2.5741 -0.7833
19010TIP3   OH278520   6.095   0.930  11.596 -0.4534 -0.3678  0.0575
19010TIP3    H178521   6.002   0.926  11.571 -0.4583 -0.3949  0.0799
19010TIP3    H278522   6.096   0.981  11.676 -0.4344 -0.2581 -0.0114
19011TIP3   OH278523   0.916   4.395   0.936 -0.7271  0.0245 -0.3943
19011TIP3    H178524   0.952   4.483   0.948 -0.2459 -0.1246 -0.6957
19011TIP3    H278525   0.828   4.399   0.973 -0.5490  0.5145 -0.0153
19012TIP3   OH278526   4.805   1.430  14.826  0.6821  0.0476  0.4071
19012TIP3    H178527   4.774   1.345  14.794 -0.4247  0.2215  0.9859
19012TIP3    H278528   4.773   1.435  14.916  1.6241  0.6506  0.7263
19013TIP3   OH278529   0.913   2.492   3.179  0.4131  0.1249 -0.1543
19013TIP3    H178530   0.883   2.578   3.147 -0.9485 -0.5743 -0.8539
19013TIP3    H278531   0.904   2.497   3.274 -1.3058  0.2028 -0.2934
19014TIP3   OH278532   1.202   5.970   6.186 -0.3403 -0.2725  0.5921
19014TIP3    H178533   1.147   5.958   6.263 -1.8174  0.3280 -0.3344
19014TIP3    H278534   1.243   6.055   6.198  2.3437 -1.6795  2.4099
19015TIP3   OH278535   1.937   6.312  17.009  0.1805  0.3752 -0.7612
19015TIP3    H178536   1.916   6.218  17.003 -0.2669  0.2142  1.9528
19015TIP3    H278537   1.863   6.356  16.967  0.3484 -0.4692 -1.9887
19016TIP3   OH278538   2.532   3.629  16.001  0.3931 -0.1435 -0.0105
19016TIP3    H178539   2.527   3.550  16.054  0.4816 -1.3269 -1.7175
19016TIP3    H278540   2.582   3.691  16.055  1.1974 -1.5760  0.9415
19017TIP3   OH278541   4.283   1.272  13.964 -0.4750  0.2501 -0.2445
19017TIP3    H178542   4.368   1.282  13.921  0.1709 -0.4535  0.8479
19017TIP3    H278543   4.267   1.356  14.006  0.7156 -0.2858  1.3583
19018TIP3   OH278544   1.700   3.240  16.827  0.0513  0.3126 -0.3128
19018TIP3    H178545   1.738   3.308  16.883 -1.3306  0.0275  1.0208
19018TIP3    H278546   1.654   3.288  16.758 -0.1606  0.7016  0.1010
19019TIP3   OH278547   5.833   5.672   5.014  0.3545  0.3309 -0.0409
19019TIP3    H178548   5.751   5.677   4.964  0.5304  1.2621 -0.2574
19019TIP3    H278549   5.806   5.685   5.104 -0.0342 -1.8868  0.2301
19020TIP3   OH278550   1.757   3.555   3.821 -0.1872 -0.0765 -0.5520
19020TIP3    H178551   1.774   3.499   3.745 -0.2229  1.8209 -2.0423
19020TIP3    H278552   1.830   3.616   3.823 -0.5978  0.4165  0.4725
19021TIP3   OH278553   2.880   1.343  15.060 -0.3594  0.5082  0.5908
19021TIP3    H178554   2.920   1.271  15.108  0.0168 -0.8692 -1.6483
19021TIP3    H278555   2.792   1.312  15.039  0.0395  0.3566 -0.9876
19022TIP3   OH278556   1.092   0.869   5.834  0.3803  0.2989 -0.2946
19022TIP3    H178557   1.084   0.841   5.925  0.6761 -0.0688 -0.3809
19022TIP3    H278558   1.061   0.794   5.783  0.4125  0.4276 -0.5062
19023TIP3   OH278559   4.385   1.574  12.881  0.0336  0.2252 -0.5186
19023TIP3    H178560   4.350   1.591  12.794  0.2915 -1.0953 -0.9008
19023TIP3    H278561   4.310   1.589  12.940 -1.0714 -1.9105 -1.2626
19024TIP3   OH278562   5.326   4.546  15.356  0.2366 -0.2973  0.1267
19024TIP3    H178563   5.352   4.555  15.447 -0.1456 -0.6211  0.2695
19024TIP3    H278564   5.236   4.515  15.359 -0.2447  0.9880 -0.3606
19025TIP3   OH278565   2.321   1.260   1.694 -0.5282  0.1318 -0.0373
19025TIP3    H178566   2.261   1.269   1.768 -0.3013  1.0066  0.0413
19025TIP3    H278567   2.368   1.343   1.690  0.7016 -0.5401 -0.0823
19026TIP3   OH278568   2.351   3.893  11.121 -0.1108  0.1914 -0.0498
19026TIP3    H178569   2.317   3.958  11.060  1.2300  4.1090  2.9055
19026TIP3    H278570   2.446   3.893  11.105  0.0650  0.1145  0.8914
19027TIP3   OH278571   0.871   6.177   1.596 -0.1965 -0.1588  0.0749
19027TIP3    H178572   0.880   6.210   1.506 -0.4758 -0.5091 -0.0812
19027TIP3    H278573   0.807   6.235   1.636  0.3687  0.3740  0.2356
19028TIP3   OH278574   6.425   5.564  16.319 -0.1493 -0.4934 -0.4163
19028TIP3    H178575   6.406   5.656  16.340  0.5506 -0.5636  0.5980
19028TIP3    H278576   6.342   5.519  16.332 -0.0856 -0.2856  0.8650
19029TIP3   OH278577   1.160   5.456   0.388 -0.4121  0.6521  0.3018
19029TIP3    H178578   1.131   5.365   0.396  2.0884 -0.2526 -0.0619
19029TIP3    H278579   1.145   5.477   0.296  1.6808 -0.4599 -0.3576
19030TIP3   OH278580   2.251   5.151   2.910 -0.1583  0.4891 -0.4746
19030TIP3    H178581   2.231   5.072   2.960  1.6958  0.3057  0.0265
19030TIP3    H278582   2.165   5.181   2.879 -1.1572 -0.4933  1.1410
19031TIP3   OH278583   1.999   2.256  10.920  0.1935 -0.4449 -0.4758
19031TIP3    H178584   2.029   2.322  10.982 -0.7341 -0.5738  0.1249
19031TIP3    H278585   2.071   2.247  10.858  1.4673 -0.8233  0.9774
19032TIP3   OH278586   0.680   3.993   5.231  0.1619 -0.0969  0.3771
19032TIP3    H178587   0.595   3.949   5.233  0.3335 -0.5289 -1.0943
19032TIP3    H278588   0.744   3.921   5.234  0.4680  0.1766  0.4868
19033TIP3   OH278589   1.960   4.581  15.836 -0.9616 -0.0234  0.2961
19033TIP3    H178590   1.891   4.519  15.813 -1.2198  0.2157  0.4199
19033TIP3    H278591   2.007   4.596  15.754 -0.8541 -0.4370  0.2824
19034TIP3   OH278592   3.318   0.556   2.114 -0.6689 -0.0090  0.4697
19034TIP3    H178593   3.380   0.554   2.042 -0.4350  1.7066  0.5803
19034TIP3    H278594   3.342   0.481   2.169  2.2290  1.3293  1.2366
19035TIP3   OH278595   0.174   0.116   0.161  0.3785 -0.1905  0.0118
19035TIP3    H178596   0.168   0.141   0.253  2.1525 -0.5639  0.2727
19035TIP3    H278597   0.158   0.022   0.161  0.8625 -0.2798  0.0328
19036TIP3   OH278598   4.831   3.887  14.131 -0.0072  0.3515 -0.9017
19036TIP3    H178599   4.812   3.843  14.048 -0.9024 -0.5386 -0.2550
19036TIP3    H278600   4.769   3.960  14.134  0.1099  0.4595 -1.0629
19037TIP3   OH278601   2.865   1.925   1.917 -0.1717  0.5881  0.7548
19037TIP3    H178602   2.817   1.993   1.966 -0.2541  0.9354  0.2022
19037TIP3    H278603   2.941   1.906   1.972 -1.2753 -0.4720  1.9959
19038TIP3   OH278604   3.711   1.518  15.896  0.1647 -0.4715  0.5378
19038TIP3    H178605   3.801   1.493  15.875 -0.2480 -1.0780 -0.5678
19038TIP3    H278606   3.718   1.605  15.935  0.9935  0.7271 -2.1025
19039TIP3   OH278607   3.213   4.842   4.716 -0.3749 -1.1238  0.0862
19039TIP3    H178608   3.259   4.777   4.770 -0.1198 -0.0362  1.2113
19039TIP3    H278609   3.153   4.885   4.776 -1.2702 -0.9866 -0.8836
19040TIP3   OH278610   6.154   3.353  14.157 -0.2581  0.5236  0.4098
19040TIP3    H178611   6.206   3.284  14.116  0.8668  0.7176  1.4571
19040TIP3    H278612   6.064   3.320  14.153 -0.4905  1.1608 -3.4529
19041TIP3   OH278613   3.764   4.524  15.581  0.2754  0.1203  0.2223
19041TIP3    H178614   3.767   4.619  15.572  1.8398  0.0501 -0.4365
19041TIP3    H278615   3.805   4.491  15.500 -2.1004 -1.2044 -0.5496
19042TIP3   OH278616   4.549   0.910  14.373  0.1871  0.3007 -0.0415
19042TIP3    H178617   4.598   0.905  14.290  1.0349 -1.0877  0.5058
19042TIP3    H278618   4.460   0.931  14.346  0.7394  1.3470 -1.1906
19043TIP3   OH278619   6.324   5.812  13.289 -0.2379  0.0888 -0.1861
19043TIP3    H178620   6.279   5.816  13.373  3.2531 -1.4458  1.9407
19043TIP3    H278621   6.355   5.901  13.274  0.9655 -0.0356  1.3401
19044TIP3   OH278622   1.559   5.631   1.701 -0.5553 -0.5512 -0.0024
19044TIP3    H178623   1.652   5.627   1.680 -0.3082 -0.5476  1.0163
19044TIP3    H278624   1.554   5.596   1.791 -1.3297  0.8795  0.5421
19045TIP3   OH278625   4.550   2.679   0.035 -0.1480 -0.1886  0.0728
19045TIP3    H178626   4.634   2.657   0.074  0.0189 -1.6607 -1.0496
19045TIP3    H278627   4.485   2.639   0.093  0.1229 -3.0709 -1.4355
19046TIP3   OH278628   5.355   1.485  14.677  0.3347  0.2210  0.6643
19046TIP3    H178629   5.405   1.513  14.754  1.2805 -2.7277  1.2591
19046TIP3    H278630   5.263   1.498  14.702  0.6831  2.1430  1.0561
19047TIP3   OH278631   0.276   1.300  13.143  0.3267  0.1982 -0.0869
19047TIP3    H178632   0.253   1.208  13.154  2.2280 -0.6955 -2.4937
19047TIP3    H278633   0.343   1.316  13.210  3.3807 -1.6834 -2.3943
19048TIP3   OH278634   5.716   3.473  14.911  0.4150  0.6468  0.1795
19048TIP3    H178635   5.699   3.562  14.941 -0.2944  0.6276 -0.1437
19048TIP3    H278636   5.630   3.430  14.914  0.4675  0.4168 -1.1135
19049TIP3   OH278637   6.130   6.129  15.418  0.0514 -0.2581 -0.2028
19049TIP3    H178638   6.203   6.074  15.391  0.4513 -0.1688  0.6579
19049TIP3    H278639   6.130   6.202  15.357 -1.4857 -1.9714 -2.4112
19050TIP3   OH278640   4.699   1.468  12.223 -0.5847  0.4790 -0.2748
19050TIP3    H178641   4.653   1.435  12.300 -1.1650  1.7955 -0.0141
19050TIP3    H278642   4.792   1.455  12.243 -0.7908 -2.1702 -0.7884
19051TIP3   OH278643   3.483   4.509  12.975  0.1419  0.5740 -0.3266
19051TIP3    H178644   3.457   4.468  13.057  1.2873  0.8264  0.1901
19051TIP3    H278645   3.456   4.600  12.985  0.8623  0.7537  0.0566
19052TIP3   OH278646   0.436   6.385   4.538 -0.3160 -0.4297 -0.0045
19052TIP3    H178647   0.422   6.377   4.633  1.1009 -2.2167  0.1146
19052TIP3    H278648   0.512   6.443   4.530 -1.0380  0.5302 -0.1321
19053TIP3   OH278649   2.958   5.878  11.472 -0.4290  0.1642  0.3097
19053TIP3    H178650   3.043   5.855  11.435  1.1188  0.6700  3.2531
19053TIP3    H278651   2.926   5.950  11.417  0.2316 -1.0677 -1.7961
19054TIP3   OH278652   1.600   5.864  14.363 -0.0098  0.3045  0.1088
19054TIP3    H178653   1.635   5.795  14.307  0.3369  1.8154 -1.6623
19054TIP3    H278654   1.671   5.887  14.422  0.6779  0.6897 -0.8473
19055TIP3   OH278655   2.616   2.780   5.266 -0.4316  0.2763 -0.5452
19055TIP3    H178656   2.699   2.827   5.259 -0.1330 -0.4638 -2.4691
19055TIP3    H278657   2.619   2.738   5.352  0.6267  1.2641 -0.0793
19056TIP3   OH278658   3.647   5.977  15.554  0.8348  0.0957 -0.5237
19056TIP3    H178659   3.601   5.898  15.583  0.2902  0.6730  0.2202
19056TIP3    H278660   3.696   5.949  15.476 -1.9364 -0.2001 -2.2896
19057TIP3   OH278661   1.407   0.201   3.821  0.0605  0.1701 -0.0826
19057TIP3    H178662   1.398   0.281   3.769  0.3356  1.0556  1.1793
19057TIP3    H278663   1.372   0.225   3.907 -1.2525 -1.5339 -0.0978
19058TIP3   OH278664   3.617   0.981  15.491 -0.2427 -0.4082 -0.0044
19058TIP3    H178665   3.546   0.997  15.553 -0.1372 -4.2266  1.4000
19058TIP3    H278666   3.696   0.975  15.546  1.1138  2.6291 -1.4074
19059TIP3   OH278667   0.931   1.818  12.754  0.4341  0.1152  0.5639
19059TIP3    H178668   0.927   1.723  12.744  3.3325 -0.2586  1.7579
19059TIP3    H278669   0.840   1.845  12.767 -0.3749 -2.6361  1.3130
19060TIP3   OH278670   5.711   2.344  12.368  1.2899 -0.3553 -0.0275
19060TIP3    H178671   5.696   2.433  12.333  0.7514 -0.5773 -0.3771
19060TIP3    H278672   5.722   2.290  12.290  0.3999 -0.8028  0.1407
19061TIP3   OH278673   4.542   2.346   5.887 -0.0262  0.7760 -0.1171
19061TIP3    H178674   4.505   2.434   5.895 -0.9929  0.2895  1.3422
19061TIP3    H278675   4.611   2.343   5.953 -0.6132  0.1768  0.4932
19062TIP3   OH278676   5.294   3.232   1.082  0.2943  0.2497  0.1228
19062TIP3    H178677   5.383   3.246   1.050  0.7296 -1.6349  0.3688
19062TIP3    H278678   5.247   3.193   1.008  0.0190  0.0868  0.3794
19063TIP3   OH278679   1.225   3.972  12.766 -0.0331  0.2860 -0.4104
19063TIP3    H178680   1.295   3.985  12.701  1.9505 -0.8186  1.4046
19063TIP3    H278681   1.153   3.936  12.715  0.8087  1.0851 -2.2990
19064TIP3   OH278682   5.641   5.213   2.482 -1.0515  0.8818 -0.1386
19064TIP3    H178683   5.586   5.192   2.406  0.3449 -0.3651 -0.8567
19064TIP3    H278684   5.730   5.198   2.451 -0.4124  1.0031  1.5631
19065TIP3   OH278685   5.604   0.591  13.839  0.3719 -0.4539 -0.3568
19065TIP3    H178686   5.615   0.609  13.746  1.0596 -0.5368 -0.2948
19065TIP3    H278687   5.687   0.618  13.879 -0.1052  0.0805  0.3052
19066TIP3   OH278688   1.441   4.888   3.770  0.5113 -0.1758  0.1805
19066TIP3    H178689   1.461   4.801   3.805  2.6596  0.7911  1.5416
19066TIP3    H278690   1.356   4.910   3.807 -1.8063 -2.9350 -2.8174
19067TIP3   OH278691   1.641   5.586  16.714 -0.0606 -1.5948  0.0851
19067TIP3    H178692   1.726   5.581  16.757 -0.8226  1.2150  2.1453
19067TIP3    H278693   1.581   5.544  16.775 -0.6854 -0.3479  0.3476
19068TIP3   OH278694   1.258   0.117  14.163  0.2526 -0.9627  0.6314
19068TIP3    H178695   1.269   0.171  14.242 -1.6316  0.8244 -0.2501
19068TIP3    H278696   1.341   0.127  14.116 -0.2356  1.7942  0.1817
19069TIP3   OH278697   0.477   4.665   1.765  0.0626 -0.8214 -0.2767
19069TIP3    H178698   0.542   4.622   1.708  0.1915 -0.0316 -0.7334
19069TIP3    H278699   0.499   4.758   1.760 -1.1810 -0.5304 -0.5279
19070TIP3   OH278700   5.203   0.678   0.811  0.5106  0.1272  1.0309
19070TIP3    H178701   5.281   0.623   0.808  0.5445  0.2223 -1.5901
19070TIP3    H278702   5.229   0.760   0.768 -1.1554 -0.0538 -0.4102
19071TIP3   OH278703   1.181   4.727  10.835 -0.4040 -0.2465  0.1577
19071TIP3    H178704   1.205   4.806  10.786 -0.3394  1.5613  2.8668
19071TIP3    H278705   1.264   4.695  10.870 -0.4859 -1.3421 -0.5958
19072TIP3   OH278706   2.855   6.747  15.314 -0.2335  0.3748  0.0957
19072TIP3    H178707   2.910   6.740  15.391  0.0864 -0.6651 -0.2104
19072TIP3    H278708   2.809   6.830  15.324  0.0099  0.3763  1.2579
19073TIP3   OH278709   5.193   5.327  16.922 -0.2765 -0.0447  0.0834
19073TIP3    H178710   5.139   5.249  16.920  0.4720 -0.5762 -2.0102
19073TIP3    H278711   5.153   5.386  16.857 -0.2087  0.8826  0.8562
19074TIP3   OH278712   1.983   5.579   3.912 -0.6838  0.3812  0.3064
19074TIP3    H178713   2.050   5.529   3.865 -2.2490 -1.3377 -0.2394
19074TIP3    H278714   1.955   5.521   3.983 -3.0449  0.0869 -0.7642
19075TIP3   OH278715   6.627   3.193  16.326  0.5705  0.1135 -0.2746
19075TIP3    H178716   6.700   3.143  16.363  1.4995  1.1974 -0.5599
19075TIP3    H278717   6.661   3.282  16.319 -0.9453  0.7453 -0.0068
19076TIP3   OH278718   3.925   4.240  13.529 -0.3109 -0.6532 -0.2103
19076TIP3    H178719   3.974   4.206  13.454  1.3429  2.3191 -0.6145
19076TIP3    H278720   3.968   4.200  13.605  1.6952  0.4823 -0.6592
19077TIP3   OH278721   3.047   2.162   3.052  0.4348 -0.2275  0.5295
19077TIP3    H178722   3.032   2.112   3.132  2.3755 -1.9151 -0.0448
19077TIP3    H278723   3.043   2.096   2.982  2.0601  0.5580 -0.3730
19078TIP3   OH278724   4.025   0.269   4.605  0.0470  0.0899  0.3909
19078TIP3    H178725   3.940   0.231   4.584 -0.1873 -0.3105  1.9214
19078TIP3    H278726   4.043   0.329   4.533 -0.4348 -1.5196 -1.1394
19079TIP3   OH278727   4.889   3.977   6.127  0.2334 -0.9418 -0.1983
19079TIP3    H178728   4.844   3.924   6.193  1.6097 -2.1704 -0.1706
19079TIP3    H278729   4.981   3.976   6.155  0.2862  1.7681 -0.0346
19080TIP3   OH278730   4.745   6.617  13.338 -0.3905 -0.7875  0.2216
19080TIP3    H178731   4.670   6.570  13.374 -1.1023  1.1621  1.4872
19080TIP3    H278732   4.725   6.627  13.245 -2.1029  0.3180  0.6722
19081TIP3   OH278733   3.994   3.450  12.194 -0.1261 -1.1659 -0.3478
19081TIP3    H178734   4.031   3.483  12.112 -0.6287 -0.2368 -0.2153
19081TIP3    H278735   3.910   3.412  12.169 -1.0094  0.4936 -0.0933
19082TIP3   OH278736   4.778   2.608  12.048  0.1905  0.5108  0.0087
19082TIP3    H178737   4.724   2.672  12.002 -1.9592 -0.6854  0.7171
19082TIP3    H278738   4.772   2.529  11.994  1.1873  0.3257  0.1533
19083TIP3   OH278739   4.470   2.095   5.153  0.4667 -0.0898  0.1124
19083TIP3    H178740   4.495   2.062   5.067  1.5166  0.6653  0.1053
19083TIP3    H278741   4.512   2.181   5.158  0.5161 -0.1780  1.4238
19084TIP3   OH278742   5.444   6.129  11.912  0.4175 -0.6009 -0.6180
19084TIP3    H178743   5.449   6.183  11.833  0.6287 -1.8105 -1.4555
19084TIP3    H278744   5.421   6.191  11.981 -2.9516  0.1159 -2.1181
19085TIP3   OH278745   4.752   4.315  14.025  0.0817 -0.3281 -0.3312
19085TIP3    H178746   4.702   4.246  14.068  1.5820 -0.2845  1.6340
19085TIP3    H278747   4.691   4.389  14.018 -0.7723 -0.9946 -0.0395
19086TIP3   OH278748   0.496   6.154  11.168 -0.2315  0.4745 -0.2747
19086TIP3    H178749   0.492   6.127  11.260 -1.2357 -0.2521 -0.5125
19086TIP3    H278750   0.451   6.239  11.166  0.6824  0.9827  0.0552
19087TIP3   OH278751   3.198   4.277   6.395  0.4061 -0.0081  0.4514
19087TIP3    H178752   3.156   4.316   6.472  1.2100  0.1991  0.7942
19087TIP3    H278753   3.291   4.291   6.409  0.5424  0.4433 -0.7875
19088TIP3   OH278754   3.642   2.845   1.884 -0.2035  0.1342 -0.2001
19088TIP3    H178755   3.672   2.936   1.879  2.2867 -0.5918  0.2299
19088TIP3    H278756   3.669   2.807   1.801  0.8122 -0.7670  0.5308
19089TIP3   OH278757   2.016   0.044   0.304  0.2584 -0.2158  0.4465
19089TIP3    H178758   1.996   0.041   0.211 -0.3161  0.5275  0.5312
19089TIP3    H278759   2.061  -0.039   0.322 -1.8112 -1.5461 -0.0076
19090TIP3   OH278760   4.112   2.570  14.653  0.0135 -0.2341 -0.5596
19090TIP3    H178761   4.128   2.506  14.723 -1.1640 -1.1801 -1.1205
19090TIP3    H278762   4.184   2.557  14.592  0.2331 -0.4500 -0.2619
19091TIP3   OH278763   3.419   3.656   2.801 -0.1475 -0.5934 -0.5791
19091TIP3    H178764   3.462   3.571   2.807  2.8677  0.8887  0.6372
19091TIP3    H278765   3.490   3.720   2.803 -2.3627  2.1409  2.7977
19092TIP3   OH278766   0.698   2.142   4.549 -0.0101  0.5371 -0.5482
19092TIP3    H178767   0.691   2.211   4.616  2.0711  0.6577 -0.3802
19092TIP3    H278768   0.636   2.075   4.576 -1.7475  2.1281 -0.4526
19093TIP3   OH278769   5.052   0.463   1.062 -0.5363  0.1274  0.1286
19093TIP3    H178770   5.029   0.373   1.085  0.4398 -0.1860 -0.0447
19093TIP3    H278771   5.147   0.467   1.074 -0.4361  0.8610 -0.7787
19094TIP3   OH278772   3.705   1.797  16.687  0.2852 -0.0837  0.0106
19094TIP3    H178773   3.697   1.797  16.592  2.3328  0.0721 -0.1980
19094TIP3    H278774   3.719   1.889  16.710  0.6882 -0.2293  0.3691
19095TIP3   OH278775   3.343   5.095   2.586  0.5912 -0.7730  0.1663
19095TIP3    H178776   3.299   5.024   2.539  1.3414 -1.0797 -0.0873
19095TIP3    H278777   3.436   5.081   2.568  0.6816  1.1640 -1.1798
19096TIP3   OH278778   4.315   1.003  13.139 -0.6120  0.0916 -0.7953
19096TIP3    H178779   4.353   1.046  13.063 -0.1652 -0.4644 -0.8983
19096TIP3    H278780   4.348   1.053  13.214 -0.9535  0.5642 -0.9635
19097TIP3   OH278781   5.224   6.096   1.222  0.1992  0.0445 -0.0842
19097TIP3    H178782   5.193   6.005   1.224  2.9020 -0.9513  1.3796
19097TIP3    H278783   5.201   6.130   1.308  0.7324  0.1599  0.0161
19098TIP3   OH278784   4.720   3.820  11.291  0.2143  0.6590  0.4629
19098TIP3    H178785   4.760   3.883  11.350 -0.6797  1.0366  0.6828
19098TIP3    H278786   4.793   3.784  11.241  1.0427  0.0238  2.0732
19099TIP3   OH278787   3.186   1.838  12.954  0.0287 -0.8015 -0.0988
19099TIP3    H178788   3.249   1.870  12.890  0.2244 -1.6075 -0.3306
19099TIP3    H278789   3.185   1.904  13.023 -0.2951  0.1526 -0.9991
19100TIP3   OH278790   4.039   4.924  12.907  0.2956 -0.2122  0.0935
19100TIP3    H178791   4.003   4.990  12.966  0.3675 -1.0503  1.0912
19100TIP3    H278792   3.963   4.875  12.876  0.1533  0.8064 -1.2766
19101TIP3   OH278793   1.013   4.235  13.450  0.1583  0.0651 -0.4680
19101TIP3    H178794   1.062   4.309  13.414 -1.6480  2.3544  1.4156
19101TIP3    H278795   1.059   4.214  13.532 -1.7664  2.2466  1.3246
19102TIP3   OH278796   6.526   4.149   3.587 -0.5730 -0.1544 -0.3071
19102TIP3    H178797   6.441   4.108   3.572 -0.6261  0.3386 -1.3728
19102TIP3    H278798   6.539   4.208   3.513  1.4882 -1.5229 -1.1371
19103TIP3   OH278799   4.905   4.137   5.332 -0.4152 -0.1661  0.2002
19103TIP3    H178800   4.829   4.097   5.375 -0.0265 -1.8028 -0.5648
19103TIP3    H278801   4.947   4.189   5.400 -2.8291  1.7258  0.3706
19104TIP3   OH278802   5.812   3.117   1.205 -0.7826 -0.5007 -0.6037
19104TIP3    H178803   5.811   3.021   1.209  1.2538 -0.5531  2.4229
19104TIP3    H278804   5.784   3.144   1.292  0.8529  1.5628 -0.6426
19105TIP3   OH278805   1.612   3.329   4.233 -0.3169  0.0998  0.0362
19105TIP3    H178806   1.636   3.377   4.154 -1.0474 -0.5305 -0.5755
19105TIP3    H278807   1.610   3.396   4.302  1.2640  0.4998 -0.2595
19106TIP3   OH278808   2.442   0.749  17.165 -0.5832  0.0504  1.1013
19106TIP3    H178809   2.401   0.822  17.212  0.3518 -0.4772  2.8207
19106TIP3    H278810   2.491   0.702  17.232 -0.1725 -1.4682 -0.2062
19107TIP3   OH278811   5.471   4.673  11.248  0.2502 -0.2028 -0.2139
19107TIP3    H178812   5.426   4.697  11.329 -0.0362  2.6222 -1.0816
19107TIP3    H278813   5.558   4.713  11.256  0.3460 -0.1991 -1.1154
19108TIP3   OH278814   4.478   3.022  16.191  0.2084  0.4922  0.6817
19108TIP3    H178815   4.447   3.010  16.101 -0.8599 -1.4265  1.2463
19108TIP3    H278816   4.561   3.069  16.182  1.0525 -1.2452 -1.4635
19109TIP3   OH278817   1.032   4.047   5.608  0.3600  0.1440 -0.4957
19109TIP3    H178818   1.073   3.961   5.608  0.0196 -0.0498  0.8459
19109TIP3    H278819   0.945   4.032   5.573  0.0880 -0.1874  0.2983
19110TIP3   OH278820   6.065   2.275   3.232 -0.0442 -0.5305  0.0206
19110TIP3    H178821   6.079   2.369   3.226  1.3788 -0.6407  1.0626
19110TIP3    H278822   6.072   2.255   3.326 -0.3761 -1.6658 -0.1738
19111TIP3   OH278823   6.798   1.310   3.469  0.4331  0.0333 -0.1078
19111TIP3    H178824   6.822   1.315   3.377 -0.7800  1.1544 -0.3862
19111TIP3    H278825   6.798   1.217   3.489  0.0404 -0.2653 -1.4257
19112TIP3   OH278826   2.684   5.871   0.911 -0.6851 -0.4476  0.1305
19112TIP3    H178827   2.746   5.874   0.984  0.1914 -0.0929 -0.6126
19112TIP3    H278828   2.666   5.778   0.898  1.5051 -0.7634 -1.1189
19113TIP3   OH278829   1.034   0.669  12.563  0.1072  0.0529 -0.0961
19113TIP3    H178830   1.015   0.741  12.504  1.3807  0.2729 -0.2625
19113TIP3    H278831   1.023   0.590  12.509  3.1556  0.3059 -1.2758
19114TIP3   OH278832   2.393   1.277  13.160 -0.3162  0.0375  0.4608
19114TIP3    H178833   2.438   1.361  13.157 -1.0046  0.4422  1.0980
19114TIP3    H278834   2.414   1.242  13.246  1.8123 -1.5188 -0.6102
19115TIP3   OH278835   2.891   1.906  11.983  0.2320  0.4412  0.0034
19115TIP3    H178836   2.839   1.963  12.040  1.6196 -0.0544  1.8279
19115TIP3    H278837   2.831   1.886  11.911 -1.8718  0.4985  1.6156
19116TIP3   OH278838   0.124   5.003   2.774  1.3047 -0.4400 -0.4044
19116TIP3    H178839   0.118   4.969   2.685 -2.2189  0.2739 -0.6130
19116TIP3    H278840   0.137   4.925   2.828  0.9609 -1.2133 -1.3971
19117TIP3   OH278841   5.153   1.768  12.821 -0.5179 -0.3576 -0.1043
19117TIP3    H178842   5.078   1.708  12.823  0.7566 -2.0240  0.2934
19117TIP3    H278843   5.203   1.740  12.744  0.0720  0.2359  0.0584
19118TIP3   OH278844   3.462   6.330   2.194 -0.0870 -0.3156  0.4723
19118TIP3    H178845   3.443   6.247   2.238  1.2436 -0.9086 -0.0194
19118TIP3    H278846   3.400   6.333   2.121 -0.3710 -0.7135  0.6920
19119TIP3   OH278847   2.040   3.663   2.377 -0.6190  0.0306 -0.0394
19119TIP3    H178848   2.093   3.742   2.367  0.2452 -0.6468 -1.1352
19119TIP3    H278849   2.062   3.629   2.464  0.5733 -0.0931 -0.3738
19120TIP3   OH278850   6.049   4.365   6.396  0.1734 -0.4910 -0.3506
19120TIP3    H178851   6.100   4.310   6.455  0.7578 -0.5666 -0.9212
19120TIP3    H278852   6.101   4.444   6.385 -0.4586 -0.0017  0.1114
19121TIP3   OH278853   0.858   1.865   2.775 -0.4622  0.0280  0.1284
19121TIP3    H178854   0.946   1.826   2.779  0.5235  1.8276 -1.8881
19121TIP3    H278855   0.827   1.844   2.687 -0.3313  2.7287 -0.6462
19122TIP3   OH278856   6.145   3.686  12.721  0.0720  0.2534  0.4027
19122TIP3    H178857   6.238   3.683  12.742  0.0562 -1.1255  0.3541
19122TIP3    H278858   6.133   3.771  12.678  1.5940 -0.1414 -0.9016
19123TIP3   OH278859   1.826   2.405  15.398  0.3460  0.2747 -0.5226
19123TIP3    H178860   1.912   2.410  15.355  1.2981  1.5813  1.4037
19123TIP3    H278861   1.844   2.364  15.482 -0.1163  3.9213  1.5421
19124TIP3   OH278862   1.102   3.937  15.292 -0.5708  0.6398  0.1292
19124TIP3    H178863   1.035   4.006  15.290 -0.3313  0.9581  1.5480
19124TIP3    H278864   1.064   3.869  15.348 -0.2458  0.2285 -0.1473
19125TIP3   OH278865   3.758   3.289   1.222  0.4204 -0.4728 -0.4180
19125TIP3    H178866   3.725   3.216   1.274  1.1213 -0.5995 -0.1296
19125TIP3    H278867   3.817   3.248   1.158 -0.8389 -0.3759 -1.6747
19126TIP3   OH278868   1.158   4.591  16.254  0.8557 -0.6061 -0.1197
19126TIP3    H178869   1.251   4.595  16.233  0.3696  0.5193 -2.2969
19126TIP3    H278870   1.115   4.571  16.171 -0.8960 -0.8338  0.7834
19127TIP3   OH278871   1.945   3.274  11.057 -0.1226  0.6732  0.1513
19127TIP3    H178872   1.944   3.179  11.049  0.8180  0.6632  0.0243
19127TIP3    H278873   1.869   3.303  11.007 -0.1246  0.0167 -0.2376
19128TIP3   OH278874   6.442   3.592   6.371 -0.1353 -0.5818 -0.4927
19128TIP3    H178875   6.505   3.522   6.357 -0.1459 -0.7416  0.2046
19128TIP3    H278876   6.356   3.550   6.361 -0.1991 -1.1371  1.7236
19129TIP3   OH278877   2.103   6.667  16.452  0.6105  0.6045  0.5102
19129TIP3    H178878   2.045   6.672  16.376 -0.2885  3.3071  1.2711
19129TIP3    H278879   2.187   6.637  16.416  0.0670  1.2888 -1.4562
19130TIP3   OH278880   5.114   6.224   5.068 -0.1135 -0.6331 -0.6456
19130TIP3    H178881   5.038   6.174   5.037  0.2109 -1.4515 -0.1622
19130TIP3    H278882   5.076   6.294   5.122 -0.7369  1.2369 -3.3106
19131TIP3   OH278883   6.058   1.557   5.075  0.2875  0.5131 -0.3087
19131TIP3    H178884   6.125   1.549   5.008  2.6979  0.7311  1.9357
19131TIP3    H278885   6.056   1.472   5.118 -1.5084  0.2467 -0.8271
19132TIP3   OH278886   0.884   2.810   6.405 -0.4113 -0.0895 -0.5220
19132TIP3    H178887   0.812   2.779   6.459 -2.6181  0.8177 -2.7697
19132TIP3    H278888   0.892   2.903   6.427 -0.6819  0.0663 -1.0822
19133TIP3   OH278889   5.775   6.579  11.334  0.0303  0.2275 -0.0409
19133TIP3    H178890   5.690   6.587  11.377  0.7815 -0.8228  1.7508
19133TIP3    H278891   5.785   6.485  11.319  0.8628  0.3479 -0.2617
19134TIP3   OH278892   3.077   0.871   1.725  0.0747 -0.1721 -0.3474
19134TIP3    H178893   3.106   0.781   1.711 -0.8919 -0.5871  0.2275
19134TIP3    H278894   3.000   0.880   1.669 -0.2432  0.0760  0.1239
19135TIP3   OH278895   4.054   2.980  16.846 -0.1369  0.0434 -0.0588
19135TIP3    H178896   4.033   3.074  16.849  0.4902  0.1965 -0.2228
19135TIP3    H278897   4.018   2.944  16.926  0.7429  0.6760  0.6470
19136TIP3   OH278898   4.160   0.635  11.833  0.3063  0.1880  0.1392
19136TIP3    H178899   4.242   0.602  11.795  0.6053  0.1462  0.7990
19136TIP3    H278900   4.165   0.610  11.926 -0.7563 -0.3968  0.0527
19137TIP3   OH278901   0.207   6.781  11.044 -0.2596 -0.3728 -0.1425
19137TIP3    H178902   0.220   6.751  11.134  0.4215 -0.3653 -0.2349
19137TIP3    H278903   0.266   6.856  11.035 -0.8924  0.1059 -0.3569
19138TIP3   OH278904   1.753   2.019   5.495  0.3006 -0.0853 -0.7389
19138TIP3    H178905   1.771   2.066   5.576 -3.6136  0.4961 -0.0138
19138TIP3    H278906   1.748   2.087   5.428  0.2145 -0.1633 -0.8120
19139TIP3   OH278907   4.551   0.213  14.702 -0.4643  0.1206 -0.3283
19139TIP3    H178908   4.555   0.254  14.616 -1.3891  0.0880 -0.3972
19139TIP3    H278909   4.616   0.142  14.698  0.5542  1.0308 -0.4843
19140TIP3   OH278910   2.013   2.376  17.142 -0.3127 -0.5006 -0.9412
19140TIP3    H178911   2.043   2.350  17.229 -1.9698 -1.3497 -0.5894
19140TIP3    H278912   1.992   2.469  17.151 -1.0268 -0.7156 -0.2446
19141TIP3   OH278913   2.929   5.068  11.951  0.6268  0.5705  0.2044
19141TIP3    H178914   2.882   5.013  11.888  1.1138  0.3646  0.0201
19141TIP3    H278915   2.900   5.157  11.931 -1.1081  0.3013  1.2994
19142TIP3   OH278916   1.678   5.422   6.394 -0.0240  0.0308  0.3097
19142TIP3    H178917   1.735   5.482   6.346  0.6798 -1.6140 -1.0037
19142TIP3    H278918   1.724   5.404   6.476  1.7444 -1.7743 -1.0047
19143TIP3   OH278919   2.896   6.364  15.099  0.1681  0.0824  0.2474
19143TIP3    H178920   2.930   6.305  15.167 -0.3319  2.2661  2.5592
19143TIP3    H278921   2.966   6.428  15.086 -0.0016  0.0547 -0.8333
19144TIP3   OH278922   2.075   4.351  10.921 -0.3695 -0.0734 -0.5527
19144TIP3    H178923   2.024   4.354  10.840  1.5161  1.0402 -1.7930
19144TIP3    H278924   2.145   4.415  10.907 -0.9481  1.4845  2.6836
19145TIP3   OH278925   3.480   1.328   1.379  0.1645 -0.0571 -0.4195
19145TIP3    H178926   3.449   1.277   1.454  0.7726 -0.5111 -0.4685
19145TIP3    H278927   3.562   1.286   1.354  2.0198  2.3936  1.0791
19146TIP3   OH278928   4.417   4.948   3.078 -0.8997  0.1840 -0.1836
19146TIP3    H178929   4.498   4.988   3.111 -0.3766 -1.6607  0.9203
19146TIP3    H278930   4.362   4.939   3.156 -0.5129 -2.2701 -0.1165
19147TIP3   OH278931   2.501   0.181   0.193 -0.3394  0.3071  0.4864
19147TIP3    H178932   2.567   0.112   0.201 -0.2381  0.5037  1.5671
19147TIP3    H278933   2.465   0.189   0.282 -1.7325  0.2930 -0.0439
19148TIP3   OH278934   2.668   5.866   5.414  0.0193  0.2948  0.1494
19148TIP3    H178935   2.693   5.852   5.323 -1.8768  1.2661 -0.5675
19148TIP3    H278936   2.741   5.914   5.452  0.2138  1.1720 -1.2689
19149TIP3   OH278937   0.710   2.252  14.999  0.5260  0.0509 -0.2924
19149TIP3    H178938   0.676   2.164  14.984 -0.5341  0.1727  1.2070
19149TIP3    H278939   0.796   2.239  15.040 -0.1098 -0.3202  0.9645
19150TIP3   OH278940   4.084   2.477   0.969  0.4246 -0.5702 -0.6980
19150TIP3    H178941   4.104   2.485   1.063 -1.1943  0.4898 -0.4019
19150TIP3    H278942   4.012   2.538   0.955  1.1108 -0.1678 -2.8083
19151TIP3   OH278943   5.808   3.216   4.437  0.0396 -0.1853 -0.3777
19151TIP3    H178944   5.861   3.239   4.514  0.3189 -1.9315 -0.0069
19151TIP3    H278945   5.846   3.134   4.406 -2.6449 -1.7394  0.1394
19152TIP3   OH278946   0.583   2.305  14.448  0.5434  0.3965  0.0545
19152TIP3    H178947   0.609   2.262  14.530  1.7908  2.5497  0.8984
19152TIP3    H278948   0.603   2.242  14.380 -0.9739 -1.6595  1.3910
19153TIP3   OH278949   5.735   3.275  14.362  0.9524 -0.0381 -0.6065
19153TIP3    H178950   5.751   3.361  14.322  0.5251  0.1277 -0.4303
19153TIP3    H278951   5.710   3.219  14.288 -0.1713  0.3548 -0.5460
19154TIP3   OH278952   3.435   6.197   1.495 -0.2579  0.1492  0.2796
19154TIP3    H178953   3.442   6.289   1.521 -1.8899 -0.5511  3.7178
19154TIP3    H278954   3.522   6.175   1.461  1.4578  1.9682  3.0644
19155TIP3   OH278955   0.728   0.138   1.121  0.2326  0.1460 -0.1616
19155TIP3    H178956   0.667   0.065   1.134 -0.5050  0.9201  0.9697
19155TIP3    H278957   0.809   0.109   1.163  0.5115 -0.7006 -1.2488
19156TIP3   OH278958   2.344   3.142  13.263 -0.1138  0.3912  0.0325
19156TIP3    H178959   2.339   3.220  13.208 -0.6511  0.3538  0.0305
19156TIP3    H278960   2.395   3.079  13.210 -2.1880 -0.3191 -1.2594
19157TIP3   OH278961   1.149   2.485   4.889  0.5309  0.5690 -0.2491
19157TIP3    H178962   1.084   2.450   4.828  0.9031 -0.7841  0.0969
19157TIP3    H278963   1.231   2.482   4.841  0.7512 -0.0931  0.1553
19158TIP3   OH278964   0.594   0.996   0.598 -0.1186  0.1253 -0.2324
19158TIP3    H178965   0.661   0.951   0.547 -0.7981 -1.7299  0.3967
19158TIP3    H278966   0.575   1.076   0.549  0.4935 -0.7200 -1.9331
19159TIP3   OH278967   6.627   6.436  15.546 -0.4350 -0.2075  0.1351
19159TIP3    H178968   6.623   6.344  15.573 -1.2562  0.2235  1.5786
19159TIP3    H278969   6.609   6.485  15.626  1.6230  1.2775 -0.2273
19160TIP3   OH278970   6.480   1.119  17.022 -0.7267 -0.3952  0.7796
19160TIP3    H178971   6.551   1.102  17.084  0.0686  0.6999  0.2102
19160TIP3    H278972   6.507   1.198  16.976 -2.7758  0.6565  1.2312
19161TIP3   OH278973   2.352   5.491   6.033 -0.0628 -0.2521 -0.0985
19161TIP3    H178974   2.418   5.488   6.102 -0.4395  0.5992  0.3091
19161TIP3    H278975   2.372   5.571   5.985 -1.1625  0.3367  0.4020
19162TIP3   OH278976   5.019   2.807  14.713  0.6929 -0.7353  0.0087
19162TIP3    H178977   4.946   2.773  14.765  2.4108 -1.0142  2.3776
19162TIP3    H278978   5.009   2.902  14.717  0.4750 -0.7714  0.3579
19163TIP3   OH278979   1.606   3.918   0.722 -0.7073 -0.2311 -0.0782
19163TIP3    H178980   1.603   3.823   0.723 -1.8730 -0.2137 -0.6242
19163TIP3    H278981   1.579   3.942   0.634 -1.4367  0.6285  0.3673
19164TIP3   OH278982   0.750   3.635   1.437  0.1071  0.3216 -0.4771
19164TIP3    H178983   0.807   3.560   1.420 -0.4308 -0.1634 -0.1485
19164TIP3    H278984   0.669   3.615   1.390 -0.9949 -0.5238  1.6356
19165TIP3   OH278985   6.173   3.440   5.540 -0.2647 -0.1037 -0.6767
19165TIP3    H178986   6.116   3.504   5.497  0.1024 -0.5484 -1.8644
19165TIP3    H278987   6.113   3.372   5.571 -0.6353  0.7029  0.4285
19166TIP3   OH278988   2.912   5.915   4.067  0.1196  0.5789 -0.3930
19166TIP3    H178989   2.926   5.835   4.119 -0.7272  0.3070 -0.5641
19166TIP3    H278990   2.997   5.957   4.065  0.5404 -0.2338 -0.1451
19167TIP3   OH278991   1.234   1.320   0.695  0.3106 -0.1386 -0.2460
19167TIP3    H178992   1.139   1.319   0.700  0.2983 -2.7706  0.2536
19167TIP3    H278993   1.263   1.347   0.782 -0.0262 -1.5973  0.3530
19168TIP3   OH278994   5.038   5.380   4.428 -0.1626 -0.3223  1.2810
19168TIP3    H178995   4.989   5.309   4.387  1.2065 -0.5714 -0.0113
19168TIP3    H278996   5.075   5.340   4.508 -1.1618 -0.4283  1.6969
19169TIP3   OH278997   4.396   0.166  16.533  0.1943  0.0567 -0.2906
19169TIP3    H178998   4.395   0.239  16.595  0.4613 -0.8425  0.8092
19169TIP3    H278999   4.447   0.098  16.577 -0.9207 -1.1758 -0.8366
19170TIP3   OH279000   3.540   1.149   2.497 -0.4814  0.7434 -0.3787
19170TIP3    H179001   3.604   1.219   2.504 -0.8871  1.1441 -0.6153
19170TIP3    H279002   3.504   1.159   2.409  0.1291 -0.3481 -0.7651
19171TIP3   OH279003   5.870   0.261  16.388 -0.0600  0.4167  0.0315
19171TIP3    H179004   5.888   0.290  16.299 -0.9269  1.4450  0.1670
19171TIP3    H279005   5.827   0.336  16.430  2.5292  0.8936  2.0959
19172TIP3   OH279006   0.738   1.849  15.995 -0.0997  0.2225  0.7531
19172TIP3    H179007   0.758   1.758  15.973 -0.6350  0.2072  0.2893
19172TIP3    H279008   0.795   1.900  15.938  0.1684  0.1785  0.9810
19173TIP3   OH279009   1.726   6.018  13.887 -0.2292 -0.0180 -0.0943
19173TIP3    H179010   1.794   6.003  13.822  0.2729 -0.3599  0.4989
19173TIP3    H279011   1.644   6.017  13.837  0.3012  2.6562 -1.1685
19174TIP3   OH279012   1.535   2.311  12.283  0.2539  0.0880  0.3250
19174TIP3    H179013   1.443   2.334  12.271 -0.0224 -1.2261 -0.2483
19174TIP3    H279014   1.582   2.360  12.216  0.2033  2.0243  1.6371
19175TIP3   OH279015   0.931   5.934   1.704 -0.2101 -0.0748 -0.0009
19175TIP3    H179016   0.916   6.006   1.642  0.3026  1.1683  1.2525
19175TIP3    H279017   1.014   5.895   1.677  0.5783  1.1794  0.5309
19176TIP3   OH279018   5.148   3.727  11.842  0.4543 -0.2880  0.0356
19176TIP3    H179019   5.194   3.801  11.804 -1.4678  1.1508  0.3930
19176TIP3    H279020   5.171   3.729  11.935 -1.3314  1.2856  0.4915
19177TIP3   OH279021   1.957   0.383   5.645 -0.5328 -1.0020 -0.2789
19177TIP3    H179022   1.887   0.369   5.581 -2.2129  0.7332  1.0320
19177TIP3    H279023   2.030   0.418   5.594 -1.6164 -0.2332 -1.3731
19178TIP3   OH279024   1.081   4.550  13.457 -0.4812 -1.0335  0.2705
19178TIP3    H179025   1.084   4.646  13.449  0.7015 -1.0804  0.0124
19178TIP3    H279026   1.127   4.518  13.379  0.5840 -1.7722  1.1743
19179TIP3   OH279027   2.787   6.582   3.737  0.0312  0.2599 -0.2659
19179TIP3    H179028   2.741   6.498   3.737  2.1588 -0.9644 -1.1259
19179TIP3    H279029   2.849   6.576   3.810  0.3046  1.0393 -0.4204
19180TIP3   OH279030   6.051   6.440  15.387 -0.1972 -0.5722 -0.2128
19180TIP3    H179031   6.080   6.482  15.468  1.6884 -1.0162 -0.6088
19180TIP3    H279032   5.985   6.377  15.416  0.8228 -1.1047  1.0702
19181TIP3   OH279033   5.481   2.873   4.315 -0.0391 -0.3233  0.4327
19181TIP3    H179034   5.542   2.944   4.335 -1.1891  0.7976  0.0310
19181TIP3    H279035   5.480   2.869   4.219  0.4969 -1.3371  0.4476
19182TIP3   OH279036   6.545   4.777   0.958  0.3721  0.3135 -0.0533
19182TIP3    H179037   6.570   4.685   0.951 -1.2408 -0.0833 -0.9125
19182TIP3    H279038   6.617   4.817   1.007 -0.0996 -1.9184  2.7644
19183TIP3   OH279039   5.182   5.781   0.780 -0.2218  0.7919  0.1623
19183TIP3    H179040   5.278   5.780   0.779 -0.2122  1.2298  0.8073
19183TIP3    H279041   5.158   5.773   0.688  0.4440  2.0068 -0.1313
19184TIP3   OH279042   2.743   4.973   4.925 -0.4667  0.8050  0.2944
19184TIP3    H179043   2.725   5.066   4.936 -0.5970  0.6664  1.3097
19184TIP3    H279044   2.671   4.929   4.970 -0.0169  0.2158  0.4544
19185TIP3   OH279045   5.435   1.713   0.088 -0.2962  0.1886 -0.1769
19185TIP3    H179046   5.354   1.677   0.125 -0.9987  0.9216 -0.9682
19185TIP3    H279047   5.426   1.807   0.098  0.1620  0.3121 -0.8740
19186TIP3   OH279048   5.826   0.813  13.624 -0.1044 -0.4345 -0.3230
19186TIP3    H179049   5.853   0.794  13.535 -0.4247 -0.3299 -0.4424
19186TIP3    H279050   5.908   0.821  13.673  0.0619 -0.8676 -0.5277
19187TIP3   OH279051   4.641   4.456  14.400 -0.6708  0.3763  0.1117
19187TIP3    H179052   4.654   4.547  14.429 -2.8984  0.4583  1.0793
19187TIP3    H279053   4.578   4.462  14.328 -1.1597 -0.4174  0.4591
19188TIP3   OH279054   0.516   5.015   3.591 -0.3297  0.6149 -0.3813
19188TIP3    H179055   0.590   5.073   3.575  1.2778 -0.7134  1.6384
19188TIP3    H279056   0.536   4.935   3.541 -1.6912  1.1164 -1.8083
19189TIP3   OH279057   5.620   4.237  14.050 -0.3832 -0.6187  0.1336
19189TIP3    H179058   5.547   4.207  13.996 -0.2744  1.0670 -1.0339
19189TIP3    H279059   5.581   4.256  14.135 -0.8759 -1.7950  0.1852
19190TIP3   OH279060   5.773   3.327   1.500  0.0650  0.4437 -0.2512
19190TIP3    H179061   5.708   3.257   1.507 -1.9403  2.1564 -0.8110
19190TIP3    H279062   5.771   3.371   1.585 -2.3422  2.7571 -1.3471
19191TIP3   OH279063   1.345   2.862   4.935  0.1035 -0.3453  0.4050
19191TIP3    H179064   1.327   2.853   4.841  0.5123 -1.5969  0.4313
19191TIP3    H279065   1.392   2.782   4.958  3.3784  1.5255  0.8932
19192TIP3   OH279066   5.464   2.897   4.942 -0.4862  0.1529  0.2337
19192TIP3    H179067   5.496   2.853   4.863  0.6103  1.3502 -0.0248
19192TIP3    H279068   5.376   2.926   4.920 -0.6318 -0.5330 -0.1269
19193TIP3   OH279069   2.336   5.474   0.100 -0.3323 -0.1729  0.3473
19193TIP3    H179070   2.284   5.548   0.129 -0.6062 -0.2869  0.1519
19193TIP3    H279071   2.301   5.452   0.013 -0.2517 -0.5262  0.3993
19194TIP3   OH279072   5.926   3.395   1.153 -0.0293 -0.2378  0.3833
19194TIP3    H179073   5.872   3.317   1.163 -2.1818  1.2245  1.0292
19194TIP3    H279074   5.863   3.468   1.154  2.0366  1.7336  2.8255
19195TIP3   OH279075   1.084   6.055  11.376 -0.0945 -0.6337 -0.5897
19195TIP3    H179076   1.070   6.034  11.284 -1.7063 -2.5779  0.0212
19195TIP3    H279077   1.003   6.098  11.404  0.4398  0.0851 -0.1055
19196TIP3   OH279078   5.539   1.316  16.125  0.6307 -0.5507  0.0907
19196TIP3    H179079   5.516   1.284  16.037  0.7226  0.3041 -0.2577
19196TIP3    H279080   5.612   1.377  16.110 -2.1567  3.1512  0.1163
19197TIP3   OH279081   3.000   1.754   5.509 -0.3193  0.0625  0.4583
19197TIP3    H179082   2.985   1.660   5.499 -0.2580  0.2012 -1.1954
19197TIP3    H279083   3.025   1.765   5.600 -0.5241 -1.5034  0.7223
19198TIP3   OH279084   3.334   0.972   4.439 -0.7283  0.3538  0.1758
19198TIP3    H179085   3.338   1.020   4.522  0.7553 -0.6242  0.7193
19198TIP3    H279086   3.367   1.034   4.374  1.1429  0.1554  0.8644
19199TIP3   OH279087   5.960   2.020  11.794  0.1684 -0.3734  0.0126
19199TIP3    H179088   6.051   2.021  11.824 -0.0496  1.3170  0.6667
19199TIP3    H279089   5.961   2.074  11.715 -0.2087 -0.7121 -0.2272
19200TIP3   OH279090   6.769   2.091  13.816  0.0187  0.3365  0.1350
19200TIP3    H179091   6.744   2.091  13.723  0.2255  1.6128  0.0603
19200TIP3    H279092   6.837   2.024  13.823  0.0130  0.2425 -0.6288
19201TIP3   OH279093   4.821   0.598  11.381  0.3513  0.4429 -0.6381
19201TIP3    H179094   4.765   0.668  11.415  0.4280  0.3652 -0.3464
19201TIP3    H279095   4.818   0.531  11.448  2.3981  1.2699  0.3587
19202TIP3   OH279096   0.560   6.555  11.581 -0.3579  0.2460  0.2223
19202TIP3    H179097   0.479   6.579  11.626  0.0012  2.5218 -0.2050
19202TIP3    H279098   0.617   6.631  11.593  1.2771 -0.8134 -0.5159
19203TIP3   OH279099   1.395   4.766  10.252  0.2455 -0.1258 -0.5473
19203TIP3    H179100   1.436   4.821  10.319 -0.1245 -0.6071  0.0836
19203TIP3    H279101   1.302   4.784  10.261  0.2526  0.3829 -1.4540
19204TIP3   OH279102   0.718   2.316   2.939  0.3996 -0.1251 -0.2886
19204TIP3    H179103   0.692   2.248   2.876 -1.6895 -0.0391  0.4233
19204TIP3    H279104   0.759   2.384   2.885  0.1625 -0.7957 -1.3463
19205TIP3   OH279105   4.208   2.438   1.250 -0.5178  0.3388 -0.3511
19205TIP3    H179106   4.139   2.502   1.268  0.8296  1.6512  0.3509
19205TIP3    H279107   4.250   2.423   1.334 -0.3629 -1.0029 -0.6291
19206TIP3   OH279108   3.349   5.571  13.594 -0.1214 -0.0386 -0.1415
19206TIP3    H179109   3.441   5.570  13.620 -0.0385  0.0269 -0.4235
19206TIP3    H279110   3.304   5.518  13.660  0.1521 -0.2520 -0.1282
19207TIP3   OH279111   4.106   4.230  12.666 -0.0286  0.1082 -0.5538
19207TIP3    H179112   4.050   4.156  12.688  0.5829 -0.2475 -0.1575
19207TIP3    H279113   4.133   4.213  12.576 -2.0394  1.2475 -1.4295
19208TIP3   OH279114   2.662   6.062   2.387  0.4016  0.4408  0.1703
19208TIP3    H179115   2.686   6.020   2.469 -0.3909  1.1283  0.7711
19208TIP3    H279116   2.592   6.008   2.351 -1.7514  2.0329  1.7367
19209TIP3   OH279117   3.952   5.478  16.745  0.5245  0.4113 -0.5350
19209TIP3    H179118   3.937   5.407  16.682  0.4014  0.4462 -0.5455
19209TIP3    H279119   3.865   5.514  16.761 -0.1788 -2.3375  2.9348
19210TIP3   OH279120   2.791   3.390   1.205 -0.0437 -0.1395 -0.0453
19210TIP3    H179121   2.861   3.454   1.198  1.6583 -1.7993  0.8295
19210TIP3    H279122   2.750   3.407   1.290 -0.9235  0.9941 -0.6671
19211TIP3   OH279123   0.650   1.507   1.530  0.6625  0.2344 -0.0271
19211TIP3    H179124   0.584   1.495   1.598 -0.6560 -0.1391 -1.3327
19211TIP3    H279125   0.697   1.423   1.528 -0.1715 -0.2314 -0.4730
19212TIP3   OH279126   6.126   4.074   5.101  0.0468 -0.0110  0.4631
19212TIP3    H179127   6.172   3.999   5.139 -0.0403  0.5188  1.6588
19212TIP3    H279128   6.189   4.146   5.108 -0.2805  0.2843  0.3780
19213TIP3   OH279129   6.513   4.906   2.747  0.4858  0.8760  0.3520
19213TIP3    H179130   6.464   4.826   2.765  0.4205  0.7809 -0.2525
19213TIP3    H279131   6.477   4.970   2.810  0.1084  0.6040  0.4164
19214TIP3   OH279132   2.699   3.062   4.391 -0.0300  0.3851  0.3902
19214TIP3    H179133   2.709   3.151   4.424  0.4784 -0.1465  1.7479
19214TIP3    H279134   2.605   3.046   4.391 -0.1312  0.9622  0.0052
19215TIP3   OH279135   4.269   6.736  15.928  0.2661  0.0660  0.0276
19215TIP3    H179136   4.360   6.752  15.903  0.5489 -0.4005  0.7133
19215TIP3    H279137   4.218   6.780  15.861  1.0023  1.9663  0.6297
19216TIP3   OH279138   5.596   1.579  15.842  0.0315 -0.7913 -0.1338
19216TIP3    H179139   5.668   1.548  15.787 -0.1987 -0.4521 -0.6356
19216TIP3    H279140   5.637   1.636  15.907  0.1598 -0.1406 -0.7665
19217TIP3   OH279141   3.656   0.160   3.205 -0.2444  0.0836  0.0888
19217TIP3    H179142   3.624   0.190   3.120 -1.2584 -0.7750  0.1478
19217TIP3    H279143   3.750   0.153   3.194 -0.4758 -1.1654 -1.3489
19218TIP3   OH279144   5.608   4.362   4.329  0.4742  0.0551 -0.3467
19218TIP3    H179145   5.582   4.274   4.356 -1.9085  0.7818 -0.0395
19218TIP3    H279146   5.699   4.353   4.300  0.8095 -2.1701  1.1857
19219TIP3   OH279147   6.570   2.108  14.014  0.3600  0.0102  0.0222
19219TIP3    H179148   6.611   2.059  14.085  2.4901  0.9439 -0.4559
19219TIP3    H279149   6.640   2.118  13.949 -0.8271  1.2077 -1.1341
19220TIP3   OH279150   5.438   5.309   3.311 -0.0073 -0.0951  0.8664
19220TIP3    H179151   5.396   5.370   3.250 -0.3299 -0.2005  0.9815
19220TIP3    H279152   5.398   5.328   3.396  1.1229  0.7146  1.2557
19221TIP3   OH279153   2.331   4.764  16.791 -0.0932 -0.0549 -0.1015
19221TIP3    H179154   2.274   4.841  16.796 -0.1950 -0.1037 -0.5561
19221TIP3    H279155   2.398   4.781  16.858  0.4228  0.8767 -0.8194
19222TIP3   OH279156   1.719   5.133   3.380  0.1139 -0.5822  0.5812
19222TIP3    H179157   1.749   5.060   3.433 -0.9718 -0.1424  1.8567
19222TIP3    H279158   1.793   5.194   3.378  0.0215 -0.3920  2.0248
19223TIP3   OH279159   3.304   6.728   4.500 -0.3423 -0.2539  0.2485
19223TIP3    H179160   3.342   6.646   4.469  1.5835 -0.5505  3.0455
19223TIP3    H279161   3.236   6.702   4.562 -0.7495  0.2881  0.0382
19224TIP3   OH279162   6.786   2.854   5.679  0.3128  0.5317  0.0044
19224TIP3    H179163   6.785   2.831   5.586 -1.5674  0.1814  0.0598
19224TIP3    H279164   6.829   2.780   5.722  0.5504  0.3647 -0.5121
19225TIP3   OH279165   3.420   4.414  17.105 -0.3238  0.5892 -0.9957
19225TIP3    H179166   3.509   4.449  17.098  0.4107 -1.1590 -0.7826
19225TIP3    H279167   3.383   4.459  17.182  0.9327  0.2102 -0.1328
19226TIP3   OH279168   1.728   0.203   3.827  0.0628 -0.1113  0.4224
19226TIP3    H179169   1.685   0.117   3.830  0.0372 -0.0823  1.1429
19226TIP3    H279170   1.733   0.224   3.734  0.1748 -0.9486  0.2295
19227TIP3   OH279171   2.678   5.955  12.487  0.3092  0.4238  0.5132
19227TIP3    H179172   2.604   6.006  12.455 -0.4566 -0.5183  0.7409
19227TIP3    H279173   2.723   6.013  12.549 -0.6810  0.7353  0.9521
19228TIP3   OH279174   5.211   0.449   4.750  0.6856  0.6887 -0.4582
19228TIP3    H179175   5.117   0.447   4.769  0.8147  2.6339  0.7611
19228TIP3    H279176   5.217   0.486   4.662  0.3182  0.9006 -0.3960
19229TIP3   OH279177   2.245   2.215  10.813  0.2959 -0.0218  0.0909
19229TIP3    H179178   2.245   2.128  10.855  1.3771  0.1225  0.4149
19229TIP3    H279179   2.209   2.199  10.726  0.5705 -0.8151  0.1137
19230TIP3   OH279180   2.935   3.546  15.020 -0.0722 -0.2543 -0.0227
19230TIP3    H179181   2.992   3.618  14.994 -0.5018 -0.3718 -1.3533
19230TIP3    H279182   2.921   3.559  15.114  1.3555  0.3198  0.1416
19231TIP3   OH279183   2.411   4.943   3.187  0.6180  0.3868 -0.1649
19231TIP3    H179184   2.418   4.848   3.185  2.3251  0.4938 -0.4325
19231TIP3    H279185   2.404   4.964   3.280  1.5660  0.0708 -0.0174
19232TIP3   OH279186   3.845   6.025  16.413 -0.1538  0.3742  0.0197
19232TIP3    H179187   3.865   5.937  16.444  0.6075  0.5881  0.1434
19232TIP3    H279188   3.757   6.017  16.376 -0.5104 -0.2081  0.9444
19233TIP3   OH279189   4.478   1.770   1.317  1.1225 -0.0910 -0.1809
19233TIP3    H179190   4.415   1.831   1.355  0.5145  0.7107 -2.3039
19233TIP3    H279191   4.551   1.769   1.379 -0.9212 -1.1080  2.4015
19234TIP3   OH279192   2.680   3.242  16.365  0.7928  0.0450  0.4273
19234TIP3    H179193   2.605   3.299  16.379  0.2907 -0.9576  1.9648
19234TIP3    H279194   2.655   3.189  16.290  0.6720  0.8327 -0.1104
19235TIP3   OH279195   3.650   1.892  12.553  0.1431 -0.6527  0.2836
19235TIP3    H179196   3.554   1.900  12.555  0.2632  0.7647  0.8599
19235TIP3    H279197   3.667   1.805  12.589 -0.9892 -1.6877 -1.5022
19236TIP3   OH279198   2.144   1.729  16.561 -0.5566 -0.0619 -0.0127
19236TIP3    H179199   2.218   1.789  16.572 -0.6558 -0.1386  1.2325
19236TIP3    H279200   2.180   1.642  16.580 -0.4986 -0.3751 -1.4522
19237TIP3   OH279201   6.761   2.195   4.862 -0.9638 -0.0464 -0.1757
19237TIP3    H179202   6.820   2.124   4.888 -3.5721 -2.3373 -0.0716
19237TIP3    H279203   6.801   2.274   4.899  1.0518 -1.6933  1.4205
19238TIP3   OH279204   5.118   3.009  15.173 -0.3524  0.5023 -0.1718
19238TIP3    H179205   5.083   2.947  15.237 -0.8206  0.2201 -0.6855
19238TIP3    H279206   5.212   3.010  15.189 -0.2997 -0.5716 -0.3527
19239TIP3   OH279207   4.176   3.825   1.497  0.4079 -0.1727  0.0172
19239TIP3    H179208   4.168   3.801   1.404  0.8459 -1.2551  0.2434
19239TIP3    H279209   4.166   3.920   1.498 -0.3884 -0.2182 -1.0519
19240TIP3   OH279210   3.011   4.258  15.777  0.3660 -0.4290 -0.3550
19240TIP3    H179211   2.951   4.223  15.711  1.8215 -0.3960 -1.7542
19240TIP3    H279212   3.098   4.234  15.746  1.2018  1.2083  0.5809
19241TIP3   OH279213   0.198   0.474   3.812 -0.1729 -0.3210 -0.1984
19241TIP3    H179214   0.150   0.392   3.796 -0.7707  0.3045 -1.7326
19241TIP3    H279215   0.203   0.516   3.726  1.7585  0.3926  0.2287
19242TIP3   OH279216   6.257   3.970  11.593 -0.1969 -0.5609  0.1631
19242TIP3    H179217   6.285   3.987  11.683 -1.1612 -0.7158  0.5092
19242TIP3    H279218   6.196   3.897  11.601 -0.2549 -0.6037 -0.6300
19243TIP3   OH279219   1.663   0.760  11.099  0.4926 -0.3801  0.1888
19243TIP3    H179220   1.626   0.828  11.042 -0.9739 -0.1857  1.3026
19243TIP3    H279221   1.651   0.794  11.187  0.0596 -1.9242  0.7590
19244TIP3   OH279222   2.213   5.489  14.619 -0.3196  0.4527  0.0589
19244TIP3    H179223   2.306   5.495  14.638 -0.0399 -0.6063 -0.8588
19244TIP3    H279224   2.171   5.547  14.683  0.9165  0.5205  0.8308
19245TIP3   OH279225   1.394   2.836   6.640  0.9794  0.6053  0.1115
19245TIP3    H179226   1.386   2.918   6.688 -0.4257  0.8275 -0.4719
19245TIP3    H279227   1.428   2.774   6.705 -1.7675  0.6488  1.7531
19246TIP3   OH279228   1.484   0.596   0.550  0.1156  0.4571 -0.1667
19246TIP3    H179229   1.549   0.615   0.482 -0.3246  0.7669 -0.5123
19246TIP3    H279230   1.482   0.674   0.605  0.2354  0.3377  0.0075
19247TIP3   OH279231   4.218   1.892  16.600  0.2746  0.4679 -0.0468
19247TIP3    H179232   4.296   1.853  16.639  0.3730  0.0752 -0.6297
19247TIP3    H279233   4.145   1.848  16.644  0.3717  1.0219  0.6853
19248TIP3   OH279234   5.278   4.808   6.154  0.4017 -0.1490  0.2377
19248TIP3    H179235   5.334   4.877   6.119 -1.3903  0.2179 -2.1818
19248TIP3    H279236   5.199   4.853   6.183  0.2342 -0.9304  1.0389
19249TIP3   OH279237   3.967   4.821   0.771 -0.2054  0.2321 -0.5033
19249TIP3    H179238   3.884   4.859   0.743 -0.2474  0.5687  0.0531
19249TIP3    H279239   4.008   4.791   0.690 -0.7301  0.3439 -0.8170
19250TIP3   OH279240   4.139   4.972  15.825 -0.2458  0.0197  0.3392
19250TIP3    H179241   4.219   4.942  15.781  1.0249  3.0143  0.3601
19250TIP3    H279242   4.077   4.988  15.753  0.3109  0.7517  0.0102
19251TIP3   OH279243   0.257   6.582  13.183 -0.1132 -0.0715  0.2222
19251TIP3    H179244   0.229   6.670  13.157  1.3734  0.0606 -1.0834
19251TIP3    H279245   0.276   6.537  13.101 -1.2598 -1.8061  0.8338
19252TIP3   OH279246   5.750   0.303  13.888  0.1994 -0.1626 -0.2023
19252TIP3    H179247   5.713   0.308  13.976  0.1160  0.7925 -0.2802
19252TIP3    H279248   5.686   0.347  13.833 -0.4272 -2.0015 -0.9818
19253TIP3   OH279249   0.061   1.927   2.541  0.4062 -0.3042 -0.5484
19253TIP3    H179250   0.116   1.987   2.492  1.6007 -1.3149 -0.4875
19253TIP3    H279251  -0.026   1.935   2.500  0.2369  2.2087  0.1387
19254TIP3   OH279252   2.236   4.374  13.525  0.0662  0.3327  0.5843
19254TIP3    H179253   2.227   4.405  13.434 -2.0345  0.9928  0.9829
19254TIP3    H279254   2.233   4.278  13.518 -1.7444  0.3999  0.0764
19255TIP3   OH279255   1.695   3.765   4.053 -0.0435  0.0951 -0.2253
19255TIP3    H179256   1.605   3.746   4.079 -0.0952  1.1550  0.4286
19255TIP3    H279257   1.739   3.680   4.053 -0.9585 -0.3888 -0.2457
19256TIP3   OH279258   5.124   2.037   3.090 -0.3125 -0.1734 -0.2771
19256TIP3    H179259   5.058   1.971   3.068 -0.2538 -0.2059 -0.3537
19256TIP3    H279260   5.084   2.087   3.160  0.0570 -0.9497  0.5150
19257TIP3   OH279261   4.160   0.976  11.121 -0.2288 -0.0603  0.3960
19257TIP3    H179262   4.199   0.927  11.048  0.7719  0.2787  0.6797
19257TIP3    H279263   4.211   1.057  11.124 -0.2888 -0.0524  1.4557
19258TIP3   OH279264   4.320   3.466   0.657  0.0372  0.1927 -0.1125
19258TIP3    H179265   4.396   3.409   0.663 -0.3338 -0.2264  0.8771
19258TIP3    H279266   4.253   3.412   0.615 -0.5744 -0.4245  1.5766
19259TIP3   OH279267   2.838   1.764   1.705  0.6068 -0.3697 -0.3030
19259TIP3    H179268   2.813   1.794   1.792 -0.3668  0.1834 -0.7665
19259TIP3    H279269   2.927   1.730   1.717  0.4138 -0.4958  0.9455
19260TIP3   OH279270   6.463   5.689   2.462 -1.4490  0.3319  0.8448
19260TIP3    H179271   6.521   5.642   2.522 -0.0692  0.6200 -0.1904
19260TIP3    H279272   6.484   5.781   2.476 -0.7960  0.3850 -0.3427
19261TIP3   OH279273   0.199   4.801  12.869 -0.1617  0.3151  0.0950
19261TIP3    H179274   0.146   4.725  12.892  0.2200 -0.2665 -0.8817
19261TIP3    H279275   0.272   4.799  12.930 -1.2414  1.1454  1.4762
19262TIP3   OH279276   6.373   3.640  13.362 -0.3083  0.4482 -0.3296
19262TIP3    H179277   6.420   3.611  13.441 -0.9040  0.2478 -0.0426
19262TIP3    H279278   6.284   3.656  13.392 -0.4531  0.7295 -0.8937
19263TIP3   OH279279   5.492   0.201   2.125  0.4926  0.0611 -0.4676
19263TIP3    H179280   5.492   0.189   2.220 -1.4122  1.9999 -0.1353
19263TIP3    H279281   5.462   0.291   2.112  0.8087 -0.1053 -2.9273
19264TIP3   OH279282   4.769   4.796   5.047  0.5398  0.1427  0.2789
19264TIP3    H179283   4.768   4.892   5.044  1.8208  0.1659 -0.0024
19264TIP3    H279284   4.858   4.774   5.076 -0.1215 -0.9397  1.5747
19265TIP3   OH279285   6.668   1.264   1.966  0.3639  0.6177  0.3858
19265TIP3    H179286   6.585   1.312   1.966 -0.6927 -1.0849  0.9937
19265TIP3    H279287   6.642   1.172   1.975  2.2437 -0.1517 -1.2864
19266TIP3   OH279288   0.471   5.523  11.377 -0.1644 -0.4409 -0.3755
19266TIP3    H179289   0.517   5.606  11.372  1.1334 -1.0889  0.1553
19266TIP3    H279290   0.449   5.513  11.470 -3.1609  0.7335 -0.8533
19267TIP3   OH279291   1.745   0.271  13.935  0.2337 -0.2995 -0.5486
19267TIP3    H179292   1.805   0.248  13.864  0.2289 -1.1585 -0.2827
19267TIP3    H279293   1.800   0.317  13.999  1.1299 -2.8472  0.6554
19268TIP3   OH279294   3.875   0.185   0.898  0.0965  0.2143 -0.4053
19268TIP3    H179295   3.937   0.169   0.969  1.2507  2.6531 -0.7457
19268TIP3    H279296   3.863   0.099   0.857  0.8905 -0.8838  1.5270
19269TIP3   OH279297   2.628   3.919   3.311 -0.4830 -0.4877  0.0572
19269TIP3    H179298   2.639   3.844   3.369  1.1479 -1.1751 -1.0523
19269TIP3    H279299   2.700   3.978   3.333  0.6768 -1.1468 -1.7512
19270TIP3   OH279300   4.536   6.809  12.947  0.2829  0.1604 -0.8134
19270TIP3    H179301   4.468   6.861  12.990 -0.1550 -1.3738  0.4299
19270TIP3    H279302   4.490   6.763  12.877  0.0320 -0.7480 -0.0778
19271TIP3   OH279303   2.053   2.514   4.717  0.2629  0.9862 -0.8141
19271TIP3    H179304   2.114   2.563   4.772  1.5940 -0.1782 -1.1741
19271TIP3    H279305   2.052   2.563   4.634 -0.4880  1.8435 -0.3154
19272TIP3   OH279306   3.275   6.377  13.304 -0.2802 -0.3828  0.0941
19272TIP3    H179307   3.218   6.326  13.362 -0.1875 -0.7789 -0.1587
19272TIP3    H279308   3.252   6.468  13.322  0.8637 -0.3842  1.9485
19273TIP3   OH279309   1.607   5.787   6.884 -0.2299  0.1042  0.2582
19273TIP3    H179310   1.663   5.712   6.863 -2.1725 -0.6559 -2.8966
19273TIP3    H279311   1.519   5.759   6.857 -1.0904  3.3697 -0.7470
19274TIP3   OH279312   0.512   3.537  12.608  0.0901  0.0658  0.5666
19274TIP3    H179313   0.530   3.506  12.697  0.1712  2.9257  1.6502
19274TIP3    H279314   0.582   3.599  12.590 -1.3169  1.4348 -0.4542
19275TIP3   OH279315   1.052   0.229  12.336 -0.6759 -0.5031  0.4668
19275TIP3    H179316   0.991   0.187  12.396  0.7112 -2.3509  0.7024
19275TIP3    H279317   1.136   0.229  12.383 -0.4515  2.0132  0.1854
19276TIP3   OH279318   4.790   2.307   1.742  0.1769  0.0879  0.2546
19276TIP3    H179319   4.871   2.290   1.696  0.3336  1.7754 -0.1565
19276TIP3    H279320   4.726   2.250   1.700  0.4855  1.0177 -1.5607
19277TIP3   OH279321   2.640   1.671  11.997  0.4112 -0.3051 -0.6267
19277TIP3    H179322   2.593   1.747  12.032  1.8686  0.0618  0.6204
19277TIP3    H279323   2.586   1.642  11.924 -0.7338  1.2828 -0.4728
19278TIP3   OH279324   1.886   5.104   0.021 -0.1464 -0.1007 -0.1500
19278TIP3    H179325   1.843   5.060   0.095  2.3064  1.5101  2.4389
19278TIP3    H279326   1.972   5.062   0.016  0.0990  0.5243 -1.4486
19279TIP3   OH279327   5.630   5.335   0.679 -0.3416 -0.3970  0.4981
19279TIP3    H179328   5.580   5.258   0.651  2.2228 -1.7627 -0.6121
19279TIP3    H279329   5.638   5.388   0.600  0.6991 -0.6495  0.4202
19280TIP3   OH279330   2.625   2.595  16.046 -0.2481  0.0271 -0.5631
19280TIP3    H179331   2.591   2.684  16.038  0.7163  0.2519 -3.2305
19280TIP3    H279332   2.549   2.543  16.073 -0.8043  1.6118  1.1949
19281TIP3   OH279333   6.366   1.938   0.223 -0.2589  0.0478 -0.2170
19281TIP3    H179334   6.329   1.893   0.147 -0.6048  1.8268 -1.1392
19281TIP3    H279335   6.399   1.867   0.279  0.9928 -1.2735 -2.5106
19282TIP3   OH279336   3.586   4.571  15.079 -0.2277 -0.1955  0.0139
19282TIP3    H179337   3.569   4.492  15.027 -2.2376 -1.0350  1.7791
19282TIP3    H279338   3.590   4.539  15.169 -1.1661  1.7197  0.7774
19283TIP3   OH279339   2.671   0.843   4.440  0.2651  0.3752 -0.2026
19283TIP3    H179340   2.737   0.850   4.371  2.1908 -0.0427  1.4944
19283TIP3    H279341   2.669   0.750   4.462  1.8824  0.8345  2.2278
19284TIP3   OH279342   6.797   1.285  12.372 -0.8867  0.5054  0.1764
19284TIP3    H179343   6.853   1.324  12.439 -0.8676  1.2456 -0.2651
19284TIP3    H279344   6.850   1.288  12.292 -1.0259 -0.0952  0.0516
19285TIP3   OH279345   4.976   2.609   2.696  0.0295  0.2347  0.5401
19285TIP3    H179346   4.907   2.544   2.708 -0.7403  1.1120  0.9631
19285TIP3    H279347   5.057   2.562   2.716 -0.5788 -0.4056  1.5711
19286TIP3   OH279348   5.512   2.219   4.574  0.6137  0.0980  0.6595
19286TIP3    H179349   5.585   2.274   4.547 -0.0576  0.2819 -0.8289
19286TIP3    H279350   5.504   2.235   4.668 -0.3168  3.5093  0.1278
19287TIP3   OH279351   3.762   0.344   5.622 -0.8328 -0.5372 -0.4177
19287TIP3    H179352   3.831   0.334   5.688 -0.9879  0.9553  0.0059
19287TIP3    H279353   3.754   0.257   5.583  1.1009 -0.8133 -0.3070
19288TIP3   OH279354   1.652   0.703   2.957  0.3565  0.0591 -0.7155
19288TIP3    H179355   1.700   0.761   2.898  0.4056 -1.3842 -2.1694
19288TIP3    H279356   1.720   0.659   3.008  0.4320 -0.0429 -0.9021
19289TIP3   OH279357   2.378   0.617   1.371 -0.1674 -0.4140 -0.4579
19289TIP3    H179358   2.385   0.698   1.322 -0.1308 -0.1077  0.0425
19289TIP3    H279359   2.287   0.590   1.362 -0.3331  0.0189 -0.1107
19290TIP3   OH279360   5.361   4.985   1.832  0.1268 -0.3488  0.1114
19290TIP3    H179361   5.333   5.070   1.797 -2.5779 -0.6871  1.1918
19290TIP3    H279362   5.416   5.007   1.907  1.0035  0.3857 -0.7102
19291TIP3   OH279363   6.541   1.525  14.662  0.4886  0.1438  0.5860
19291TIP3    H179364   6.589   1.585  14.605 -1.7171  0.0535 -1.5190
19291TIP3    H279365   6.519   1.451  14.606  0.4143 -1.1978  2.2998
19292TIP3   OH279366   1.775   3.311  13.259 -0.5861  0.1032  0.3763
19292TIP3    H179367   1.710   3.287  13.325 -0.1614 -1.1700  0.3513
19292TIP3    H279368   1.850   3.343  13.309  0.3683 -2.3733  0.6532
19293TIP3   OH279369   5.168   2.011   1.208 -0.7155  0.0140  0.0483
19293TIP3    H179370   5.156   2.101   1.177 -1.1331 -0.6213 -1.7936
19293TIP3    H279371   5.107   2.002   1.281 -1.7863  0.7857 -0.7131
19294TIP3   OH279372   1.011   4.933   6.256  0.0760  0.4254 -0.9099
19294TIP3    H179373   0.933   4.881   6.275  0.4366  0.0301 -0.4598
19294TIP3    H279374   1.077   4.868   6.231  0.3733  0.7166 -0.8874
19295TIP3   OH279375   0.485   0.295   5.717  0.3992 -0.0028 -0.1770
19295TIP3    H179376   0.476   0.288   5.622  0.9618  0.7479 -0.2936
19295TIP3    H279377   0.569   0.252   5.736  0.9171  0.9625 -0.1876
19296TIP3   OH279378   4.397   1.708  11.873  0.7817  0.2300  0.0509
19296TIP3    H179379   4.320   1.661  11.841 -0.2533  1.4953  0.5928
19296TIP3    H279380   4.441   1.646  11.930 -0.0580 -0.3947  0.0417
19297TIP3   OH279381   4.383   4.442  16.002  0.5651 -0.0432 -0.2364
19297TIP3    H179382   4.355   4.379  15.936  0.5385 -2.2059  1.7172
19297TIP3    H279383   4.471   4.467  15.977  0.7945 -1.3301 -0.7599
19298TIP3   OH279384   2.229   1.741  16.927  0.5122 -0.0965 -0.1194
19298TIP3    H179385   2.250   1.648  16.934 -1.5856 -0.7507 -1.4806
19298TIP3    H279386   2.291   1.775  16.863 -0.4815 -1.2754 -1.7973
19299TIP3   OH279387   1.010   3.885   5.194  0.0575 -0.7907 -0.0230
19299TIP3    H179388   1.089   3.906   5.144 -0.9877  1.5245 -0.8616
19299TIP3    H279389   1.016   3.791   5.210  1.0027 -1.5080 -3.6070
19300TIP3   OH279390   0.662   0.071   0.824 -0.0585  0.2551 -0.4777
19300TIP3    H179391   0.589   0.063   0.762 -0.7626 -0.3209  0.4020
19300TIP3    H279392   0.622   0.098   0.906  0.9636  1.8211 -0.4455
19301TIP3   OH279393   3.281   2.324  11.847  0.0198  0.3357  0.1769
19301TIP3    H179394   3.204   2.379  11.864  0.1452  1.0303 -1.3225
19301TIP3    H279395   3.246   2.237  11.830 -0.3033  0.2888  1.0404
19302TIP3   OH279396   6.020   2.060   0.637  0.7378  0.3828  0.2149
19302TIP3    H179397   5.977   1.978   0.662  2.4138 -0.2971  1.0703
19302TIP3    H279398   5.974   2.089   0.559 -1.3873 -0.1541  1.1886
19303TIP3   OH279399   0.162   0.408   5.941 -0.1650  0.4898 -0.4209
19303TIP3    H179400   0.207   0.480   5.986  0.5823  0.7133 -1.4978
19303TIP3    H279401   0.117   0.361   6.012  0.3042  1.3129  0.4552
19304TIP3   OH279402   0.194   4.695  14.413  0.0721  0.0115 -0.2698
19304TIP3    H179403   0.120   4.725  14.361 -0.5724 -0.4756  0.3565
19304TIP3    H279404   0.159   4.682  14.501  1.3395  1.7576  0.5623
19305TIP3   OH279405   4.805   1.134  14.777 -0.1913 -0.3940 -0.2312
19305TIP3    H179406   4.779   1.091  14.858 -2.0651  0.5103 -0.2770
19305TIP3    H279407   4.742   1.102  14.712 -0.1383  0.5924 -0.7870
19306TIP3   OH279408   0.228   2.493   4.012  0.3371 -0.4384 -0.2211
19306TIP3    H179409   0.168   2.493   4.087  0.2518 -0.7564 -0.2901
19306TIP3    H279410   0.232   2.401   3.985 -1.9226  0.0265 -2.4707
19307TIP3   OH279411   5.518   3.409  16.943 -0.8365  0.1055  0.4284
19307TIP3    H179412   5.487   3.383  17.030 -1.7406  3.0374  1.1038
19307TIP3    H279413   5.546   3.501  16.955  0.9363 -0.0400 -1.9436
19308TIP3   OH279414   6.608   2.712  16.351  0.0198 -0.0465  0.0846
19308TIP3    H179415   6.642   2.781  16.408  1.5155  0.6887 -1.5914
19308TIP3    H279416   6.513   2.725  16.351  0.2401  1.8406  0.0715
19309TIP3   OH279417   1.424   5.415  10.990  0.0583 -0.6626 -0.0304
19309TIP3    H179418   1.359   5.379  11.050  0.1028  1.0915  1.1368
19309TIP3    H279419   1.400   5.378  10.905 -1.8283 -0.8816  0.5493
19310TIP3   OH279420   0.257   4.061  15.051 -0.0866 -0.5272 -0.3981
19310TIP3    H179421   0.183   4.049  15.110 -1.3272  1.3200 -1.4653
19310TIP3    H279422   0.217   4.076  14.965  1.6150 -1.4291 -1.3993
19311TIP3   OH279423   5.080   2.326   0.822  0.3436 -0.2148  0.3301
19311TIP3    H179424   5.115   2.415   0.823  0.8774 -0.4170 -0.1604
19311TIP3    H279425   5.066   2.306   0.730 -0.3648 -0.4163  0.4746
19312TIP3   OH279426   3.605   2.568   0.916  0.2068 -0.5382 -0.1293
19312TIP3    H179427   3.567   2.555   1.003  0.0618  1.0967  0.0709
19312TIP3    H279428   3.547   2.519   0.858 -1.5998  0.9388  0.3163
19313TIP3   OH279429   0.037   5.297  14.521 -0.3859  0.2321 -0.4491
19313TIP3    H179430   0.047   5.390  14.542 -2.1412 -0.0589  2.1696
19313TIP3    H279431   0.121   5.258  14.545 -0.7312  0.7088  1.7916
19314TIP3   OH279432   3.667   5.861  11.041 -0.2351 -0.8004 -0.2826
19314TIP3    H179433   3.640   5.774  11.072  0.4815 -1.1081 -0.5015
19314TIP3    H279434   3.761   5.865  11.059 -0.6597  0.9023  2.0212
19315TIP3   OH279435   0.326   6.726   0.465  0.1232 -0.2193 -0.3609
19315TIP3    H179436   0.281   6.792   0.412 -0.3509 -0.9083 -0.8329
19315TIP3    H279437   0.258   6.663   0.487  0.7379 -0.9636 -0.5824
19316TIP3   OH279438   4.270   2.636   0.138  0.0620  0.5034 -0.3787
19316TIP3    H179439   4.271   2.631   0.042  2.1160 -2.2383 -0.3310
19316TIP3    H279440   4.248   2.727   0.157 -1.7203  0.8275 -3.3953
19317TIP3   OH279441   5.090   3.409   0.080 -0.6379 -0.3526 -0.4949
19317TIP3    H179442   5.132   3.340   0.028 -0.2938 -0.4673 -0.0728
19317TIP3    H279443   5.126   3.490   0.046  0.3250 -0.4751  0.2062
19318TIP3   OH279444   6.333   4.958   0.180  0.3161 -0.4742 -0.4231
19318TIP3    H179445   6.272   4.885   0.174  0.3406 -0.5103 -0.2476
19318TIP3    H279446   6.289   5.021   0.238  0.7630 -0.8182  0.2985
19319TIP3   OH279447   1.051   0.669   5.065  0.5108  0.4098  0.0560
19319TIP3    H179448   1.113   0.723   5.016  0.4321 -0.3077 -0.8581
19319TIP3    H279449   1.085   0.668   5.154  0.2596  2.3432  0.2228
19320TIP3   OH279450   2.758   2.409   2.971  0.3014  0.2521  0.6972
19320TIP3    H179451   2.685   2.361   2.933  1.2962  0.7547 -2.0943
19320TIP3    H279452   2.731   2.501   2.969 -0.4245  0.1734  3.2633
19321TIP3   OH279453   2.065   2.032   0.939 -0.3503 -0.1251 -0.0405
19321TIP3    H179454   1.999   2.084   0.984 -0.0025  0.2216  0.0724
19321TIP3    H279455   2.117   1.993   1.009 -0.3879 -0.3459 -0.1314
19322TIP3   OH279456   1.007   2.743   1.271  0.1092  0.6936 -0.2570
19322TIP3    H179457   1.091   2.701   1.286  0.9911  1.7789 -1.8403
19322TIP3    H279458   1.024   2.837   1.280 -1.2205  0.8798  0.6301
19323TIP3   OH279459   5.753   3.515  13.919  0.1252 -0.8336 -0.1709
19323TIP3    H179460   5.740   3.605  13.890 -0.9610 -0.4913  1.3378
19323TIP3    H279461   5.731   3.462  13.842  0.7340  0.1636 -1.0586
19324TIP3   OH279462   4.765   2.904   5.436 -0.3470 -0.1470  0.1876
19324TIP3    H179463   4.735   2.865   5.518 -0.5360 -1.2537 -0.3820
19324TIP3    H279464   4.776   2.997   5.456  0.1321 -0.4834  1.6005
19325TIP3   OH279465   3.849   2.304   0.821 -0.4458  0.3653 -0.1660
19325TIP3    H179466   3.911   2.354   0.769  0.0694  0.1916  0.2778
19325TIP3    H279467   3.807   2.368   0.877 -1.0784  0.5713 -0.8528
19326TIP3   OH279468   4.018   1.106   2.085 -0.1418 -0.1024  0.2935
19326TIP3    H179469   4.061   1.186   2.056  1.9357 -0.7515  1.3958
19326TIP3    H279470   4.007   1.054   2.005  1.5647 -0.0810  0.0019
19327TIP3   OH279471   5.017   1.431   3.924  0.0598  0.2369  0.1181
19327TIP3    H179472   5.106   1.403   3.947  0.4788  1.7853  0.4405
19327TIP3    H279473   4.996   1.500   3.987 -1.0982  0.3899 -0.4147
19328TIP3   OH279474   4.098   1.158   3.988 -0.4186  0.7419  0.4263
19328TIP3    H179475   4.037   1.154   4.061  0.5672 -0.6368  1.2056
19328TIP3    H279476   4.043   1.164   3.911 -1.5494 -0.6416  1.0998
19329TIP3   OH279477   3.798   3.273  10.853  0.5295 -0.2357  0.2040
19329TIP3    H179478   3.706   3.281  10.879 -0.1674  0.1799 -2.1771
19329TIP3    H279479   3.804   3.186  10.813  1.3413 -0.4935  0.8581
19330TIP3   OH279480   6.495   5.812  16.801 -0.0718  0.2141  0.3304
19330TIP3    H179481   6.503   5.724  16.764  0.7606  0.4608 -0.0839
19330TIP3    H279482   6.412   5.809  16.849 -1.9667  0.2786 -2.6627
19331TIP3   OH279483   6.141   2.258  14.027  0.3787 -0.2126 -0.1896
19331TIP3    H179484   6.127   2.327  14.092 -1.9859 -0.4189 -0.3904
19331TIP3    H279485   6.114   2.177  14.071  0.8062 -0.6697 -0.7420
19332TIP3   OH279486   5.585   4.629  13.622  0.0688  0.6369  0.2441
19332TIP3    H179487   5.595   4.713  13.667 -2.3518  0.0218  2.1679
19332TIP3    H279488   5.491   4.612  13.625  0.4655 -2.0280 -0.3421
19333TIP3   OH279489   1.891   0.071  16.290  0.0533  0.0154  0.3048
19333TIP3    H179490   1.912  -0.021  16.274  0.7609  0.1637  0.3588
19333TIP3    H279491   1.847   0.099  16.210  1.4997  0.1283 -0.4678
19334TIP3   OH279492   0.944   0.407   2.566 -0.7199 -0.3697  0.0103
19334TIP3    H179493   0.930   0.501   2.572 -0.9958 -0.2322 -2.0525
19334TIP3    H279494   0.856   0.369   2.571 -0.5888 -0.5421  1.0841
19335TIP3   OH279495   0.836   4.098   6.207 -0.1130 -0.4743  0.2783
19335TIP3    H179496   0.924   4.063   6.219 -1.4358 -3.8111  1.5367
19335TIP3    H279497   0.778   4.028   6.238 -3.2719  1.0244 -1.7382
19336TIP3   OH279498   2.339   1.847  12.981  0.2212 -0.0269  0.0916
19336TIP3    H179499   2.255   1.891  12.969  0.4947  0.5846  0.3631
19336TIP3    H279500   2.341   1.824  13.074 -0.1445 -1.0926 -0.1573
19337TIP3   OH279501   4.104   0.396   3.629 -0.3643  0.3193 -0.0053
19337TIP3    H179502   4.152   0.450   3.692 -0.1950  0.7963 -0.5299
19337TIP3    H279503   4.171   0.348   3.581 -0.5749 -2.7140  2.4113
19338TIP3   OH279504   3.756   6.573   6.260 -0.0181 -0.3449  0.2210
19338TIP3    H179505   3.698   6.499   6.242  0.4767 -0.8117  0.5291
19338TIP3    H279506   3.697   6.648   6.271 -0.5551 -0.7956  0.4452
19339TIP3   OH279507   3.746   1.068   0.071 -0.2172 -0.2649  0.3264
19339TIP3    H179508   3.767   1.113  -0.011 -0.6172  0.4572  0.6063
19339TIP3    H279509   3.706   0.986   0.044  1.3684 -0.8968 -0.2033
19340TIP3   OH279510   2.613   5.389  15.173  0.2622 -0.0887  0.2426
19340TIP3    H179511   2.535   5.340  15.148  1.2565 -2.0125  0.7152
19340TIP3    H279512   2.580   5.476  15.195 -1.6413 -0.6330 -0.2289
19341TIP3   OH279513   0.431   6.013   0.950  0.0706 -0.2638  0.1933
19341TIP3    H179514   0.453   5.951   1.019 -0.4611  0.5879  1.1626
19341TIP3    H279515   0.477   5.981   0.873  1.3109 -0.8186  1.1255
19342TIP3   OH279516   4.570   6.459   2.082  0.9056  0.2409 -0.4773
19342TIP3    H179517   4.542   6.399   2.013  2.4101  0.2867 -1.1595
19342TIP3    H279518   4.504   6.448   2.151  0.2960 -1.0353 -1.2248
19343TIP3   OH279519   5.168   6.530  14.711  0.3288  0.3347  0.5309
19343TIP3    H179520   5.141   6.606  14.762 -0.4187  0.0795  0.5282
19343TIP3    H279521   5.223   6.565  14.641 -0.1841  0.8867  0.4066
19344TIP3   OH279522   6.698   2.509  16.584  0.2232  0.1142 -0.2786
19344TIP3    H179523   6.683   2.451  16.508 -2.5912 -1.6161  1.4257
19344TIP3    H279524   6.619   2.563  16.589 -1.6474 -2.4900  3.4599
19345TIP3   OH279525   6.591   0.774   0.108  0.3299  0.0565  0.2451
19345TIP3    H179526   6.540   0.722   0.047  0.8132  0.5063 -0.5585
19345TIP3    H279527   6.681   0.770   0.075  0.2951  1.8773 -0.1934
19346TIP3   OH279528   0.576   0.696   3.546 -0.1667  0.2085  0.0108
19346TIP3    H179529   0.499   0.708   3.491  0.1144  0.3571 -0.3546
19346TIP3    H279530   0.573   0.605   3.573  0.7733 -0.4603 -1.9240
19347TIP3   OH279531   2.713   0.723   0.563 -0.1855 -0.0467  0.2918
19347TIP3    H179532   2.730   0.654   0.627 -1.0543  0.0764  0.6694
19347TIP3    H279533   2.768   0.796   0.591 -0.7645  0.1019  1.0660
19348TIP3   OH279534   4.516   4.832   2.749 -0.3831 -0.3743 -0.0839
19348TIP3    H179535   4.501   4.809   2.657 -0.7430  2.2861 -0.7821
19348TIP3    H279536   4.439   4.883   2.773 -0.1410 -0.7584  1.6286
19349TIP3   OH279537   5.883   4.894  16.379 -0.0804  0.0517  0.2915
19349TIP3    H179538   5.811   4.879  16.441  1.1111  0.1443  1.7449
19349TIP3    H279539   5.916   4.981  16.402  0.6354 -0.0844 -0.1977
19350TIP3   OH279540   2.973   5.582   1.705 -0.9000  0.3374  0.1185
19350TIP3    H179541   3.005   5.505   1.751  0.1995  0.1029 -0.9717
19350TIP3    H279542   2.878   5.569   1.700 -0.7819 -0.7379  0.3438
19351TIP3   OH279543   0.072   0.563  14.828  0.3702 -0.5648  0.1688
19351TIP3    H179544   0.074   0.526  14.917  0.0871  0.5229  0.6456
19351TIP3    H279545   0.017   0.503  14.778 -0.5752 -0.4649  1.0672
19352TIP3   OH279546   0.605   2.115   2.613 -0.1269  0.1548  0.2842
19352TIP3    H179547   0.679   2.099   2.555  0.1624  0.6993  0.4951
19352TIP3    H279548   0.637   2.090   2.700 -0.3020  0.0622  0.3213
19353TIP3   OH279549   5.728   3.472   4.679  0.2543  0.2181 -0.7284
19353TIP3    H179550   5.681   3.472   4.596 -1.3096 -0.1129  0.1172
19353TIP3    H279551   5.727   3.380   4.707  0.5860  0.3611 -0.2343
19354TIP3   OH279552   5.876   2.553   1.557  0.0166  0.4670  0.2858
19354TIP3    H179553   5.879   2.489   1.628  0.4588  1.3250  1.0655
19354TIP3    H279554   5.788   2.545   1.521  0.1474 -0.7407  0.2065
19355TIP3   OH279555   2.673   5.882   5.120  0.4396 -0.0058 -0.3624
19355TIP3    H179556   2.596   5.827   5.111  1.2168 -1.1247 -0.3306
19355TIP3    H279557   2.712   5.884   5.033  1.5284 -1.2022  0.0727
19356TIP3   OH279558   3.376   5.706  15.132 -0.1512 -0.3698 -0.6107
19356TIP3    H179559   3.362   5.734  15.223  0.0123 -0.0835 -0.6727
19356TIP3    H279560   3.297   5.659  15.110 -0.5889  0.3580 -0.6222
19357TIP3   OH279561   1.406   0.944   3.374  0.2527 -0.3553  0.6964
19357TIP3    H179562   1.477   1.008   3.368 -0.1590  0.0272 -0.3675
19357TIP3    H279563   1.443   0.864   3.337  0.3005 -0.3140  0.6538
19358TIP3   OH279564   2.310   2.484  17.089 -0.5089  0.0366  0.2194
19358TIP3    H179565   2.334   2.576  17.091  0.4455 -0.1992  0.8245
19358TIP3    H279566   2.280   2.468  17.000  1.0972  0.5220 -0.4470
19359TIP3   OH279567   1.614   6.203   2.438 -0.0464  0.2924 -0.3024
19359TIP3    H179568   1.639   6.276   2.493 -1.4616  0.3623  0.2727
19359TIP3    H279569   1.672   6.131   2.465 -2.4293 -0.5258  3.3108
19360TIP3   OH279570   2.083   4.070   1.167  0.0426  0.1208 -0.3973
19360TIP3    H179571   2.099   4.134   1.098  0.1099  0.2898 -0.2254
19360TIP3    H279572   2.035   3.999   1.123  0.3021  0.1121 -0.6712
19361TIP3   OH279573   3.311   3.079   2.731 -0.0136  0.0201  0.3953
19361TIP3    H179574   3.394   3.032   2.726 -0.2793 -0.7549  2.3516
19361TIP3    H279575   3.247   3.019   2.694  0.1131  0.1538 -0.0490
19362TIP3   OH279576   6.488   0.589   5.196 -0.1570  0.4960  0.4604
19362TIP3    H179577   6.465   0.681   5.202  0.8673  0.6771  2.2762
19362TIP3    H279578   6.430   0.545   5.258  0.4958  0.1768  0.8560
19363TIP3   OH279579   1.410   3.721   2.703  0.3414 -0.1444 -0.8195
19363TIP3    H179580   1.440   3.705   2.614 -0.3919 -1.5279 -0.8464
19363TIP3    H279581   1.488   3.716   2.757  0.6795 -0.0142 -1.2897
19364TIP3   OH279582   0.706   0.023   5.466 -0.1512 -0.5749  0.8739
19364TIP3    H179583   0.641   0.006   5.397 -0.0647  0.3298  0.5449
19364TIP3    H279584   0.694  -0.048   5.529 -1.9176 -0.0848  1.1505
19365TIP3   OH279585   3.613   5.118  15.542 -0.2084  0.5273 -0.1131
19365TIP3    H179586   3.684   5.080  15.490 -1.1309  2.5103 -3.0216
19365TIP3    H279587   3.645   5.206  15.565 -1.2374  0.9808 -0.3873
19366TIP3   OH279588   3.014   3.491  13.848 -0.2376 -0.1903  0.0007
19366TIP3    H179589   3.031   3.412  13.797  0.0578  0.4178 -0.8879
19366TIP3    H279590   2.941   3.533  13.802 -0.1953  0.1998  0.2821
19367TIP3   OH279591   1.830   4.783  14.212 -0.4781 -0.3830  0.5421
19367TIP3    H179592   1.879   4.705  14.239 -0.3717 -0.5813 -0.1963
19367TIP3    H279593   1.805   4.765  14.121  1.0497  1.1803 -0.2484
19368TIP3   OH279594   4.457   3.128  10.769  0.7965 -0.1840 -0.4930
19368TIP3    H179595   4.388   3.115  10.704  0.8622 -0.5079 -0.5047
19368TIP3    H279596   4.464   3.222  10.780  0.6783 -0.1345 -0.8433
19369TIP3   OH279597   4.978   5.805  17.099  0.6476 -0.1589 -0.4512
19369TIP3    H179598   4.932   5.751  17.163  0.6681  0.5483  0.1669
19369TIP3    H279599   4.980   5.751  17.019 -1.5944 -0.0430 -0.6392
19370TIP3   OH279600   3.581   2.401   4.760 -0.1105 -0.2577 -0.4724
19370TIP3    H179601   3.570   2.475   4.700  0.8721  0.2776 -0.0241
19370TIP3    H279602   3.636   2.339   4.712  0.6589  0.1615 -0.1483
19371TIP3   OH279603   5.707   0.841   2.731 -0.2812  0.2256 -0.0942
19371TIP3    H179604   5.615   0.867   2.736 -0.5563 -0.8500  1.3204
19371TIP3    H279605   5.737   0.873   2.646 -1.3903  2.3849  0.2544
19372TIP3   OH279606   1.615   3.194   0.497  0.0900  0.5178 -0.0298
19372TIP3    H179607   1.567   3.276   0.486 -0.8700 -0.0249 -0.0267
19372TIP3    H279608   1.547   3.129   0.512  0.8448 -0.2736  0.0281
19373TIP3   OH279609   2.693   6.152  17.032 -0.3790  0.0715  0.0566
19373TIP3    H179610   2.745   6.229  17.010 -1.4459  0.7488 -0.1908
19373TIP3    H279611   2.603   6.177  17.009 -0.9844 -0.6464  1.5020
19374TIP3   OH279612   4.467   4.010  12.768  0.1971  0.3609 -0.2718
19374TIP3    H179613   4.379   3.970  12.763  0.6406 -0.4796 -2.2401
19374TIP3    H279614   4.450   4.104  12.778 -0.8875 -0.0038  1.8704
19375TIP3   OH279615   2.720   2.898  11.318 -0.2205 -0.1911  0.2061
19375TIP3    H179616   2.682   2.828  11.264  1.9035 -0.4152 -1.1646
19375TIP3    H279617   2.680   2.978  11.286 -0.2269 -0.4941 -0.5832
19376TIP3   OH279618   6.825   2.070   0.695 -0.1214 -0.3118 -0.0088
19376TIP3    H179619   6.871   2.123   0.760  0.3395  1.1952 -1.4959
19376TIP3    H279620   6.732   2.091   0.707  0.1384  1.8877 -1.3907
19377TIP3   OH279621   1.435   4.994  11.863  0.0746 -0.2887  0.2857
19377TIP3    H179622   1.441   5.039  11.947 -1.0366  2.7803 -1.1119
19377TIP3    H279623   1.500   5.037  11.808 -1.2009 -0.1748 -1.2098
19378TIP3   OH279624   3.288   0.706   1.749 -0.4976  0.2076 -0.4322
19378TIP3    H179625   3.341   0.744   1.679  1.2905  0.4866  0.9927
19378TIP3    H279626   3.350   0.657   1.802 -2.1435 -1.6688 -0.1159
19379TIP3   OH279627   3.921   2.685   3.743 -0.8613  0.6834 -0.6931
19379TIP3    H179628   3.968   2.673   3.825 -1.3302 -0.5626 -0.5846
19379TIP3    H279629   3.964   2.626   3.682 -1.7291  0.1519 -0.8126
19380TIP3   OH279630   5.110   2.040   2.105 -0.0831 -0.0599  0.2603
19380TIP3    H179631   5.016   2.054   2.117  0.2300  1.3349  1.4265
19380TIP3    H279632   5.150   2.121   2.136  1.5525 -0.8714  0.3819
19381TIP3   OH279633   1.192   5.154   3.929  0.4188  0.2730  0.1592
19381TIP3    H179634   1.156   5.189   3.848  0.8998 -1.6415 -0.9271
19381TIP3    H279635   1.255   5.220   3.958  0.0715  1.0834 -0.8933
19382TIP3   OH279636   5.232   3.051  16.174 -0.0263  0.5082 -0.1027
19382TIP3    H179637   5.225   2.997  16.253 -0.8415  2.5281  1.2738
19382TIP3    H279638   5.301   3.009  16.123  1.1731 -0.3682  2.1093
19383TIP3   OH279639   2.292   1.750  13.249  0.2978 -0.5842  0.3352
19383TIP3    H179640   2.198   1.755  13.263  0.0476 -0.3624 -1.1998
19383TIP3    H279641   2.320   1.672  13.298 -0.7027 -0.7142  0.7075
19384TIP3   OH279642   2.343   1.611   4.000 -0.3831  0.2222  0.2079
19384TIP3    H179643   2.348   1.556   4.079 -1.6364  1.2482  1.0312
19384TIP3    H279644   2.366   1.698   4.030  0.5837  0.3684 -0.8918
19385TIP3   OH279645   0.507   2.019  11.868  0.2122 -0.1247 -0.3244
19385TIP3    H179646   0.414   2.002  11.851  0.3212 -0.4701 -0.5845
19385TIP3    H279647   0.516   2.006  11.962 -0.4584  2.0975  0.1008
19386TIP3   OH279648   2.714   4.552   3.624 -0.6566  0.1816  0.3299
19386TIP3    H179649   2.804   4.520   3.625 -0.8918 -0.4777  0.8231
19386TIP3    H279650   2.712   4.613   3.550  0.2151  0.2830  0.3702
19387TIP3   OH279651   0.143   5.585  14.830  0.1495  0.7186  0.5806
19387TIP3    H179652   0.223   5.545  14.796 -0.7173  0.1580 -0.8301
19387TIP3    H279653   0.116   5.647  14.762 -2.5658 -1.6512 -0.6635
19388TIP3   OH279654   2.999   0.486   3.928  0.0310  0.1391 -0.0849
19388TIP3    H179655   2.984   0.571   3.970 -0.8100 -0.1502  0.2238
19388TIP3    H279656   3.044   0.508   3.846 -0.9761  0.9655 -0.4411
19389TIP3   OH279657   4.201   4.723  14.781 -0.2438 -0.3627  0.4694
19389TIP3    H179658   4.117   4.754  14.814 -1.5737 -1.9025 -1.2795
19389TIP3    H279659   4.260   4.797  14.795 -2.4647  1.7541 -0.5075
19390TIP3   OH279660   3.944   3.527  13.892  0.4717  0.1047 -0.6893
19390TIP3    H179661   3.931   3.485  13.978  0.4875 -1.4270 -1.4041
19390TIP3    H279662   3.883   3.601  13.892  2.5416  2.0217  1.7940
19391TIP3   OH279663   5.030   2.465  13.916  0.3432 -0.1807 -0.2496
19391TIP3    H179664   5.103   2.527  13.911  0.5750 -0.4851 -0.7621
19391TIP3    H279665   5.058   2.401  13.982  0.7720 -0.5843 -0.8130
19392TIP3   OH279666   2.016   3.970   5.517  0.2657  0.2927 -0.4439
19392TIP3    H179667   2.048   3.948   5.604  2.8319  0.3888 -1.2746
19392TIP3    H279668   1.990   3.887   5.478 -1.2863  0.2953  0.4938
19393TIP3   OH279669   5.212   6.455  13.555  0.2049  0.2554 -0.1054
19393TIP3    H179670   5.119   6.472  13.540  0.2909  0.8545  0.0267
19393TIP3    H279671   5.217   6.361  13.568 -0.5427  0.3493  1.0286
19394TIP3   OH279672   6.417   2.863   5.762  0.2116  0.3732 -0.3587
19394TIP3    H179673   6.412   2.922   5.686 -0.7378  0.1856 -0.4523
19394TIP3    H279674   6.327   2.834   5.776  0.5933 -0.7003 -0.0275
19395TIP3   OH279675   5.006   6.100   3.224 -0.5159  0.7152  0.1076
19395TIP3    H179676   4.911   6.097   3.235 -0.5303  0.8559  0.0255
19395TIP3    H279677   5.031   6.012   3.198 -0.6117  0.6510  0.2320
19396TIP3   OH279678   0.783   5.223  15.888  0.2697  0.4950 -0.6307
19396TIP3    H179679   0.693   5.255  15.880  1.1166  3.1610 -0.3412
19396TIP3    H279680   0.798   5.174  15.807 -1.8614 -1.3201 -0.0461
19397TIP3   OH279681   0.323   2.869  12.419 -0.7682  0.1640  0.1392
19397TIP3    H179682   0.371   2.835  12.344  0.6068 -1.7023  1.7550
19397TIP3    H279683   0.235   2.887  12.386 -0.0540 -0.0603 -2.0009
19398TIP3   OH279684   4.352   1.565   5.984 -0.4205 -0.7813  0.9508
19398TIP3    H179685   4.271   1.564   6.035 -0.8503  1.9324  0.4622
19398TIP3    H279686   4.386   1.654   5.994  0.6758 -0.8049 -1.6418
19399TIP3   OH279687   3.275   6.362   3.553  0.2245 -0.4829 -0.0199
19399TIP3    H179688   3.307   6.449   3.577  0.3168 -0.2959 -0.8000
19399TIP3    H279689   3.198   6.349   3.609  1.6088 -0.9514  1.8865
19400TIP3   OH279690   5.935   0.663   0.893 -0.2535  0.2182 -0.6216
19400TIP3    H179691   5.943   0.608   0.815  2.1885  1.6412 -1.4578
19400TIP3    H279692   5.845   0.696   0.890 -0.7245 -1.0929 -1.8671
19401TIP3   OH279693   2.132   2.716   4.141  0.1976  0.3554 -0.2373
19401TIP3    H179694   2.072   2.670   4.198  0.8615  0.2277  0.3738
19401TIP3    H279695   2.218   2.705   4.182  0.8870 -0.7621 -1.8893
19402TIP3   OH279696   1.340   2.962  16.146  0.5238  0.1535  0.0847
19402TIP3    H179697   1.378   3.050  16.145 -0.0043  0.3912  0.1550
19402TIP3    H279698   1.253   2.974  16.185  1.3080 -0.7618  2.2729
19403TIP3   OH279699   4.678   2.334   2.917 -0.7487  0.0837  0.4721
19403TIP3    H179700   4.610   2.268   2.929  0.5041 -1.5640 -0.9842
19403TIP3    H279701   4.713   2.349   3.005 -1.7610 -0.3917  0.9758
19404TIP3   OH279702   4.722   6.563  13.675 -0.2898 -0.1859  0.2900
19404TIP3    H179703   4.717   6.480  13.723 -1.4874 -1.4439 -1.8822
19404TIP3    H279704   4.636   6.572  13.634  0.0758  1.7715 -0.1264
19405TIP3   OH279705   1.881   5.530   1.049  0.1939 -0.0435 -0.1879
19405TIP3    H179706   1.956   5.474   1.031  1.2432  0.8704  1.1827
19405TIP3    H279707   1.911   5.591   1.116 -1.4628  1.0181 -0.3417
19406TIP3   OH279708   4.666   3.327  13.711  0.6169  0.1843  0.1803
19406TIP3    H179709   4.698   3.412  13.740  0.0313  1.1515 -1.8921
19406TIP3    H279710   4.571   3.336  13.710  0.5970  0.8575 -3.6371
19407TIP3   OH279711   5.023   2.010   5.664  0.0456  0.4903  0.3379
19407TIP3    H179712   5.086   1.984   5.732 -0.0191 -2.1650 -0.5059
19407TIP3    H279713   5.077   2.033   5.589  0.0637 -0.7861 -0.0571
19408TIP3   OH279714   6.811   3.148  13.451 -0.2551  0.5691  0.1414
19408TIP3    H179715   6.855   3.190  13.377 -0.4057  0.1838 -0.1664
19408TIP3    H279716   6.873   3.082  13.481  0.2328  1.3766  0.9941
19409TIP3   OH279717   3.335   2.057  11.551  0.0456 -0.0828  0.0442
19409TIP3    H179718   3.346   2.053  11.456  1.2570  0.2044  0.1494
19409TIP3    H279719   3.349   1.967  11.581 -0.5981 -0.2226 -0.0689
19410TIP3   OH279720   1.944   0.904   0.033 -0.4106 -0.3331  0.0268
19410TIP3    H179721   1.940   0.867  -0.055  0.5962  1.2251 -0.7166
19410TIP3    H279722   1.978   0.833   0.088 -0.5251 -1.1485 -0.9425
19411TIP3   OH279723   1.709   5.026  17.031  0.5405 -0.4271 -0.5110
19411TIP3    H179724   1.739   4.937  17.010  0.2063 -0.7180  0.2145
19411TIP3    H279725   1.755   5.048  17.112  0.2710 -0.1179 -0.4380
19412TIP3   OH279726   0.262   1.767   4.815  0.9338 -0.3067 -0.1215
19412TIP3    H179727   0.355   1.745   4.804  0.8229 -0.6685 -0.3654
19412TIP3    H279728   0.226   1.695   4.866  0.6759 -0.4386 -0.4834
19413TIP3   OH279729   4.489   2.749   5.461  0.5674  0.0540 -0.2840
19413TIP3    H179730   4.431   2.796   5.521 -0.2831  0.1656 -1.1643
19413TIP3    H279731   4.571   2.739   5.509  0.3434  1.3140  0.3928
19414TIP3   OH279732   0.192   1.701   0.194 -0.0277  0.3661 -0.2972
19414TIP3    H179733   0.177   1.690   0.100 -1.9250  1.7557 -0.2158
19414TIP3    H279734   0.151   1.625   0.234  2.9241 -1.5855 -0.6115
19415TIP3   OH279735   3.760   2.747  16.661 -0.0120 -0.2996 -0.4824
19415TIP3    H179736   3.701   2.687  16.708  0.2575 -1.5442 -1.6595
19415TIP3    H279737   3.848   2.714  16.682  0.2084  0.5635 -0.0230
19416TIP3   OH279738   2.689   0.918  13.722  0.2400  0.3740 -0.5451
19416TIP3    H179739   2.743   0.926  13.643  1.3922 -0.3208  0.1448
19416TIP3    H279740   2.685   1.007  13.757 -0.6069  0.7636 -1.5665
19417TIP3   OH279741   2.014   5.288  14.669 -0.0687 -0.0168 -0.1329
19417TIP3    H179742   2.067   5.363  14.643 -0.3305 -0.2076 -1.2908
19417TIP3    H279743   2.003   5.237  14.589  0.4725 -1.5394  0.7137
19418TIP3   OH279744   6.126   5.586  14.600 -0.3775  0.2392 -0.1086
19418TIP3    H179745   6.195   5.551  14.544 -0.7466  1.2893 -1.2788
19418TIP3    H279746   6.156   5.570  14.689 -0.8115 -3.6269 -0.4830
19419TIP3   OH279747   2.552   4.981   2.947  0.5983 -0.1751  0.5849
19419TIP3    H179748   2.508   4.966   3.031  0.6566  0.7648  0.7887
19419TIP3    H279749   2.573   5.074   2.947 -0.3299  0.0739 -0.9148
19420TIP3   OH279750   6.032   2.003  12.683 -0.2033 -0.7577 -0.6094
19420TIP3    H179751   6.121   1.998  12.649 -0.7616 -0.7154 -2.1857
19420TIP3    H279752   5.981   2.038  12.610 -1.3656  0.0841  0.5660
19421TIP3   OH279753   6.356   4.405  15.868 -0.3009 -0.8230 -0.2611
19421TIP3    H179754   6.412   4.478  15.892 -0.0478 -1.1347  0.0940
19421TIP3    H279755   6.410   4.327  15.879 -1.4380 -1.3389  2.2827
19422TIP3   OH279756   2.536   5.810   2.342  0.2745  0.0371  0.3496
19422TIP3    H179757   2.520   5.775   2.254 -0.7099  0.3091  0.4086
19422TIP3    H279758   2.455   5.793   2.390  0.0164  1.7606  0.5852
19423TIP3   OH279759   2.977   5.325   3.845 -0.1252  0.8644 -0.0745
19423TIP3    H179760   2.943   5.407   3.883 -1.4811  0.1414  0.3332
19423TIP3    H279761   2.938   5.321   3.758 -0.1205  0.6037 -0.0632
19424TIP3   OH279762   1.610   6.030  17.014 -0.6615  0.0520  0.2503
19424TIP3    H179763   1.548   5.958  17.002  0.3956 -0.6496 -1.1707
19424TIP3    H279764   1.606   6.080  16.933 -0.9562  1.3073  0.9999
19425TIP3   OH279765   4.754   3.103  12.116  0.4652  0.1997 -0.0000
19425TIP3    H179766   4.717   3.109  12.028 -1.0494 -1.1200  0.5051
19425TIP3    H279767   4.848   3.093  12.102  0.0723 -1.7757 -1.5516
19426TIP3   OH279768   4.987   4.982   3.386 -0.5199 -0.1740 -0.2728
19426TIP3    H179769   4.918   4.989   3.320  0.1493  2.9884 -0.7679
19426TIP3    H279770   4.939   4.980   3.470 -1.2815  1.0571 -0.6521
19427TIP3   OH279771   4.588   4.288   3.688 -0.0897  0.5920  0.0374
19427TIP3    H179772   4.616   4.228   3.757 -2.0152 -0.6435 -0.1972
19427TIP3    H279773   4.605   4.241   3.607 -1.4629  0.3826 -0.1532
19428TIP3   OH279774   1.639   1.580  10.763  0.1617 -0.1918 -0.0249
19428TIP3    H179775   1.714   1.612  10.713  0.9943 -2.8023 -0.6013
19428TIP3    H279776   1.574   1.558  10.696 -1.4019  2.3708  0.4753
19429TIP3   OH279777   3.475   0.320   5.764  0.4658  0.1501 -0.0490
19429TIP3    H179778   3.542   0.297   5.828  2.0538  1.4977 -1.1241
19429TIP3    H279779   3.471   0.246   5.704 -0.5268 -0.8152  1.1733
19430TIP3   OH279780   5.418   3.263  13.965 -0.0026 -0.3611 -0.1829
19430TIP3    H179781   5.386   3.327  13.901  0.1964 -1.7724 -1.8004
19430TIP3    H279782   5.487   3.216  13.918 -1.2006 -2.7868  0.3236
19431TIP3   OH279783   4.983   2.545  10.088 -0.3572 -0.5295 -0.1295
19431TIP3    H179784   4.961   2.480  10.155 -2.5477 -0.1976 -0.4624
19431TIP3    H279785   4.901   2.562  10.042  0.5379  1.1544 -1.2330
19432TIP3   OH279786   1.938   4.692   3.363  0.3371 -0.3313  0.2280
19432TIP3    H179787   1.949   4.786   3.352  0.8756 -0.4531 -0.4250
19432TIP3    H279788   2.002   4.668   3.430  1.9156 -0.5557 -1.2724
19433TIP3   OH279789   4.589   4.502   3.391 -0.0950  0.3424 -0.1974
19433TIP3    H179790   4.626   4.585   3.362 -2.0229  1.2146 -0.3097
19433TIP3    H279791   4.496   4.521   3.407 -1.0560 -2.1883 -2.0316
19434TIP3   OH279792   5.072   2.615   4.247 -0.0429 -0.0015  0.4714
19434TIP3    H179793   5.108   2.537   4.287 -1.9295 -1.3788 -0.3743
19434TIP3    H279794   5.092   2.606   4.154 -0.0934  0.6350  0.3936
19435TIP3   OH279795   5.903   2.966  15.343 -0.1482 -0.0012  0.3702
19435TIP3    H179796   5.954   2.911  15.403  0.0629 -1.1082 -0.7812
19435TIP3    H279797   5.823   2.987  15.392  1.1539  1.3823  2.0307
19436TIP3   OH279798   0.089   6.444   2.923  0.3179 -0.7437  0.2841
19436TIP3    H179799   0.174   6.401   2.910  1.4537  1.2415  0.7039
19436TIP3    H279800   0.104   6.534   2.894 -1.6738 -0.3567  0.3548
19437TIP3   OH279801   3.337   1.188  16.103  0.6237 -0.6386  0.1743
19437TIP3    H179802   3.379   1.271  16.123 -1.0119  0.1773  0.4267
19437TIP3    H279803   3.317   1.193  16.010  1.4357 -1.2052 -0.0406
19438TIP3   OH279804   0.831   6.560  13.125 -0.0319 -0.1154 -0.3673
19438TIP3    H179805   0.903   6.526  13.178 -0.6125 -1.5685 -0.4680
19438TIP3    H279806   0.755   6.560  13.184 -0.4558 -0.7800 -0.8977
19439TIP3   OH279807   0.864   6.569  15.375 -0.2360 -0.5562 -0.3675
19439TIP3    H179808   0.886   6.584  15.283 -2.9215  2.4422 -0.7413
19439TIP3    H279809   0.789   6.509  15.373 -2.4028  1.9617 -0.5700
19440TIP3   OH279810   4.656   1.211  14.242  0.0617  0.4027 -0.0093
19440TIP3    H179811   4.746   1.180  14.240  0.1386  0.6397 -0.1354
19440TIP3    H279812   4.618   1.180  14.159 -0.4450 -1.1296  0.7459
19441TIP3   OH279813   1.707   0.533   2.116  0.3975  0.6374 -0.1969
19441TIP3    H179814   1.662   0.585   2.050  2.5413  1.0966 -1.3632
19441TIP3    H279815   1.734   0.454   2.070 -0.6055 -0.4050  0.9213
19442TIP3   OH279816   4.989   4.276  14.200 -0.1314 -0.6817 -0.5837
19442TIP3    H179817   5.056   4.238  14.143 -0.5994 -1.8704 -0.3795
19442TIP3    H279818   4.917   4.299  14.141  0.0901 -0.2668 -0.6905
19443TIP3   OH279819   0.049   0.957   0.444 -0.2180 -0.4397 -0.4090
19443TIP3    H179820   0.089   0.874   0.470 -1.1784 -1.1566 -1.1438
19443TIP3    H279821  -0.039   0.953   0.481 -0.1572  0.4147 -0.1544
19444TIP3   OH279822   5.897   0.851  11.243  0.1082  0.1058 -0.4264
19444TIP3    H179823   5.852   0.927  11.207  0.0414 -0.5343 -1.7501
19444TIP3    H279824   5.868   0.846  11.334 -1.4507  0.4881 -0.8887
19445TIP3   OH279825   3.083   3.076   2.011 -0.0144 -0.5195  0.6280
19445TIP3    H179826   3.072   3.017   1.936  0.0053  0.9652 -0.5698
19445TIP3    H279827   2.997   3.075   2.054 -0.2848 -0.7065  0.0952
19446TIP3   OH279828   1.008   4.049  10.644  0.1721 -0.2216 -0.1137
19446TIP3    H179829   1.070   3.979  10.668 -0.1971 -0.9273 -1.1481
19446TIP3    H279830   0.922   4.013  10.666  0.0577  0.4198  0.5197
19447TIP3   OH279831   1.987   4.634   4.764 -0.1947  0.5552 -0.1585
19447TIP3    H179832   1.893   4.624   4.746 -0.2302  0.7059 -0.0534
19447TIP3    H279833   2.010   4.555   4.812  0.2482 -0.6680 -2.2434
19448TIP3   OH279834   2.858   1.384   3.135 -0.0468  0.3499  0.0352
19448TIP3    H179835   2.902   1.301   3.121  0.3264  0.1389  2.1001
19448TIP3    H279836   2.920   1.450   3.106  0.6474 -0.0301  0.6255
19449TIP3   OH279837   4.827   6.347  15.804  0.1128 -0.1653 -0.0327
19449TIP3    H179838   4.738   6.311  15.793 -2.7158  5.4495  0.8694
19449TIP3    H279839   4.842   6.398  15.724  1.8524  0.2354  0.5255
19450TIP3   OH279840   5.427   1.252   4.331  0.4699  0.4994  0.2081
19450TIP3    H179841   5.368   1.290   4.397  0.3288  1.8495 -0.6526
19450TIP3    H279842   5.384   1.171   4.305 -0.5404  0.9886  0.2819
19451TIP3   OH279843   3.759   1.347   3.356  0.7147 -0.2027 -0.0384
19451TIP3    H179844   3.750   1.257   3.386 -2.7477  0.2399  0.7112
19451TIP3    H279845   3.732   1.345   3.264 -0.6015  0.1908  0.3157
19452TIP3   OH279846   4.710   0.818  12.029 -0.1291  0.3835 -0.0291
19452TIP3    H179847   4.667   0.790  12.110 -0.6546  1.7449  0.1905
19452TIP3    H279848   4.767   0.891  12.056  0.6308  0.0500 -0.6876
19453TIP3   OH279849   5.205   0.417  15.483 -0.3154  0.5500  0.1753
19453TIP3    H179850   5.210   0.512  15.468  0.8602  0.5112  0.2337
19453TIP3    H279851   5.271   0.380  15.425 -0.8943 -0.2547  0.0230
19454TIP3   OH279852   4.730   1.612   3.525  0.0427 -0.3366 -0.4580
19454TIP3    H179853   4.755   1.558   3.450 -0.2266 -1.2551  0.0939
19454TIP3    H279854   4.785   1.581   3.596 -1.1092 -0.8787  0.2234
19455TIP3   OH279855   1.578   1.842   5.603  0.3222 -0.5127 -0.1117
19455TIP3    H179856   1.635   1.907   5.561 -0.2708  0.4781  0.5726
19455TIP3    H279857   1.549   1.884   5.684  1.1910 -2.2570  1.1628
19456TIP3   OH279858   5.939   4.118  10.443 -0.3199 -0.2645  0.7478
19456TIP3    H179859   6.010   4.182  10.432 -0.3259 -0.0490  1.9286
19456TIP3    H279860   5.860   4.164  10.416 -0.1320 -0.2427  0.2189
19457TIP3   OH279861   5.496   0.624   2.241 -0.1526  0.1751 -0.4356
19457TIP3    H179862   5.403   0.618   2.266 -0.9429 -0.5703 -3.1804
19457TIP3    H279863   5.523   0.711   2.271 -1.2664 -0.1524  1.7357
19458TIP3   OH279864   4.405   0.802  13.832  0.1676 -0.4856  0.2218
19458TIP3    H179865   4.320   0.775  13.796  0.3381 -1.3761  0.4605
19458TIP3    H279866   4.417   0.891  13.800  1.2082 -1.8361 -3.6020
19459TIP3   OH279867   5.886   4.152   4.112 -0.2323  0.1567 -0.1297
19459TIP3    H179868   5.855   4.127   4.025  0.5535 -1.7031  0.0709
19459TIP3    H279869   5.825   4.111   4.173  0.5683 -0.5365  0.2159
19460TIP3   OH279870   1.343   3.824   2.297 -0.3401  0.3273 -0.3084
19460TIP3    H179871   1.387   3.905   2.272 -1.2960  1.1185  0.4784
19460TIP3    H279872   1.263   3.853   2.341 -0.0966 -1.0425  1.1112
19461TIP3   OH279873   1.121   1.873  10.864 -0.2873  0.4013  0.4218
19461TIP3    H179874   1.075   1.934  10.921 -1.9868 -1.6547  1.4173
19461TIP3    H279875   1.087   1.890  10.777 -1.0540  0.6052  0.7561
19462TIP3   OH279876   2.521   0.977  12.696 -0.2760 -0.0311 -0.8053
19462TIP3    H179877   2.429   0.970  12.670 -0.2475 -1.1441 -0.6554
19462TIP3    H279878   2.527   0.928  12.778  0.5440 -0.3651 -1.0521
19463TIP3   OH279879   1.280   2.936   2.591  0.0139 -0.0078 -0.2065
19463TIP3    H179880   1.374   2.928   2.576 -0.0888  0.6442 -1.4118
19463TIP3    H279881   1.270   3.022   2.632 -0.0803  0.1031 -0.4574
19464TIP3   OH279882   5.065   5.802  13.242  0.7981  0.4264 -0.2492
19464TIP3    H179883   5.084   5.730  13.182 -1.6142  0.4700 -1.1585
19464TIP3    H279884   5.111   5.877  13.205  0.4377  0.1449 -1.2786
19465TIP3   OH279885   5.880   3.448   4.314  0.6761 -0.0334  0.4624
19465TIP3    H179886   5.868   3.435   4.220 -0.0901 -1.6140  0.7387
19465TIP3    H279887   5.866   3.361   4.352  2.0837  0.3432  1.9493
19466TIP3   OH279888   5.342   4.910  16.913 -0.4482 -0.2207 -0.2205
19466TIP3    H179889   5.419   4.853  16.913  0.8190  1.4172 -0.1523
19466TIP3    H279890   5.274   4.859  16.869  0.3266 -2.1431  0.6964
19467TIP3   OH279891   3.740   5.479   1.374 -0.5846  0.1803 -0.3839
19467TIP3    H179892   3.740   5.479   1.469  0.2253 -1.7197 -0.3375
19467TIP3    H279893   3.708   5.392   1.350 -1.2079  0.7757 -1.8638
19468TIP3   OH279894   4.156   2.181   2.965  0.1712 -0.1298  0.7584
19468TIP3    H179895   4.151   2.260   2.910 -0.9048 -0.5128  0.2832
19468TIP3    H279896   4.075   2.181   3.015  1.6991  0.9392  3.4565
19469TIP3   OH279897   6.025   6.764  14.786  0.7046 -0.5994 -0.0948
19469TIP3    H179898   6.091   6.756  14.717 -0.1341 -2.7457 -0.7267
19469TIP3    H279899   5.942   6.772  14.740  0.3421  0.4896  0.6977
19470TIP3   OH279900   3.932   2.060  15.749 -0.6157  0.3622  0.6835
19470TIP3    H179901   4.019   2.095  15.728 -1.0522  0.7754 -0.5264
19470TIP3    H279902   3.927   1.978  15.701 -2.2944  2.1595 -2.5184
19471TIP3   OH279903   1.610   6.176   4.349  0.2339  0.5827  0.0940
19471TIP3    H179904   1.596   6.105   4.286 -1.9584  0.7472  0.2940
19471TIP3    H279905   1.630   6.132   4.431  0.4298  0.2501 -0.1316
19472TIP3   OH279906   1.419   3.503  10.468 -0.4745  0.4518 -0.7855
19472TIP3    H179907   1.467   3.445  10.527 -1.0751  1.2861  0.5648
19472TIP3    H279908   1.422   3.458  10.383 -0.8041 -1.4957  0.1676
19473TIP3   OH279909   1.537   0.762   3.207 -0.5705  0.1216 -0.3710
19473TIP3    H179910   1.610   0.771   3.146 -0.8033  0.1839 -0.6436
19473TIP3    H279911   1.504   0.673   3.192 -1.7730  0.7384 -1.6469
19474TIP3   OH279912   5.555   0.796   3.714  0.5116  0.5344 -0.7006
19474TIP3    H179913   5.632   0.811   3.660  0.6599 -1.0204 -0.9666
19474TIP3    H279914   5.550   0.701   3.723 -1.0962  0.6295 -0.2803
19475TIP3   OH279915   0.066   3.343  13.981  0.1187  0.2103  0.0775
19475TIP3    H179916   0.130   3.339  14.051  0.0825 -0.7916  0.0702
19475TIP3    H279917   0.117   3.364  13.903  0.2060  0.9805  0.3328
19476TIP3   OH279918   5.290   4.263   0.490  0.0094  0.2461  0.0061
19476TIP3    H179919   5.317   4.300   0.406  0.1233  1.9690  0.7425
19476TIP3    H279920   5.373   4.238   0.533  0.1103  1.1313  0.3507
19477TIP3   OH279921   0.834   3.666   2.415  0.5035  0.1891 -0.6381
19477TIP3    H179922   0.761   3.716   2.379  0.2334  0.0086 -0.3418
19477TIP3    H279923   0.803   3.575   2.414  0.1800  0.2717  0.8095
19478TIP3   OH279924   2.792   1.602  12.659 -0.0063 -0.1497 -0.0733
19478TIP3    H179925   2.868   1.621  12.714 -0.3328  2.0348 -0.2881
19478TIP3    H279926   2.807   1.653  12.579 -1.4158 -0.1058 -0.3304
19479TIP3   OH279927   0.432   2.353  11.621 -0.0770  0.1163 -0.0978
19479TIP3    H179928   0.450   2.260  11.609 -2.6237 -0.4162 -0.4373
19479TIP3    H279929   0.417   2.386  11.532  3.2633  1.5110 -0.2555
19480TIP3   OH279930   3.931   1.651  15.256 -0.2858 -0.0118  0.6960
19480TIP3    H179931   3.897   1.566  15.282 -1.7265 -0.1775 -1.4740
19480TIP3    H279932   3.855   1.708  15.253  0.7786  1.6778  3.0270
19481TIP3   OH279933   6.505   0.611  11.858 -0.5838 -0.6548  0.1113
19481TIP3    H179934   6.488   0.692  11.906 -0.0241  0.2162 -1.1183
19481TIP3    H279935   6.515   0.545  11.927  0.0136  0.5130  1.2010
19482TIP3   OH279936   6.702   3.170   2.188 -0.1755  0.3119 -0.3514
19482TIP3    H179937   6.736   3.256   2.215 -0.8918  1.6171 -3.1679
19482TIP3    H279938   6.609   3.185   2.173 -0.9091 -1.7310  1.6919
19483TIP3   OH279939   5.053   2.532  16.637 -0.1116 -0.2001 -0.0904
19483TIP3    H179940   4.975   2.491  16.674 -0.1984  0.0298 -0.0155
19483TIP3    H279941   5.107   2.459  16.606 -0.5577 -0.3441 -0.5490
19484TIP3   OH279942   2.964   2.658  13.462  0.4507 -0.5116  0.0606
19484TIP3    H179943   2.975   2.700  13.547  0.7580  0.2368 -0.3314
19484TIP3    H279944   3.053   2.650  13.428  0.3665 -1.2424  0.0139
19485TIP3   OH279945   3.812   1.196  13.728  0.1562 -0.1079  0.3882
19485TIP3    H179946   3.896   1.161  13.758 -0.4817 -2.1710 -0.0686
19485TIP3    H279947   3.755   1.192  13.805  0.2478  0.6371  0.5114
19486TIP3   OH279948   2.203   2.768  15.686  0.3610 -0.7267 -0.4354
19486TIP3    H179949   2.235   2.749  15.598  2.5657  0.7612 -0.0518
19486TIP3    H279950   2.282   2.764  15.741 -0.9155 -1.3710  1.4498
19487TIP3   OH279951   5.449   3.449  12.493 -0.3235  0.0151 -0.2327
19487TIP3    H179952   5.367   3.437  12.541  0.1291 -1.7191  0.1844
19487TIP3    H279953   5.517   3.423  12.556  0.3030 -2.0184 -1.6406
19488TIP3   OH279954   4.786   3.733   5.716 -0.1911 -0.5180  0.0478
19488TIP3    H179955   4.769   3.827   5.719  0.2490 -0.4512  1.0912
19488TIP3    H279956   4.779   3.705   5.807 -0.1587 -1.4685 -0.2325
19489TIP3   OH279957   2.898   3.950  13.028 -0.3077  0.1973  0.3849
19489TIP3    H179958   2.832   3.887  13.056 -0.7241  0.6664  0.4640
19489TIP3    H279959   2.980   3.900  13.030 -0.1919  0.3407  3.0548
19490TIP3   OH279960   5.983   2.654  15.617  0.4223 -0.4581 -0.2501
19490TIP3    H179961   5.953   2.726  15.672 -1.1742 -2.4478  1.6545
19490TIP3    H279962   5.913   2.643  15.552  0.6197 -0.3828 -0.4789
19491TIP3   OH279963   5.220   5.048  16.675  0.0823  0.2678 -0.3667
19491TIP3    H179964   5.190   4.973  16.725  1.4107 -0.3666 -0.4780
19491TIP3    H279965   5.301   5.018  16.632  0.5607  1.7015 -0.5325
19492TIP3   OH279966   2.461   6.507   4.460  0.7264 -0.1356 -0.0982
19492TIP3    H179967   2.475   6.459   4.378  1.5596 -1.2843  0.6817
19492TIP3    H279968   2.521   6.581   4.456  0.1445  0.3167 -0.8796
19493TIP3   OH279969   5.335   5.699   5.909 -0.6555  0.8051  0.5346
19493TIP3    H179970   5.372   5.765   5.969 -0.2675  1.3407 -0.2802
19493TIP3    H279971   5.405   5.635   5.898 -1.0811  0.1643  1.4361
19494TIP3   OH279972   5.942   0.826  12.624  0.2897  0.0061 -0.6054
19494TIP3    H179973   5.852   0.828  12.592  0.0280 -0.2368  0.0870
19494TIP3    H279974   5.978   0.912  12.603 -0.3824  0.4061 -0.1258
19495TIP3   OH279975   2.057   0.176   4.295 -0.3680  0.0061 -0.2214
19495TIP3    H179976   2.039   0.237   4.367  1.7029  1.0447 -0.5085
19495TIP3    H279977   2.035   0.090   4.330 -2.2142  0.7641  0.6087
19496TIP3   OH279978   1.928   6.253  14.256 -0.0534  0.0091  0.2848
19496TIP3    H179979   1.835   6.269  14.270 -0.1778  0.6784 -1.1830
19496TIP3    H279980   1.932   6.163  14.223 -0.1409 -0.1109  0.5938
19497TIP3   OH279981   0.372   3.281  12.693  0.8314 -0.0655 -0.0890
19497TIP3    H179982   0.350   3.360  12.644 -1.5768 -0.9665 -0.5814
19497TIP3    H279983   0.465   3.267  12.676  0.9136  1.7248 -1.3376
19498TIP3   OH279984   1.768   2.511  15.018  0.3620 -0.0300  0.5088
19498TIP3    H179985   1.762   2.419  14.993  0.3235 -0.0016  0.4154
19498TIP3    H279986   1.792   2.556  14.938  1.1214 -0.0497  0.7171
19499TIP3   OH279987   0.770   5.663  13.422 -0.5152 -0.0453  0.0004
19499TIP3    H179988   0.716   5.607  13.479 -0.0897 -0.2256  0.2346
19499TIP3    H279989   0.804   5.603  13.355 -1.2879  0.2305 -0.6506
19500TIP3   OH279990   0.292   0.981   3.220 -0.2363 -0.8281  0.4045
19500TIP3    H179991   0.338   1.055   3.181  0.1315 -1.5299 -0.5441
19500TIP3    H279992   0.295   0.998   3.314 -0.2742  0.4161  0.1966
19501TIP3   OH279993   5.981   5.642  16.133 -0.1579  0.0737  0.1592
19501TIP3    H179994   5.923   5.585  16.084  1.1835 -1.9883  0.8161
19501TIP3    H279995   5.925   5.683  16.199 -0.9204 -1.7705  0.7219
19502TIP3   OH279996   0.601   2.392  16.180 -0.0632 -0.0058 -0.4698
19502TIP3    H179997   0.541   2.466  16.176 -0.1165 -0.0789 -1.1445
19502TIP3    H279998   0.688   2.431  16.181 -0.0914  0.0610 -0.7862
19503TIP3   OH279999   0.751   6.750  16.858 -0.2429 -0.2048 -0.5802
19503TIP3    H180000   0.736   6.797  16.776  1.9662 -1.9524 -2.1205
19503TIP3    H280001   0.664   6.720  16.885 -1.0683  0.7667 -2.0230
19504TIP3   OH280002   5.206   2.749  11.958  0.1225 -0.1846 -0.5265
19504TIP3    H180003   5.179   2.746  12.049 -0.0096 -0.1883 -0.5661
19504TIP3    H280004   5.125   2.735  11.908  0.2115 -0.2963 -0.6419
19505TIP3   OH280005   3.889   4.269   0.664  0.0704 -0.4027  0.1670
19505TIP3    H180006   3.934   4.189   0.688  0.5279 -0.0364  0.5627
19505TIP3    H280007   3.806   4.266   0.712  0.1798 -0.5392  0.3466
19506TIP3   OH280008   2.642   5.494   4.695 -0.2612 -0.0003 -0.2358
19506TIP3    H180009   2.626   5.421   4.635  0.3602 -1.5940  1.4536
19506TIP3    H280010   2.728   5.527   4.671 -0.5663  0.2257 -1.0454
19507TIP3   OH280011   2.525   5.530   1.889 -0.3242 -0.2443  0.8680
19507TIP3    H180012   2.574   5.452   1.916  1.0374  0.4696  0.5667
19507TIP3    H280013   2.434   5.501   1.885  0.3828 -2.5348 -1.7920
19508TIP3   OH280014   1.550   2.719   3.389  0.1647 -0.3158 -0.4230
19508TIP3    H180015   1.558   2.623   3.384 -1.4744 -0.4855 -0.2229
19508TIP3    H280016   1.636   2.751   3.362  1.1590 -1.8563  0.7323
19509TIP3   OH280017   6.318   1.917   4.212  0.4238 -0.3940 -0.6884
19509TIP3    H180018   6.411   1.894   4.205 -0.1030 -3.1705  0.1215
19509TIP3    H280019   6.305   1.939   4.304  0.4805  1.2509 -1.0460
19510TIP3   OH280020   2.056   0.257   0.635 -0.4587  0.0152 -0.0518
19510TIP3    H180021   2.139   0.216   0.660 -1.3207 -1.2068  0.9536
19510TIP3    H280022   2.034   0.314   0.709 -1.9215 -1.9178  1.0987
19511TIP3   OH280023   3.258   5.565   2.716 -0.5480 -0.6041 -0.2266
19511TIP3    H180024   3.163   5.562   2.729 -0.3759 -0.2450  1.2934
19511TIP3    H280025   3.294   5.526   2.796  0.5875 -0.9963 -0.9036
19512TIP3   OH280026   4.028   0.827   3.684 -0.0584 -0.9005 -0.3290
19512TIP3    H180027   4.123   0.817   3.691 -0.0427 -0.4211  0.2314
19512TIP3    H280028   3.992   0.760   3.742  0.0008  0.6112  1.5302
19513TIP3   OH280029   2.955   5.611  11.542 -0.2727 -0.4030  0.3149
19513TIP3    H180030   2.883   5.622  11.605  0.4771  0.1322  1.0999
19513TIP3    H280031   2.958   5.694  11.495 -0.7042 -0.7322 -0.3042
19514TIP3   OH280032   3.965   2.185  14.336 -0.2045 -0.3839  0.1274
19514TIP3    H180033   3.989   2.277  14.331 -1.9427  0.0432 -3.2182
19514TIP3    H280034   4.035   2.144  14.387  1.6059  2.4380  0.0861
19515TIP3   OH280035   1.717   4.114   0.086  0.2560  0.2936 -0.2351
19515TIP3    H180036   1.742   4.053   0.017 -1.0810 -1.2467  0.5686
19515TIP3    H280037   1.648   4.168   0.047 -0.2989 -0.3853 -0.2116
19516TIP3   OH280038   0.366   4.818   4.991  0.0986  0.1649 -0.8771
19516TIP3    H180039   0.323   4.773   4.919  0.9279  0.3474 -1.5003
19516TIP3    H280040   0.296   4.868   5.034 -0.7455 -1.3006 -0.4622
19517TIP3   OH280041   4.092   5.330   4.684  0.3802 -0.4589 -0.4501
19517TIP3    H180042   4.085   5.350   4.777  2.4997 -2.0496  0.1367
19517TIP3    H280043   4.042   5.250   4.672 -0.5266  0.1568 -0.8651
19518TIP3   OH280044   5.370   3.523   3.721  0.1134  0.5155 -0.0025
19518TIP3    H180045   5.409   3.517   3.808 -1.6400  2.3140  1.0051
19518TIP3    H280046   5.318   3.604   3.724 -0.6354  0.2052 -2.4597
19519TIP3   OH280047   1.832   5.429  11.744 -0.5190 -0.2072  0.0533
19519TIP3    H180048   1.907   5.473  11.786 -0.2452 -0.7186  0.1084
19519TIP3    H280049   1.765   5.426  11.811  0.8415 -3.5159  1.5003
19520TIP3   OH280050   2.184   1.506  12.391 -0.0555 -0.6181  0.1772
19520TIP3    H180051   2.193   1.411  12.403  1.3209 -0.5402 -0.0483
19520TIP3    H280052   2.185   1.519  12.296  1.4522 -0.2680  0.2161
19521TIP3   OH280053   1.327   0.163   6.299 -0.4779 -0.2118 -0.6711
19521TIP3    H180054   1.372   0.204   6.225 -0.4696 -0.6859 -0.9337
19521TIP3    H280055   1.275   0.093   6.260  2.9440 -3.5257  0.0970
19522TIP3   OH280056   0.754   4.306   5.541  0.2535  0.5750  0.9150
19522TIP3    H180057   0.714   4.292   5.627  0.7277  2.1936  1.4343
19522TIP3    H280058   0.699   4.372   5.500 -0.1206 -0.3724 -0.1639
19523TIP3   OH280059   6.161   4.320  10.477 -0.1195  1.0834 -0.6598
19523TIP3    H180060   6.131   4.405  10.509 -2.0192 -0.2060  1.2990
19523TIP3    H280061   6.255   4.331  10.463 -0.3626  3.5378 -0.7158
19524TIP3   OH280062   2.183   2.217   0.578 -0.3734  0.9065  0.3474
19524TIP3    H180063   2.113   2.165   0.538  0.7347  1.4359 -2.5207
19524TIP3    H280064   2.249   2.225   0.509  1.6137  2.1417  2.2740
19525TIP3   OH280065   1.786   6.585   5.421 -0.0757 -0.0343 -1.2659
19525TIP3    H180066   1.804   6.534   5.500  2.9867  0.7739 -1.2850
19525TIP3    H280067   1.783   6.520   5.350  0.6099 -0.4779 -0.8971
19526TIP3   OH280068   1.686   6.425  13.762 -0.8863  0.7794  0.3447
19526TIP3    H180069   1.714   6.474  13.839 -0.4844  1.4695 -0.2280
19526TIP3    H280070   1.596   6.454  13.746 -1.2958 -0.0439  1.0798
19527TIP3   OH280071   6.427   2.236  11.949 -0.2373  0.0952  0.1984
19527TIP3    H180072   6.351   2.274  11.907 -1.4647 -0.7332  1.5581
19527TIP3    H280073   6.443   2.292  12.025 -0.8169 -0.8749  1.0770
19528TIP3   OH280074   1.985   2.356  12.550 -0.4945  0.3271  0.0013
19528TIP3    H180075   2.048   2.284  12.548 -1.0587 -0.1593 -1.0099
19528TIP3    H280076   1.945   2.350  12.637 -0.9202 -0.9341 -0.2641
19529TIP3   OH280077   3.674   0.088  17.011  0.2839 -0.4317  0.0988
19529TIP3    H180078   3.611   0.019  17.033 -0.2790 -0.8157 -2.3745
19529TIP3    H280079   3.676   0.088  16.915  1.9682  1.4954  0.0762
19530TIP3   OH280080   4.549   1.217  13.346  0.2027  0.6080 -0.2405
19530TIP3    H180081   4.586   1.229  13.259  0.4405 -0.3738 -0.2828
19530TIP3    H280082   4.454   1.217  13.332  0.2160  1.2389 -0.3794
19531TIP3   OH280083   2.137   5.179   4.484 -0.5801  0.2810 -0.4771
19531TIP3    H180084   2.117   5.245   4.418  0.1053 -0.2944 -1.2761
19531TIP3    H280085   2.086   5.102   4.457 -1.9400  0.6656  0.8435
19532TIP3   OH280086   1.027   6.346  11.481  0.0326  0.3669 -0.0614
19532TIP3    H180087   0.941   6.362  11.520 -0.3181  1.5768 -1.2621
19532TIP3    H280088   1.023   6.390  11.396  2.4406  1.9809  0.5864
19533TIP3   OH280089   6.082   4.871  15.980  0.6808 -0.4175 -0.6191
19533TIP3    H180090   6.149   4.811  15.946 -0.6644 -0.5326 -3.3572
19533TIP3    H280091   6.000   4.839  15.942 -1.1867 -0.7742  3.2631
19534TIP3   OH280092   0.701   5.726   1.404 -0.1987 -0.1623  0.6823
19534TIP3    H180093   0.619   5.709   1.451 -0.4042 -2.0822 -0.2412
19534TIP3    H280094   0.692   5.815   1.372 -2.0237 -0.3716  0.4675
19535TIP3   OH280095   4.403   0.848  15.696  0.8057 -0.2020 -0.0725
19535TIP3    H180096   4.340   0.919  15.680 -0.0821 -0.5260  1.7557
19535TIP3    H280097   4.408   0.801  15.612  0.5173  1.3000 -0.9628
19536TIP3   OH280098   5.548   3.070   0.421  0.1486  0.1454  1.2823
19536TIP3    H180099   5.626   3.042   0.374 -0.1102 -1.3608  1.7119
19536TIP3    H280100   5.566   3.049   0.513 -1.7636 -2.8531  1.1055
19537TIP3   OH280101   2.700   1.934   5.263 -0.4450 -0.1424 -0.0438
19537TIP3    H180102   2.700   1.889   5.347 -1.0763  0.7289  0.4463
19537TIP3    H280103   2.636   2.005   5.274 -0.7733 -0.2020 -1.3616
19538TIP3   OH280104   1.691   0.219  11.495  0.9344 -0.3415 -0.1585
19538TIP3    H180105   1.781   0.207  11.467  0.7113 -1.8200 -0.2975
19538TIP3    H280106   1.680   0.160  11.569 -0.7464 -2.5239 -2.0219
19539TIP3   OH280107   4.677   4.481  12.337 -0.2101  0.0114  0.2144
19539TIP3    H180108   4.653   4.531  12.259  1.3863 -0.1245 -0.4238
19539TIP3    H280109   4.613   4.410  12.340  0.0003 -0.2890 -1.3106
19540TIP3   OH280110   0.034   0.791   3.955  0.1101  0.8403 -0.0791
19540TIP3    H180111   0.019   0.716   4.013  0.4342 -0.2348 -1.3206
19540TIP3    H280112  -0.047   0.797   3.903 -0.4015  2.1400  0.8173
19541TIP3   OH280113   2.818   5.786   3.810 -0.2662 -0.4680 -0.5186
19541TIP3    H180114   2.833   5.876   3.782  0.1022 -0.6187 -0.8134
19541TIP3    H280115   2.809   5.736   3.728 -1.6139 -0.5143 -0.3569
19542TIP3   OH280116   0.391   2.059   4.277 -0.5800  0.0331  0.1794
19542TIP3    H180117   0.416   2.097   4.361  0.8978 -0.1776 -0.1292
19542TIP3    H280118   0.444   1.979   4.271 -1.7048 -0.7003 -0.3334
19543TIP3   OH280119   1.571   4.382   3.983 -0.1416  0.7013 -0.1352
19543TIP3    H180120   1.651   4.334   3.962 -0.8046 -1.5745  2.1236
19543TIP3    H280121   1.601   4.459   4.032  0.6850 -0.0930  0.6327
19544TIP3   OH280122   6.251   6.246  13.512  0.2711 -0.2436  0.2050
19544TIP3    H180123   6.216   6.335  13.516 -4.0438 -1.7032  0.2310
19544TIP3    H280124   6.236   6.219  13.422  1.4777 -0.9986  0.2185
19545TIP3   OH280125   1.951   4.219  12.241 -0.1658 -0.2189  0.0879
19545TIP3    H180126   2.002   4.299  12.239  0.6727 -0.7389  0.4393
19545TIP3    H280127   1.972   4.175  12.158 -0.5074 -0.1595 -0.0349
19546TIP3   OH280128   4.007   0.412  15.536  0.4797  0.4479  0.4298
19546TIP3    H180129   4.085   0.410  15.482 -0.9532 -0.6538 -1.7491
19546TIP3    H280130   3.993   0.322  15.563  0.6089  0.8259  1.8489
19547TIP3   OH280131   4.819   0.817  15.085  0.2267 -0.6341  0.2066
19547TIP3    H180132   4.866   0.761  15.147  1.4468 -0.5839 -0.6411
19547TIP3    H280133   4.887   0.872  15.047 -0.3339 -1.2948 -1.8562
19548TIP3   OH280134   3.942   3.186  14.276  0.3296  0.2409  0.2939
19548TIP3    H180135   3.975   3.182  14.367  0.1025  0.3336  0.3795
19548TIP3    H280136   4.021   3.190  14.223  0.4912 -0.6593  0.4464
19549TIP3   OH280137   0.824   5.759   5.213  0.0972  0.2776  0.1110
19549TIP3    H180138   0.810   5.676   5.259 -0.2899  0.7596  0.8938
19549TIP3    H280139   0.918   5.761   5.195 -0.0155 -0.7080 -0.6650
19550TIP3   OH280140   1.941   4.479  16.653  0.3147  0.9599  0.4176
19550TIP3    H180141   2.011   4.497  16.591  0.4647 -1.2363 -0.1271
19550TIP3    H280142   1.979   4.501  16.739  1.7777 -0.3415  0.1571
19551TIP3   OH280143   2.938   4.229   1.185  0.5528  0.0867 -0.5362
19551TIP3    H180144   2.896   4.169   1.245 -0.7075  0.4749 -0.9940
19551TIP3    H280145   2.979   4.295   1.241  0.4917 -0.2650 -0.0755
19552TIP3   OH280146   4.681   6.672   5.775  0.5546 -0.2902 -0.7308
19552TIP3    H180147   4.630   6.730   5.832  1.0855 -0.4403 -0.0968
19552TIP3    H280148   4.677   6.715   5.689  0.8051  0.6113 -0.3077
19553TIP3   OH280149   4.085   0.994   0.497 -0.2966 -0.3726 -0.5938
19553TIP3    H180150   4.164   0.940   0.488  0.1757  0.5069 -2.2343
19553TIP3    H280151   4.037   0.980   0.416 -1.0497  0.3110 -0.2759
19554TIP3   OH280152   1.007   2.827  15.278 -0.0603  0.1640 -0.4923
19554TIP3    H180153   1.080   2.889  15.272 -0.2559  0.4459  0.0025
19554TIP3    H280154   0.955   2.858  15.352 -0.0856 -0.6741 -0.1479
19555TIP3   OH280155   3.074   4.115  12.338  0.1326 -0.0737 -0.2064
19555TIP3    H180156   3.168   4.099  12.346  0.6173  0.7344 -3.1298
19555TIP3    H280157   3.058   4.193  12.391  2.3968  3.3989 -4.1010
19556TIP3   OH280158   3.757   3.939  14.504  0.3188  0.0107 -0.6511
19556TIP3    H180159   3.744   3.929  14.599  0.0364 -1.6543 -0.8350
19556TIP3    H280160   3.682   3.894  14.465  1.5862 -1.2831 -1.6810
19557TIP3   OH280161   5.808   1.034   6.268  0.1367  0.8950 -0.2205
19557TIP3    H180162   5.777   1.026   6.358 -0.7202 -1.6785 -0.6486
19557TIP3    H280163   5.760   0.966   6.220  2.4111  0.4773 -2.0912
19558TIP3   OH280164   2.318   1.173   5.637 -0.0178 -0.0070  0.1604
19558TIP3    H180165   2.388   1.141   5.581  0.3659 -1.7219  1.5410
19558TIP3    H280166   2.357   1.177   5.725 -1.6406 -1.0341  0.9650
19559TIP3   OH280167   5.510   3.513  16.297  0.0966 -1.1085 -0.1646
19559TIP3    H180168   5.525   3.441  16.358 -1.0112 -0.7223  0.6031
19559TIP3    H280169   5.426   3.491  16.255 -0.5143 -0.0427  0.4501
19560TIP3   OH280170   4.519   0.895   4.599  0.0347 -0.6870 -0.1975
19560TIP3    H180171   4.589   0.958   4.613 -0.8120 -0.2785  2.7065
19560TIP3    H280172   4.564   0.812   4.582  1.2194 -0.2630  0.7666
19561TIP3   OH280173   0.234   3.018  13.474  0.5532 -0.2134  0.1569
19561TIP3    H180174   0.234   2.988  13.565 -1.3150  0.3337  0.3839
19561TIP3    H280175   0.327   3.028  13.451  1.0685 -1.2317  1.6965
19562TIP3   OH280176   1.310   0.580   1.867 -0.3031 -0.0079 -0.0995
19562TIP3    H180177   1.335   0.487   1.859  0.5375 -0.0390  2.1964
19562TIP3    H280178   1.231   0.579   1.920 -1.5470  0.5137 -1.8644
19563TIP3   OH280179   2.659   0.080  16.663 -0.4932  0.1174 -0.3501
19563TIP3    H180180   2.722   0.116  16.726  1.1441 -2.7578 -0.1692
19563TIP3    H280181   2.585   0.053  16.717  0.0658 -0.5569  0.1025
19564TIP3   OH280182   3.960   4.768   3.422  0.3150  0.3638  0.1604
19564TIP3    H180183   3.892   4.715   3.381 -0.1829 -0.9695  2.4934
19564TIP3    H280184   3.987   4.717   3.498  2.3855  1.8819  0.5340
19565TIP3   OH280185   6.198   3.271  14.430  0.3935  0.2767 -0.0650
19565TIP3    H180186   6.160   3.190  14.394 -1.0650  0.6631  0.5254
19565TIP3    H280187   6.230   3.318  14.353  1.1892 -0.8163 -0.4293
19566TIP3   OH280188   2.482   5.103   1.544 -0.0877  0.2284 -0.1336
19566TIP3    H180189   2.432   5.163   1.489 -0.2848  0.6395  0.4857
19566TIP3    H280190   2.497   5.151   1.625  1.7558  0.2990 -0.4760
19567TIP3   OH280191   1.901   2.862   4.360  0.5293  0.6151 -0.5051
19567TIP3    H180192   1.986   2.898   4.386  0.0928  1.1171  0.2619
19567TIP3    H280193   1.876   2.915   4.284  0.9683  0.3619 -0.8306
19568TIP3   OH280194   4.882   5.259  15.276  0.5197 -0.2637  0.3944
19568TIP3    H180195   4.950   5.304  15.327 -0.2693  0.0464  1.1889
19568TIP3    H280196   4.801   5.274  15.324 -0.8681  2.7048 -2.4611
19569TIP3   OH280197   2.833   3.667  15.671 -0.1750  0.3550  0.1932
19569TIP3    H180198   2.753   3.702  15.631  0.7301  2.1054 -0.2138
19569TIP3    H280199   2.810   3.578  15.697 -2.3348  0.8900  0.3415
19570TIP3   OH280200   0.068   0.203  12.323  0.3565 -0.0228 -0.6307
19570TIP3    H180201   0.035   0.176  12.408 -0.6926  0.0783 -0.9922
19570TIP3    H280202   0.163   0.206  12.334  0.2076  0.5549  0.6962
19571TIP3   OH280203   2.910   1.966  10.841  0.0497  0.0344  0.0567
19571TIP3    H180204   2.877   2.055  10.854  1.0309  0.1729  1.9454
19571TIP3    H280205   2.879   1.941  10.754  0.9250  2.7448 -1.1191
19572TIP3   OH280206   4.371   2.231  13.493 -0.3301 -0.0736  0.3338
19572TIP3    H180207   4.375   2.210  13.586 -0.1110  0.0966  0.3653
19572TIP3    H280208   4.454   2.276  13.475  0.8426 -2.3959 -0.5153
19573TIP3   OH280209   5.232   1.249  16.672 -0.3330 -0.1053 -0.2995
19573TIP3    H180210   5.317   1.223  16.708 -0.1149 -1.2104 -1.5329
19573TIP3    H280211   5.183   1.167  16.666 -1.6508  0.5699  0.7467
19574TIP3   OH280212   5.676   6.172   1.108 -0.2001 -0.2695 -0.1402
19574TIP3    H180213   5.736   6.208   1.173  1.0414 -1.3689 -0.6306
19574TIP3    H280214   5.603   6.234   1.105  1.2812  1.5456 -0.1060
19575TIP3   OH280215   6.340   6.200  12.847  0.1317  0.4024 -0.2089
19575TIP3    H180216   6.402   6.233  12.912  0.0587 -0.9907  0.6001
19575TIP3    H280217   6.276   6.149  12.897 -0.3754 -0.0622 -1.2853
19576TIP3   OH280218   3.506   0.460  11.489  0.4798  0.3572  0.2147
19576TIP3    H180219   3.585   0.514  11.480  0.1092  0.6818 -1.3540
19576TIP3    H280220   3.473   0.451  11.400 -0.4573 -0.9989  0.6689
19577TIP3   OH280221   6.641   4.158  12.478  0.4151  0.1842 -0.2338
19577TIP3    H180222   6.621   4.251  12.467  0.5361  0.0720 -1.5811
19577TIP3    H280223   6.594   4.115  12.407  0.3758 -0.7940  0.3646
19578TIP3   OH280224   5.564   5.127  13.973 -0.5098 -0.2741  0.4646
19578TIP3    H180225   5.641   5.115  14.028 -0.5313  0.5203  0.6760
19578TIP3    H280226   5.494   5.083  14.021 -0.6020  0.6941  1.2499
19579TIP3   OH280227   3.620   3.677  11.286  0.2063  0.4473  0.6072
19579TIP3    H180228   3.542   3.660  11.338 -2.1901  3.8852 -1.4366
19579TIP3    H280229   3.646   3.766  11.310  2.0496  0.2822 -0.5323
19580TIP3   OH280230   1.512   2.162   1.394  0.4946 -0.6635  0.3301
19580TIP3    H180231   1.416   2.161   1.400  0.4603  0.9915  0.4839
19580TIP3    H280232   1.533   2.249   1.359  2.0063 -0.3599  1.8222
19581TIP3   OH280233   5.400   6.731  11.891 -0.2436  0.4056  0.0267
19581TIP3    H180234   5.316   6.775  11.909 -1.9567 -2.1579 -1.0687
19581TIP3    H280235   5.431   6.773  11.811 -1.2396  0.4725 -0.3490
19582TIP3   OH280236   5.778   3.513  16.022  0.1135  0.4597  0.0950
19582TIP3    H180237   5.809   3.582  16.082 -0.0833 -0.3307  1.1225
19582TIP3    H280238   5.727   3.561  15.956  2.9925  1.7654 -1.3832
19583TIP3   OH280239   5.226   3.401  13.470  0.3070 -0.3625  0.4228
19583TIP3    H180240   5.318   3.379  13.455  0.0215 -0.4104 -1.5090
19583TIP3    H280241   5.220   3.494  13.448  0.0958 -0.0608  1.6736
19584TIP3   OH280242   3.390   4.051  14.715 -0.2227  0.0322 -0.2225
19584TIP3    H180243   3.475   4.096  14.708  0.0311 -0.0417  1.8155
19584TIP3    H280244   3.331   4.117  14.750 -1.3072  0.3440 -2.4226
19585TIP3   OH280245   6.730   5.851  13.488 -0.5053 -0.2037  0.4522
19585TIP3    H180246   6.664   5.793  13.450  0.8673 -2.0494  0.7287
19585TIP3    H280247   6.763   5.803  13.564  2.7897 -0.5298 -0.9973
19586TIP3   OH280248   2.044   3.347  12.354 -0.4925  0.8083 -0.8242
19586TIP3    H180249   2.009   3.323  12.268 -2.3089 -0.9109  0.3060
19586TIP3    H280250   2.091   3.269  12.383 -0.0520  1.3064 -0.1708
19587TIP3   OH280251   1.264   6.095   0.204 -0.3178 -0.4621 -0.3389
19587TIP3    H180252   1.258   6.126   0.294 -0.6565 -1.3757 -0.0394
19587TIP3    H280253   1.213   6.158   0.153  0.3678  0.3948  0.0118
19588TIP3   OH280254   5.256   0.881   6.175  0.2814 -0.4102  0.4852
19588TIP3    H180255   5.259   0.877   6.270  0.9984  0.6472  0.5243
19588TIP3    H280256   5.290   0.796   6.146  0.1079 -0.7140  1.1622
19589TIP3   OH280257   2.543   5.577  16.878  0.6384 -0.0116 -0.2782
19589TIP3    H180258   2.565   5.637  16.950  1.6944 -1.5967  0.7915
19589TIP3    H280259   2.545   5.631  16.800 -0.2175  1.7111  0.8329
19590TIP3   OH280260   3.501   3.456   2.562 -0.4629 -0.0904 -0.0976
19590TIP3    H180261   3.468   3.397   2.494 -0.5703 -0.4434  0.2576
19590TIP3    H280262   3.490   3.407   2.643 -1.4148  0.7828  0.3110
19591TIP3   OH280263   1.543   4.258   1.736 -0.3396  0.2607  0.2595
19591TIP3    H180264   1.563   4.190   1.672 -0.8546 -0.0718  0.4446
19591TIP3    H280265   1.482   4.317   1.691 -0.9714 -0.1593  0.5371
19592TIP3   OH280266   6.537   2.244  12.302 -0.3698  0.5522 -0.4195
19592TIP3    H180267   6.609   2.231  12.363  0.5520  1.2609 -1.3248
19592TIP3    H280268   6.577   2.232  12.215 -1.8093 -1.2849 -0.9049
19593TIP3   OH280269   1.866   0.745   6.387 -0.5485  0.2368 -0.2106
19593TIP3    H180270   1.907   0.679   6.330  0.5723  1.3949 -0.7989
19593TIP3    H280271   1.916   0.741   6.468 -2.8028 -2.1477  1.2054
19594TIP3   OH280272   1.914   6.059   0.128 -0.0406  0.1620  0.1804
19594TIP3    H180273   1.884   6.076   0.038  1.9061 -1.6229 -0.9050
19594TIP3    H280274   1.984   6.122   0.143 -1.5377  1.6486  1.1782
19595TIP3   OH280275   4.856   2.673  13.971  0.2680  0.2433 -0.9471
19595TIP3    H180276   4.929   2.735  13.971  1.6249 -1.2581  0.6157
19595TIP3    H280277   4.897   2.587  13.962 -1.4975 -0.5171 -2.1397
19596TIP3   OH280278   0.307   1.226  11.450 -0.6453  0.5349 -0.6799
19596TIP3    H180279   0.299   1.289  11.521 -1.5307  0.0571 -0.3434
19596TIP3    H280280   0.248   1.155  11.474 -0.3487 -0.0042 -1.5018
19597TIP3   OH280281   3.209   2.525   3.627 -0.0549 -0.2337  0.2047
19597TIP3    H180282   3.267   2.489   3.560 -1.2600 -1.2292 -0.3387
19597TIP3    H280283   3.186   2.612   3.596  0.6683 -0.0589  0.1418
19598TIP3   OH280284   3.757   3.359  12.107  0.1562 -0.5512  0.0140
19598TIP3    H180285   3.671   3.339  12.144  0.1496  0.0962  0.3644
19598TIP3    H280286   3.739   3.392  12.019  0.2554 -3.4747 -1.2078
19599TIP3   OH280287   6.617   6.290   0.767 -0.2806  0.0234  0.4175
19599TIP3    H180288   6.569   6.306   0.686 -0.7707 -1.2961  0.4391
19599TIP3    H280289   6.700   6.251   0.739 -1.0742 -1.8647  0.6096
19600TIP3   OH280290   2.527   1.233   4.034  0.2398 -0.0444 -0.0622
19600TIP3    H180291   2.518   1.317   3.989  1.0936 -0.5162 -1.1575
19600TIP3    H280292   2.497   1.168   3.971 -3.2328 -0.4245  1.7688
19601TIP3   OH280293   5.223   2.625   0.804 -0.3944  0.1325  0.3235
19601TIP3    H180294   5.151   2.667   0.757 -0.4397 -0.7017 -0.3822
19601TIP3    H280295   5.299   2.634   0.747  0.1744  1.3376  1.2316
19602TIP3   OH280296   4.897   4.615  15.910  0.2492  0.3310 -0.0392
19602TIP3    H180297   4.975   4.660  15.941 -0.1615  0.4234  0.9109
19602TIP3    H280298   4.879   4.654  15.825  2.3172 -1.0457 -1.1672
19603TIP3   OH280299   5.169   4.402   4.444 -0.1657  0.3625  0.7200
19603TIP3    H180300   5.210   4.451   4.373 -0.9188 -0.8955 -0.6309
19603TIP3    H280301   5.093   4.454   4.468 -1.9842 -0.8398 -1.9108
19604TIP3   OH280302   1.712   2.605   0.269 -0.1492  0.1170  0.2903
19604TIP3    H180303   1.716   2.511   0.255  0.1538  0.1489  0.1562
19604TIP3    H280304   1.624   2.630   0.243  0.7750  0.4169 -2.9919
19605TIP3   OH280305   2.778   2.153  14.181 -0.1521 -0.4078  0.3685
19605TIP3    H180306   2.814   2.238  14.205  1.1824 -0.8379 -0.0506
19605TIP3    H280307   2.706   2.174  14.122 -0.9204  0.4826  1.5704
19606TIP3   OH280308   5.977   5.840   5.831  0.1165  0.1789 -0.2501
19606TIP3    H180309   5.995   5.904   5.762  2.9620  0.7547  0.9068
19606TIP3    H280310   5.930   5.890   5.898  0.4240  0.5185 -0.2831
19607TIP3   OH280311   4.341   5.160  15.172 -0.3439 -0.1906  0.4910
19607TIP3    H180312   4.358   5.252  15.191 -2.4310  0.2139  0.6587
19607TIP3    H280313   4.408   5.135  15.109  0.8261  1.1693  1.1465
19608TIP3   OH280314   5.915   4.087   1.498  0.4977 -0.1989  0.5216
19608TIP3    H180315   5.951   4.098   1.410 -0.3574 -1.1002  0.0361
19608TIP3    H280316   5.877   3.999   1.498  0.1280 -0.0644  1.6693
19609TIP3   OH280317   1.878   6.599   1.881 -0.1370 -0.0947  0.1202
19609TIP3    H180318   1.879   6.649   1.963  1.1265  0.7618 -0.3694
19609TIP3    H280319   1.788   6.569   1.872 -1.0026  2.1720  0.4251
19610TIP3   OH280320   4.359   4.477   6.009 -0.1972  0.1098 -0.1691
19610TIP3    H180321   4.440   4.503   6.052 -0.0484 -0.2024 -0.2553
19610TIP3    H280322   4.347   4.385   6.033 -0.4494  0.1131 -0.2751
19611TIP3   OH280323   3.376   0.728   4.505 -0.2273 -0.1993 -0.3241
19611TIP3    H180324   3.365   0.678   4.424 -0.3080 -1.8421  0.6758
19611TIP3    H280325   3.366   0.820   4.477  0.0316 -0.6983 -2.2104
19612TIP3   OH280326   5.232   1.544   4.757 -0.1481 -0.3535  0.3208
19612TIP3    H180327   5.151   1.551   4.808 -0.0198  0.8525  0.3770
19612TIP3    H280328   5.302   1.551   4.822  0.0117 -1.3138  0.2624
19613TIP3   OH280329   4.730   5.475   3.347  0.1243 -0.4560 -0.6521
19613TIP3    H180330   4.736   5.518   3.432 -0.9162  0.1630 -0.8652
19613TIP3    H280331   4.727   5.381   3.367 -0.9840 -0.2878  0.0795
19614TIP3   OH280332   5.779   1.114  12.793  0.8816 -0.5341  0.0628
19614TIP3    H180333   5.684   1.115  12.789  0.8336  1.9501  0.1879
19614TIP3    H280334   5.799   1.074  12.877 -0.0226 -1.2488 -0.0439
19615TIP3   OH280335   5.272   3.226   5.691  0.3050 -0.6003 -0.1357
19615TIP3    H180336   5.183   3.203   5.663 -0.0843 -0.5477  1.0313
19615TIP3    H280337   5.284   3.316   5.661 -0.2252 -0.4364  0.1311
19616TIP3   OH280338   0.621   6.568  15.076 -0.5191 -0.0375  0.1746
19616TIP3    H180339   0.596   6.660  15.079  0.6802  0.2832  0.6961
19616TIP3    H280340   0.675   6.554  15.154  0.3398 -0.8701 -0.5333
19617TIP3   OH280341   3.137   6.624  11.638 -0.9807 -0.7716  0.3497
19617TIP3    H180342   3.141   6.716  11.664  1.5190 -0.9549  0.8070
19617TIP3    H280343   3.053   6.593  11.673 -0.7178  0.6722  2.4313
19618TIP3   OH280344   1.032   6.677  16.851 -1.0277  0.1890  0.0603
19618TIP3    H180345   0.940   6.694  16.830 -0.9624 -1.7825 -2.2964
19618TIP3    H280346   1.044   6.584  16.832  1.5767  0.4970 -0.1837
19619TIP3   OH280347   4.835   2.474   4.414  0.0520  0.2070  0.3854
19619TIP3    H180348   4.866   2.502   4.327  0.0761 -0.2750  0.2394
19619TIP3    H280349   4.848   2.380   4.415 -2.3919 -0.1936 -0.0940
19620TIP3   OH280350   3.778   6.048   4.898  0.2088 -0.3732 -0.3075
19620TIP3    H180351   3.839   6.079   4.964  1.5529  0.4703 -1.8765
19620TIP3    H280352   3.776   5.953   4.910  0.2546 -0.2267  1.0381
19621TIP3   OH280353   4.864   4.590  16.314  0.3732  0.2242  0.0723
19621TIP3    H180354   4.937   4.528  16.318 -1.6453 -2.2694  1.1743
19621TIP3    H280355   4.853   4.619  16.405 -1.1173 -0.9008  0.2839
19622TIP3   OH280356   5.456   3.893   0.329  0.6204  0.0492 -0.1981
19622TIP3    H180357   5.451   3.805   0.292 -1.2257  1.1478 -2.8819
19622TIP3    H280358   5.499   3.945   0.261 -0.7989  1.7103  0.1045
19623TIP3   OH280359   5.061   2.539  10.908 -0.5218 -0.4452  0.1161
19623TIP3    H180360   5.046   2.552  11.002  0.0150 -1.9568  0.4384
19623TIP3    H280361   5.014   2.612  10.866  0.2989  1.0064  1.6007
19624TIP3   OH280362   5.545   2.444  17.184 -0.0837  0.0903  0.6646
19624TIP3    H180363   5.623   2.401  17.150 -0.4433  0.0717 -0.1626
19624TIP3    H280364   5.535   2.521  17.128  0.1952  0.9175  1.7226
19625TIP3   OH280365   0.961   4.665  11.861  0.2125 -0.2460  0.2403
19625TIP3    H180366   0.888   4.655  11.923 -1.9722  2.5531 -1.5662
19625TIP3    H280367   1.038   4.678  11.916 -1.2496  0.0455  2.3447
19626TIP3   OH280368   3.116   0.186  15.957  0.0715 -0.0465 -0.6358
19626TIP3    H180369   3.129   0.228  16.042 -0.7074  1.0133 -1.0298
19626TIP3    H280370   3.204   0.175  15.922  0.2822  1.8993 -0.8150
19627TIP3   OH280371   4.473   5.340   1.359 -0.2976 -0.0304 -0.2711
19627TIP3    H180372   4.438   5.315   1.444  0.3703  0.9447  0.3114
19627TIP3    H280373   4.496   5.257   1.317 -0.2463 -0.5015  0.6710
19628TIP3   OH280374   1.193   4.977   1.662  0.5617 -0.4155  0.3184
19628TIP3    H180375   1.192   4.953   1.569 -0.8672 -0.9439  0.4356
19628TIP3    H280376   1.258   4.918   1.701  1.8808  0.4632 -0.4747
19629TIP3   OH280377   0.628   0.589  16.876 -0.7764  0.2868  0.2542
19629TIP3    H180378   0.598   0.659  16.933 -3.1030 -0.5915  0.2050
19629TIP3    H280379   0.601   0.508  16.920 -2.6954 -0.4209 -2.0100
19630TIP3   OH280380   5.991   4.058  12.050  0.8197  0.3805  0.2759
19630TIP3    H180381   5.990   4.151  12.031  0.4747  0.3010 -0.0943
19630TIP3    H280382   5.901   4.029  12.036  0.6113  0.2547  1.7064
19631TIP3   OH280383   3.431   0.396   3.449 -1.0040 -0.3579  0.1141
19631TIP3    H180384   3.363   0.459   3.475 -2.5690 -1.7680 -0.3631
19631TIP3    H280385   3.407   0.371   3.359 -0.4758 -1.6684  0.3144
19632TIP3   OH280386   3.871   2.159  13.427  0.2908 -0.4011  0.3316
19632TIP3    H180387   3.952   2.207  13.413  1.0922 -1.2666  1.8008
19632TIP3    H280388   3.871   2.137  13.520 -0.2717 -2.7539 -0.1556
19633TIP3   OH280389   3.992   0.922   4.599  0.2673  0.2836 -0.1747
19633TIP3    H180390   3.914   0.915   4.543 -0.3423 -3.2798  0.8273
19633TIP3    H280391   4.048   0.849   4.570  1.0387 -0.1272  2.1661
19634TIP3   OH280392   5.163   3.892  12.871  0.3097  0.1405  0.5988
19634TIP3    H180393   5.142   3.802  12.897  0.2612 -0.3515 -1.0260
19634TIP3    H280394   5.248   3.909  12.912  0.9197 -1.1207 -0.0882
19635TIP3   OH280395   2.951   2.778  11.846 -0.3947  0.2509 -0.7860
19635TIP3    H180396   2.860   2.803  11.830 -0.5599 -0.6372 -1.3164
19635TIP3    H280397   2.981   2.839  11.914 -1.3136  0.6935 -0.7577
19636TIP3   OH280398   5.239   2.127   0.516  0.2799  0.4391 -0.0468
19636TIP3    H180399   5.165   2.176   0.551  0.6111 -0.3504  1.9235
19636TIP3    H280400   5.200   2.066   0.453 -0.8060 -0.1017  1.1068
19637TIP3   OH280401   0.097   0.689  14.469 -0.2603 -0.2193  0.5700
19637TIP3    H180402   0.132   0.648  14.389 -0.7110  1.5589 -0.6064
19637TIP3    H280403   0.170   0.686  14.531  0.1093 -1.6311  0.1039
19638TIP3   OH280404   3.828   0.730  12.269 -0.3732 -0.4328 -0.6588
19638TIP3    H180405   3.876   0.648  12.280 -2.3839 -1.6526 -0.5906
19638TIP3    H280406   3.736   0.704  12.266 -1.0740  1.8397 -0.5293
19639TIP3   OH280407   1.569   0.752  13.068  0.2357  0.2580  0.5660
19639TIP3    H180408   1.526   0.818  13.122 -1.4639 -0.7547  0.4957
19639TIP3    H280409   1.528   0.759  12.982  0.8037 -0.1765  0.2454
19640TIP3   OH280410   1.599   5.732  11.107  0.1128 -0.2516 -0.2237
19640TIP3    H180411   1.651   5.739  11.187  0.1814 -0.0821 -0.2834
19640TIP3    H280412   1.595   5.821  11.073 -0.5013 -0.2051 -0.0367
19641TIP3   OH280413   4.969   3.233   1.202 -0.2140  0.0882  0.0390
19641TIP3    H180414   4.919   3.307   1.170 -2.0023 -0.6558  0.9487
19641TIP3    H280415   5.014   3.266   1.280 -0.2150  0.4651 -0.1212
19642TIP3   OH280416   5.418   4.340  12.135 -0.8644 -0.5212 -0.7713
19642TIP3    H180417   5.491   4.396  12.111 -0.0401 -1.7248 -1.1678
19642TIP3    H280418   5.457   4.266  12.181 -1.9905 -0.4616  0.3465
19643TIP3   OH280419   6.016   1.419  17.180  0.0606  0.7042 -0.6139
19643TIP3    H180420   5.941   1.364  17.155 -0.9721  1.1093  1.3513
19643TIP3    H280421   6.002   1.501  17.132  1.6005 -0.6026 -3.5447
19644TIP3   OH280422   5.425   0.497  12.207  0.4420  0.1966 -0.1499
19644TIP3    H180423   5.449   0.551  12.132  0.2361 -1.8680 -1.8166
19644TIP3    H280424   5.509   0.469  12.244  0.5419  0.9121  0.1858
19645TIP3   OH280425   6.470   3.629   0.817  0.0791  0.3264 -0.5813
19645TIP3    H180426   6.446   3.540   0.843 -1.6893  0.9277  0.0037
19645TIP3    H280427   6.500   3.670   0.898  0.1452  0.4989 -0.6934
19646TIP3   OH280428   5.065   1.991  11.213  0.1030 -0.3415  0.2680
19646TIP3    H180429   5.136   1.931  11.235  0.5990 -0.9653 -2.6274
19646TIP3    H280430   5.027   2.015  11.298  1.5875 -2.6184  1.6991
19647TIP3   OH280431   5.366   1.497  16.734 -0.1630 -0.6514 -0.2269
19647TIP3    H180432   5.334   1.583  16.705  0.5431 -0.6793 -1.1203
19647TIP3    H280433   5.326   1.435  16.673 -1.1956 -1.0429  0.8092
19648TIP3   OH280434   0.515   6.537   2.770  0.2659 -0.3341  0.4027
19648TIP3    H180435   0.528   6.632   2.771 -0.5019 -0.1727 -1.2462
19648TIP3    H280436   0.541   6.511   2.681  0.3690 -1.6540  0.8059
19649TIP3   OH280437   5.505   5.488  13.804  0.2297 -0.4083  0.0907
19649TIP3    H180438   5.589   5.479  13.850  0.9225 -1.0467 -1.2345
19649TIP3    H280439   5.523   5.551  13.734 -0.5092 -0.2566  0.0346
19650TIP3   OH280440   5.454   5.756   5.379 -0.5376  0.0200 -0.4533
19650TIP3    H180441   5.431   5.690   5.444 -0.0610 -0.1277 -0.4294
19650TIP3    H280442   5.395   5.829   5.397 -0.4537 -0.0444  0.1045
19651TIP3   OH280443   1.620   5.020   1.968  0.1328 -0.2098  0.0680
19651TIP3    H180444   1.631   5.002   1.875  1.0201  0.3141  0.0540
19651TIP3    H280445   1.552   4.960   1.997  0.7162 -1.2481 -0.6532
19652TIP3   OH280446   0.324   2.750   5.643 -0.5351 -0.1506 -0.4858
19652TIP3    H180447   0.268   2.752   5.720 -0.5187 -1.6246 -0.4125
19652TIP3    H280448   0.413   2.756   5.677 -0.4545 -2.0736 -0.2467
19653TIP3   OH280449   2.037   4.204  10.635  0.2177  0.1401 -0.3756
19653TIP3    H180450   1.971   4.255  10.682 -0.2666  0.1067 -1.0075
19653TIP3    H280451   2.066   4.262  10.564  0.9260  0.1841 -0.0490
19654TIP3   OH280452   5.151   2.319   1.114  0.6288  0.0045  0.7372
19654TIP3    H180453   5.079   2.344   1.173  0.6083 -1.0789  1.2007
19654TIP3    H280454   5.114   2.330   1.026  0.2329  0.4201  0.9469
19655TIP3   OH280455   1.070   1.553   4.578  0.7769 -0.6018  0.4000
19655TIP3    H180456   1.077   1.601   4.495 -1.0340  1.0311  1.1028
19655TIP3    H280457   0.995   1.495   4.566  0.5503 -0.4084  0.8311
19656TIP3   OH280458   0.816   1.810   1.303 -0.1062  0.3561 -0.2541
19656TIP3    H180459   0.897   1.783   1.346 -1.1827  0.2521  1.8375
19656TIP3    H280460   0.787   1.885   1.354 -0.4911  1.4343 -2.0146
19657TIP3   OH280461   5.428   3.644   2.120 -0.1589 -0.0378 -0.1657
19657TIP3    H180462   5.425   3.550   2.102  0.1221  0.1236 -1.1291
19657TIP3    H280463   5.421   3.651   2.215 -1.6446 -0.9635 -0.1678
19658TIP3   OH280464   2.592   4.049   1.586 -0.5722 -0.5963 -0.2554
19658TIP3    H180465   2.634   4.135   1.577 -2.0040  0.0753 -0.9249
19658TIP3    H280466   2.509   4.058   1.539 -1.8520 -1.6036  1.6765
19659TIP3   OH280467   6.532   6.193   3.096  0.0908  0.0069  0.1229
19659TIP3    H180468   6.481   6.164   3.021  0.9346 -0.6536 -0.2171
19659TIP3    H280469   6.615   6.224   3.058 -0.2073  1.5200  0.6131
19660TIP3   OH280470   1.468   5.144   2.683  0.8074  0.2673  0.5015
19660TIP3    H180471   1.550   5.157   2.636  0.7691 -3.6137 -0.9763
19660TIP3    H280472   1.494   5.116   2.771  1.0833 -0.6186  0.1431
19661TIP3   OH280473   0.476   3.185  15.460  0.7187  0.5202  0.4883
19661TIP3    H180474   0.441   3.188  15.371  0.3765  0.5375  0.6224
19661TIP3    H280475   0.571   3.190  15.448  0.7168 -0.2278  0.0776
19662TIP3   OH280476   5.572   3.109  13.812  0.2509 -1.0472  0.6167
19662TIP3    H180477   5.650   3.069  13.851 -0.8979 -1.8334  2.2572
19662TIP3    H280478   5.508   3.037  13.808 -1.1716  0.0863  1.6299
19663TIP3   OH280479   1.450   0.918  16.414 -0.4883 -0.4205  0.1536
19663TIP3    H180480   1.410   0.838  16.380  0.8733 -1.5890  1.1728
19663TIP3    H280481   1.543   0.906  16.400 -0.2910  1.2627 -0.1662
19664TIP3   OH280482   2.921   0.215  13.161  0.6695  0.0207  0.2457
19664TIP3    H180483   2.868   0.287  13.194  2.0783  0.9215  0.5923
19664TIP3    H280484   2.859   0.142  13.153 -0.3740  0.6803  1.8139
19665TIP3   OH280485   5.367   1.024   3.936  0.2920 -0.3220 -0.2716
19665TIP3    H180486   5.276   1.049   3.923 -0.3045 -0.4346  2.8267
19665TIP3    H280487   5.417   1.084   3.880 -1.6004  0.7893 -0.8431
19666TIP3   OH280488   4.265   3.672   5.662 -0.2490  0.0515  0.0660
19666TIP3    H180489   4.330   3.604   5.681 -0.3787 -0.0081  0.2989
19666TIP3    H280490   4.211   3.635   5.592 -2.0244 -1.2274  1.9798
19667TIP3   OH280491   6.805   4.180   3.872 -0.2438  0.3961  0.5992
19667TIP3    H180492   6.823   4.087   3.888  1.8989  0.4648 -0.9350
19667TIP3    H280493   6.798   4.219   3.959  1.0931 -0.8350  1.2978
19668TIP3   OH280494   5.657   1.870   0.529  0.3498 -0.3843  0.5588
19668TIP3    H180495   5.576   1.894   0.574  1.2851  0.1138  2.0766
19668TIP3    H280496   5.685   1.949   0.484  0.1929 -0.4400  0.3653
19669TIP3   OH280497   4.929   3.736   5.465  0.1496 -0.6618 -0.4657
19669TIP3    H180498   5.018   3.763   5.486 -0.7541  1.8593  0.4498
19669TIP3    H280499   4.886   3.721   5.549 -1.4599  2.4822 -0.5811
19670TIP3   OH280500   5.270   6.190  10.923 -0.3635  0.3931 -0.0102
19670TIP3    H180501   5.285   6.285  10.927  0.3778  0.2374  1.5915
19670TIP3    H280502   5.354   6.154  10.893 -1.4691  0.3726 -3.6358
19671TIP3   OH280503   2.471   3.109  11.893 -0.0705  0.1904 -0.2027
19671TIP3    H180504   2.540   3.158  11.938  0.0444  0.9499 -1.1645
19671TIP3    H280505   2.486   3.018  11.918 -0.3561  0.6210  1.7306
19672TIP3   OH280506   1.178   1.388   5.243 -0.2579 -0.2837  0.2586
19672TIP3    H180507   1.216   1.301   5.231 -2.0833 -0.8730 -1.9826
19672TIP3    H280508   1.123   1.379   5.320 -1.7934 -1.7055 -0.9298
19673TIP3   OH280509   2.979   3.431  12.632 -0.0654 -0.2020 -0.2721
19673TIP3    H180510   2.924   3.397  12.703  2.0665 -1.9795  0.6854
19673TIP3    H280511   2.927   3.419  12.553 -1.6634 -0.2636  0.7384
19674TIP3   OH280512   4.428   4.207   2.772  0.0131  0.6524  0.1566
19674TIP3    H180513   4.430   4.289   2.821 -0.1457  0.2144  0.9140
19674TIP3    H280514   4.337   4.198   2.745  0.1007  0.8942 -0.2274
19675TIP3   OH280515   6.063   6.200  14.416  0.4103  0.1316 -0.1574
19675TIP3    H180516   6.034   6.259  14.346 -1.6049 -1.3384 -0.6600
19675TIP3    H280517   6.068   6.255  14.494  1.0715  1.4565 -1.1043
19676TIP3   OH280518   2.127   0.684   4.705 -0.0420  1.2630  0.2685
19676TIP3    H180519   2.033   0.670   4.699  0.2877 -0.7938 -1.6391
19676TIP3    H280520   2.150   0.727   4.623  0.8954 -0.1827 -0.2791
19677TIP3   OH280521   5.590   5.095   2.737 -0.4442  0.3213  0.0661
19677TIP3    H180522   5.590   5.168   2.799  1.1960  0.4903 -0.0941
19677TIP3    H280523   5.588   5.136   2.651 -0.8633  0.1363 -0.0132
19678TIP3   OH280524   0.846   4.920   3.667 -0.3236 -0.1333  0.5038
19678TIP3    H180525   0.888   4.933   3.582  0.3938 -2.0173  0.5230
19678TIP3    H280526   0.776   4.858   3.649 -1.5386  1.0596  0.9483
19679TIP3   OH280527   4.083   1.770   3.562 -0.2403 -0.4103 -0.4033
19679TIP3    H180528   4.075   1.855   3.518 -0.9075 -0.4855 -0.4413
19679TIP3    H280529   4.000   1.726   3.544 -1.4034  0.3094  2.4821
19680TIP3   OH280530   2.528   5.480  11.180 -0.4535 -0.1015 -0.0848
19680TIP3    H180531   2.570   5.491  11.265 -0.9126 -0.1158  0.1428
19680TIP3    H280532   2.435   5.472  11.199 -0.3236 -2.9883 -0.3348
19681TIP3   OH280533   5.072   1.195   0.594 -0.2703 -0.5090 -0.0040
19681TIP3    H180534   5.072   1.123   0.658  0.2583 -0.2971  0.2354
19681TIP3    H280535   5.157   1.237   0.605 -1.5038  1.7670  1.6591
19682TIP3   OH280536   5.556   0.583   1.016  0.0862  0.2919  0.5097
19682TIP3    H180537   5.638   0.535   1.008  0.4178  0.6969  1.3459
19682TIP3    H280538   5.582   0.672   1.040 -0.5145  0.9085 -1.0014
19683TIP3   OH280539   5.529   2.618  11.608 -0.0904  0.0699  0.1776
19683TIP3    H180540   5.624   2.621  11.621  0.3745 -3.0815 -1.4151
19683TIP3    H280541   5.494   2.591  11.693  0.3804  1.3975  0.8185
19684TIP3   OH280542   3.662   3.117   1.871  0.8171 -0.0866  0.0314
19684TIP3    H180543   3.740   3.166   1.847  1.1451 -0.4367  0.3662
19684TIP3    H280544   3.622   3.166   1.943 -0.0189  0.8188 -1.0071
19685TIP3   OH280545   6.028   6.791   3.443 -0.1688 -0.1221 -0.3556
19685TIP3    H180546   6.057   6.773   3.533 -1.4920  0.7803  0.2810
19685TIP3    H280547   6.073   6.725   3.390 -0.5847 -1.7075  1.1635
19686TIP3   OH280548   1.450   3.731   3.007  0.1238 -0.4417  0.0594
19686TIP3    H180549   1.454   3.635   3.014  0.4106 -0.4534 -0.2277
19686TIP3    H280550   1.510   3.762   3.075 -1.5437 -0.4042  1.5793
19687TIP3   OH280551   5.311   1.654   2.682  0.1639  0.0969 -0.4155
19687TIP3    H180552   5.305   1.611   2.767  2.0310 -1.0639 -0.8069
19687TIP3    H280553   5.392   1.704   2.686  1.2347 -1.3746 -2.0553
19688TIP3   OH280554   5.266   4.981   0.880 -0.9863 -0.3508 -0.3401
19688TIP3    H180555   5.287   5.075   0.883 -3.9692  0.4348 -0.4533
19688TIP3    H280556   5.289   4.954   0.791 -1.6360  0.7215 -0.8504
19689TIP3   OH280557   4.486   5.724   4.807 -0.6949  0.3385 -0.1260
19689TIP3    H180558   4.552   5.759   4.868 -0.4694  0.6985 -0.5769
19689TIP3    H280559   4.535   5.663   4.752 -1.2208 -1.3521  1.1580
19690TIP3   OH280560   6.015   6.238   5.987 -0.1486  0.3412  0.1004
19690TIP3    H180561   6.079   6.216   5.920  1.3122 -1.4389  1.9859
19690TIP3    H280562   6.066   6.273   6.060 -1.3832 -0.1776  1.2756
19691TIP3   OH280563   0.596   1.755  17.166  0.0892  0.0951 -0.1906
19691TIP3    H180564   0.572   1.848  17.169  2.1185  0.7190 -1.5230
19691TIP3    H280565   0.520   1.712  17.127  0.0479  1.5763 -1.8517
19692TIP3   OH280566   0.856   2.796   5.193  0.4619  0.1650  0.1514
19692TIP3    H180567   0.879   2.714   5.150  1.2248  0.7860 -0.6351
19692TIP3    H280568   0.924   2.858   5.168  0.6279  0.7055  1.7993
19693TIP3   OH280569   2.234   1.808   4.393  0.1461  0.0425  0.6071
19693TIP3    H180570   2.213   1.902   4.388  0.0455 -0.0152 -0.1149
19693TIP3    H280571   2.317   1.800   4.346 -0.8741 -0.5396 -1.1882
19694TIP3   OH280572   3.735   1.584  11.740  0.3983  0.1155  0.1976
19694TIP3    H180573   3.735   1.561  11.833 -2.3538 -0.1819  0.2037
19694TIP3    H280574   3.712   1.502  11.695 -1.3427  0.9182 -0.4577
19695TIP3   OH280575   5.270   5.542   4.335 -0.1184  0.3352 -0.2742
19695TIP3    H180576   5.347   5.486   4.333  0.4372  0.9213  2.0380
19695TIP3    H280577   5.197   5.482   4.355 -0.2266 -0.1292 -1.9037
19696TIP3   OH280578   3.111   5.930  12.336 -0.0376  0.7971  0.0423
19696TIP3    H180579   3.047   5.889  12.395 -0.2869  0.9470 -0.1218
19696TIP3    H280580   3.186   5.870  12.336 -1.3632 -1.0418 -2.1797
19697TIP3   OH280581   5.388   0.152   2.462 -0.1791 -0.2917  0.0061
19697TIP3    H180582   5.308   0.204   2.475  0.9187  2.0682 -1.8285
19697TIP3    H280583   5.455   0.217   2.440  1.5367 -2.4255 -1.4759
19698TIP3   OH280584   0.237   0.117  15.606  0.2065 -0.2837 -0.2237
19698TIP3    H180585   0.213   0.079  15.522 -2.6192 -2.7917  1.5042
19698TIP3    H280586   0.156   0.151  15.642  1.2697  0.4853  1.5993
19699TIP3   OH280587   4.007   0.134   6.160 -0.1788  0.2796 -0.1674
19699TIP3    H180588   3.953   0.181   6.224  0.8440 -0.8702  1.6192
19699TIP3    H280589   4.090   0.183   6.158  0.1783 -0.3005  0.2169
19700TIP3   OH280590   0.601   5.516  14.585  0.2263 -0.2614  0.3363
19700TIP3    H180591   0.571   5.500  14.674 -0.9362  0.8264  0.1660
19700TIP3    H280592   0.626   5.608  14.584  1.7340 -0.6420 -0.0762
19701TIP3   OH280593   3.565   2.405   0.320 -0.5467  0.1911  0.1017
19701TIP3    H180594   3.565   2.500   0.335  0.8118  0.1328  0.5858
19701TIP3    H280595   3.530   2.368   0.400 -1.8738  0.3016 -0.4015
19702TIP3   OH280596   1.176   5.927  14.684 -0.0121 -0.3805 -0.0720
19702TIP3    H180597   1.247   5.893  14.630 -0.2388 -0.6346 -0.2121
19702TIP3    H280598   1.219   5.956  14.764  0.2447 -0.5608 -0.1432
19703TIP3   OH280599   5.167   0.115  13.515  0.2387 -0.1351  0.6981
19703TIP3    H180600   5.169   0.165  13.434 -0.0107  1.7583  1.7996
19703TIP3    H280601   5.251   0.135  13.558  0.7342 -1.7732  0.5735
19704TIP3   OH280602   5.811   2.158  16.440 -0.1057 -0.6180 -0.2194
19704TIP3    H180603   5.764   2.078  16.414  1.7447 -1.8094 -0.0610
19704TIP3    H280604   5.834   2.143  16.532 -0.3949  0.4646  0.0495
19705TIP3   OH280605   4.563   5.295   1.832  0.0680  0.0735  0.1300
19705TIP3    H180606   4.566   5.391   1.830 -1.5718  0.1431 -0.6643
19705TIP3    H280607   4.596   5.272   1.919 -1.8039  1.5167  1.3046
19706TIP3   OH280608   5.549   2.612   3.635 -0.2413 -0.1468 -0.1751
19706TIP3    H180609   5.574   2.651   3.552 -1.2072 -0.7530 -0.7715
19706TIP3    H280610   5.531   2.687   3.693  0.4783  0.2750 -0.4854
19707TIP3   OH280611   5.372   2.381  14.717  0.1859 -0.2553  0.1633
19707TIP3    H180612   5.288   2.366  14.761  0.2077  0.5889  0.4974
19707TIP3    H280613   5.436   2.388  14.788  0.1804  1.3916  0.0458
19708TIP3   OH280614   3.566   5.153   0.106  0.0479 -0.4807  0.0989
19708TIP3    H180615   3.639   5.100   0.076  0.3169  0.9310 -1.9495
19708TIP3    H280616   3.502   5.150   0.035 -0.6216  0.6264  0.6131
19709TIP3   OH280617   5.823   6.485   0.017  0.0996  0.0528 -0.5476
19709TIP3    H180618   5.814   6.389   0.013  0.1542 -0.0927  1.5145
19709TIP3    H280619   5.765   6.511   0.089  1.7031  1.3062  0.3496
19710TIP3   OH280620   6.030   0.005   1.716  0.3735  0.8822 -0.3760
19710TIP3    H180621   6.000   0.090   1.683  0.4819  0.6557 -1.0768
19710TIP3    H280622   6.081   0.026   1.794 -0.7142  1.3584  0.2349
19711TIP3   OH280623   3.794   0.204   4.485  0.4840 -0.0981  0.8595
19711TIP3    H180624   3.761   0.247   4.407 -2.1475 -0.5582  1.6242
19711TIP3    H280625   3.834   0.123   4.453 -1.4834 -0.7949  0.0216
19712TIP3   OH280626   4.320   3.714   0.529 -0.3963 -0.6478 -0.4431
19712TIP3    H180627   4.279   3.640   0.573 -1.2163  0.1369  0.1561
19712TIP3    H280628   4.255   3.784   0.533  1.4346  1.0808  1.7099
19713TIP3   OH280629   3.333   2.059  14.518  0.4386 -0.0331 -0.1117
19713TIP3    H180630   3.250   2.058  14.565  0.9011  0.6145  0.7514
19713TIP3    H280631   3.398   2.029  14.582  0.9022 -0.3494 -0.7166
19714TIP3   OH280632   0.811   4.657  16.701  0.2627  0.0385 -0.2562
19714TIP3    H180633   0.865   4.690  16.629  2.3233 -0.0261  1.1590
19714TIP3    H280634   0.858   4.579  16.732 -1.3885 -0.8179  0.2008
19715TIP3   OH280635   1.086   3.785  12.591 -0.0737  0.5762  0.6765
19715TIP3    H180636   1.061   3.770  12.682 -0.9194  0.9102  0.5021
19715TIP3    H280637   1.011   3.829  12.552  0.5153  0.9664 -0.0367
19716TIP3   OH280638   2.643   1.011   5.174  0.0495 -0.0950  0.0649
19716TIP3    H180639   2.658   0.921   5.202 -0.7705  0.1377  1.3483
19716TIP3    H280640   2.727   1.039   5.137  0.6162 -1.0524  0.5794
19717TIP3   OH280641   5.979   3.173   0.485  0.5407  0.3336 -0.1800
19717TIP3    H180642   6.061   3.154   0.531  0.4140  1.9568  0.7786
19717TIP3    H280643   5.945   3.252   0.527 -0.2579  1.1442 -2.2069
19718TIP3   OH280644   4.103   5.381  17.000  0.7208 -0.0111  0.4561
19718TIP3    H180645   4.078   5.348  17.087  2.0828 -0.5712  0.6644
19718TIP3    H280646   4.027   5.362  16.945 -1.1384  2.4103  1.9547
19719TIP3   OH280647   6.502   2.228   3.671 -0.3217  0.0487 -0.6897
19719TIP3    H180648   6.438   2.289   3.635  0.1219  0.9597  0.0109
19719TIP3    H280649   6.458   2.185   3.743 -0.7581 -0.7567 -1.4178
19720TIP3   OH280650   0.109   6.224  12.483  0.7008 -0.2622  0.2183
19720TIP3    H180651   0.048   6.214  12.410 -0.4467  0.7073  1.0238
19720TIP3    H280652   0.085   6.306  12.524 -0.4605 -2.0016  3.3374
19721TIP3   OH280653   4.324   2.596   3.396 -1.0202 -0.5839  0.0516
19721TIP3    H180654   4.261   2.542   3.348 -0.3378 -3.4872  2.1891
19721TIP3    H280655   4.392   2.616   3.332 -0.8605 -3.1004 -0.6807
19722TIP3   OH280656   0.382   4.456  10.810 -0.2283 -0.0116  0.4387
19722TIP3    H180657   0.460   4.512  10.805  0.5696 -1.0207  1.2280
19722TIP3    H280658   0.338   4.485  10.890  0.0028 -0.2879  0.6645
19723TIP3   OH280659   0.447   5.368  16.351  0.1080  0.0743  0.5509
19723TIP3    H180660   0.377   5.328  16.299 -0.8221  0.1841  1.6782
19723TIP3    H280661   0.481   5.438  16.296 -0.2741 -0.3559 -0.2508
19724TIP3   OH280662   2.206   3.969   0.837 -0.1720 -0.4406  0.6964
19724TIP3    H180663   2.145   3.929   0.899 -0.1666 -0.7059  0.5358
19724TIP3    H280664   2.181   3.932   0.752  1.1584 -1.7309  0.8296
19725TIP3   OH280665   4.580   5.461  14.096 -0.5132  0.1994 -0.4331
19725TIP3    H180666   4.517   5.413  14.042 -1.5903  0.7549  0.2928
19725TIP3    H280667   4.611   5.532  14.040 -0.7808  0.1193 -0.6831
19726TIP3   OH280668   5.324   2.462  12.881  0.1056 -0.6398 -0.3762
19726TIP3    H180669   5.297   2.400  12.949  1.9655 -1.9390 -0.7374
19726TIP3    H280670   5.294   2.547  12.912 -1.7750 -1.5810  0.5563
19727TIP3   OH280671   4.696   3.455  10.363 -0.0146  0.2923 -0.3069
19727TIP3    H180672   4.783   3.435  10.329 -0.0695 -0.0653 -0.2452
19727TIP3    H280673   4.636   3.418  10.299 -0.1243  0.5845 -0.3752
19728TIP3   OH280674   1.813   0.414  17.169 -0.1027 -0.6589 -0.0171
19728TIP3    H180675   1.723   0.382  17.166 -0.7766  1.1806 -2.4128
19728TIP3    H280676   1.862   0.355  17.112 -0.8222  0.9582 -2.4227
19729TIP3   OH280677   1.976   1.893  14.390  1.2382 -0.2471 -0.0158
19729TIP3    H180678   1.970   1.958  14.320  0.8467 -0.5488 -0.2692
19729TIP3    H280679   2.070   1.886  14.408  1.2317  0.8993  0.5072
19730TIP3   OH280680   3.555   1.666   3.152  0.1412 -0.0259  0.3676
19730TIP3    H180681   3.645   1.668   3.121 -0.1317  0.9551 -0.4261
19730TIP3    H280682   3.560   1.701   3.241  0.6420 -0.7583  0.6363
19731TIP3   OH280683   6.651   1.561   1.481 -0.0384 -0.2812 -0.5316
19731TIP3    H180684   6.632   1.526   1.568  1.4323 -0.3131 -0.2092
19731TIP3    H280685   6.565   1.567   1.439 -0.6979 -0.8967  0.6742
19732TIP3   OH280686   5.287   0.260  15.867  0.1275 -0.7719  0.2809
19732TIP3    H180687   5.321   0.224  15.785 -0.3704  0.0353 -0.2915
19732TIP3    H280688   5.288   0.355  15.853 -3.7514 -0.6600 -0.3846
19733TIP3   OH280689   4.184   4.157   3.792 -0.0967 -0.3706  0.4608
19733TIP3    H180690   4.247   4.136   3.862 -0.0361 -1.0248  0.2157
19733TIP3    H280691   4.154   4.072   3.761 -1.3386 -0.0570  0.7735
19734TIP3   OH280692   0.402   0.258  14.038 -0.5167 -0.0314  0.5878
19734TIP3    H180693   0.331   0.299  13.988  0.2422  2.1723  1.2072
19734TIP3    H280694   0.466   0.233  13.971 -0.3389  1.1966  0.2718
19735TIP3   OH280695   0.232   4.221   2.673 -0.2948 -0.1915  0.2749
19735TIP3    H180696   0.164   4.173   2.626  0.5130 -1.2183  0.1130
19735TIP3    H280697   0.271   4.278   2.606 -1.3403  0.8146  0.4964
19736TIP3   OH280698   5.832   5.220  17.158 -0.1026  0.0057  0.0757
19736TIP3    H180699   5.926   5.199  17.157 -0.4519 -1.7481  0.1216
19736TIP3    H280700   5.818   5.271  17.078  1.0005  0.9058  0.4315
19737TIP3   OH280701   4.147   0.402   0.431 -0.2095  0.2348 -0.2369
19737TIP3    H180702   4.137   0.497   0.424 -2.0246  0.0509 -0.5930
19737TIP3    H280703   4.059   0.370   0.452  0.7149 -1.2169  1.8396
19738TIP3   OH280704   6.152   0.908   5.679 -0.1709  0.5152 -0.0481
19738TIP3    H180705   6.105   0.860   5.611 -1.5589 -0.5382  1.5542
19738TIP3    H280706   6.114   0.996   5.677 -0.0245  0.5647 -0.7909
19739TIP3   OH280707   6.213   1.222  12.797 -0.3169 -0.0827 -0.4096
19739TIP3    H180708   6.253   1.302  12.762  1.6025 -1.1317 -0.7631
19739TIP3    H280709   6.201   1.240  12.890 -0.0731  0.6734 -0.5116
19740TIP3   OH280710   1.145   3.208  14.152  0.2297  0.7172  0.5206
19740TIP3    H180711   1.058   3.213  14.112  0.3294 -2.2829 -0.3156
19740TIP3    H280712   1.205   3.227  14.079  0.3258 -2.3347 -0.3550
19741TIP3   OH280713   2.760   6.578  16.079  0.4705  0.1223 -0.2066
19741TIP3    H180714   2.802   6.653  16.120  1.7107 -0.6802  0.0419
19741TIP3    H280715   2.668   6.603  16.070  0.6831  1.2896  0.7285
19742TIP3   OH280716   0.542   2.038  17.182  0.0084 -0.3539  0.4012
19742TIP3    H180717   0.454   2.052  17.215 -0.4974 -0.9561 -0.6474
19742TIP3    H280718   0.599   2.075  17.250 -1.0281 -0.1535  1.1918
19743TIP3   OH280719   4.878   5.807   3.819  0.9716  0.2247 -0.1218
19743TIP3    H180720   4.951   5.838   3.873  1.5408  1.1805 -1.3853
19743TIP3    H280721   4.846   5.886   3.775 -1.7036  0.0818  1.3541
19744TIP3   OH280722   1.946   1.954  11.106  0.3574 -0.5604 -0.1609
19744TIP3    H180723   1.856   1.922  11.105 -0.1813  0.7817  1.2616
19744TIP3    H280724   1.948   2.023  11.039  0.9023 -1.9093 -1.5959
19745TIP3   OH280725   1.398   5.473  12.189 -0.2288  0.7588  0.5672
19745TIP3    H180726   1.357   5.461  12.103 -1.3237  0.4309  1.1110
19745TIP3    H280727   1.375   5.393  12.237  1.8788  0.1239  0.6028
19746TIP3   OH280728   3.568   5.236   2.963 -0.6957  0.5690  0.3232
19746TIP3    H180729   3.484   5.197   2.941 -0.5888  2.4312 -4.4859
19746TIP3    H280730   3.547   5.308   3.023 -2.2401 -0.0679  0.5779
19747TIP3   OH280731   5.505   1.741   2.467  0.1458 -0.0894 -0.0206
19747TIP3    H180732   5.522   1.669   2.528  3.0157 -0.3683 -0.9902
19747TIP3    H280733   5.512   1.700   2.380  1.1150  1.1904 -0.5706
19748TIP3   OH280734   5.477   1.151  15.872 -0.2223 -0.1265  0.0204
19748TIP3    H180735   5.546   1.106  15.920 -1.5034 -1.5229  0.6438
19748TIP3    H280736   5.478   1.110  15.785 -1.4642 -1.5397  0.6232
19749TIP3   OH280737   1.719   3.826  10.788 -0.2420 -0.4956 -0.6420
19749TIP3    H180738   1.711   3.776  10.869 -0.8454  0.2851 -0.2027
19749TIP3    H280739   1.672   3.908  10.806 -0.3760 -0.3110 -1.7777
19750TIP3   OH280740   6.603   5.502   6.150  0.5274 -0.2752  0.2513
19750TIP3    H180741   6.622   5.593   6.171 -1.2812  0.1672  0.0725
19750TIP3    H280742   6.538   5.474   6.215  0.2485 -1.0971 -0.3535
19751TIP3   OH280743   2.788   0.628  14.679 -0.3044  0.6708 -0.1691
19751TIP3    H180744   2.809   0.678  14.758  0.2002 -0.0094  0.1333
19751TIP3    H280745   2.819   0.540  14.697  0.7680  0.7347 -1.5171
19752TIP3   OH280746   6.551   1.766   2.637  0.6867  0.0285 -0.9538
19752TIP3    H180747   6.587   1.820   2.708  1.3997 -2.0735  0.3511
19752TIP3    H280748   6.456   1.774   2.648  0.7233  1.9532 -1.5709
19753TIP3   OH280749   1.621   0.255   4.928  0.1847  0.0335  0.4372
19753TIP3    H180750   1.622   0.243   5.023 -0.7415 -1.9161  0.2417
19753TIP3    H280751   1.548   0.314   4.912  0.9166  1.1335  0.9713
19754TIP3   OH280752   4.655   3.110  15.135  0.0486 -0.2348  0.1467
19754TIP3    H180753   4.751   3.111  15.135  0.0721 -0.6794  1.4428
19754TIP3    H280754   4.631   3.076  15.221 -1.2877  0.9215  0.2754
19755TIP3   OH280755   3.501   5.680   3.695  0.4910  0.2893 -0.2073
19755TIP3    H180756   3.457   5.599   3.718  0.1732  0.4086 -0.3806
19755TIP3    H280757   3.464   5.704   3.610 -0.3054  1.2457  0.3915
19756TIP3   OH280758   5.313   0.600  15.290 -0.0924 -0.5689 -0.7170
19756TIP3    H180759   5.406   0.580  15.280  0.5030  2.1134 -1.4338
19756TIP3    H280760   5.308   0.652  15.370 -1.0301 -0.8409 -0.5853
19757TIP3   OH280761   0.480   3.109  11.045  0.3147  0.1054  0.7315
19757TIP3    H180762   0.489   3.027  11.094 -0.6702 -0.8719 -0.6468
19757TIP3    H280763   0.386   3.123  11.039  0.4507  0.7324 -0.0134
19758TIP3   OH280764   1.604   4.065   4.089 -0.8573  0.4596 -0.1666
19758TIP3    H180765   1.591   4.084   3.996 -0.7604  0.3742 -0.1980
19758TIP3    H280766   1.619   3.970   4.093 -0.2685  0.5478 -0.1306
19759TIP3   OH280767   4.049   4.658  13.167 -0.2162 -0.0417  0.1798
19759TIP3    H180768   4.046   4.711  13.246 -0.8123  0.2641 -0.0389
19759TIP3    H280769   4.139   4.668  13.134 -0.4675  1.2866 -0.1559
19760TIP3   OH280770   6.300   2.574  13.674 -0.3100  0.3738  0.0164
19760TIP3    H180771   6.303   2.479  13.663  0.3023  0.5226 -1.3444
19760TIP3    H280772   6.327   2.608  13.589  0.1565  1.7634  0.7024
19761TIP3   OH280773   3.234   3.866   4.983  0.3796  0.1581 -0.5897
19761TIP3    H180774   3.159   3.824   4.939 -2.4689  4.0810 -0.0093
19761TIP3    H280775   3.238   3.823   5.068 -0.7856 -0.6060 -0.8806
19762TIP3   OH280776   1.142   0.767   3.865  0.6942 -0.0299 -0.4022
19762TIP3    H180777   1.090   0.736   3.939  1.2319 -0.0539 -0.0311
19762TIP3    H280778   1.101   0.851   3.841  0.1979 -0.2721 -0.4191
19763TIP3   OH280779   4.944   4.446  11.957 -0.3296  0.2288 -0.3647
19763TIP3    H180780   4.902   4.526  11.989 -1.7201 -0.9792  1.0236
19763TIP3    H280781   4.969   4.399  12.037  0.9031 -0.5220 -1.1586
19764TIP3   OH280782   0.029   5.334   1.970 -0.0564 -0.3864 -0.2140
19764TIP3    H180783  -0.013   5.406   2.017  0.7154  0.0138 -0.1226
19764TIP3    H280784   0.077   5.377   1.899  0.7507 -0.7747  0.0914
19765TIP3   OH280785   5.788   1.025   1.530 -0.1419 -0.0830  0.2161
19765TIP3    H180786   5.791   0.944   1.581  2.4914  0.3087  0.7863
19765TIP3    H280787   5.816   0.999   1.442 -0.9537 -0.0612 -0.0607
19766TIP3   OH280788   4.508   5.343   4.819  0.9055 -0.5420  0.0310
19766TIP3    H180789   4.589   5.295   4.805  0.5983 -0.7015 -1.2954
19766TIP3    H280790   4.439   5.279   4.803  0.5073 -0.0938 -0.0655
19767TIP3   OH280791   2.934   2.396   0.772  0.4134  0.1129  0.5291
19767TIP3    H180792   2.934   2.449   0.692 -0.3184 -1.5374 -0.6246
19767TIP3    H280793   2.849   2.413   0.811  0.5206  0.4364  0.6274
19768TIP3   OH280794   6.419   6.608   1.199  0.0768  0.2563  0.2749
19768TIP3    H180795   6.481   6.660   1.250 -0.2537 -0.3598  1.3299
19768TIP3    H280796   6.380   6.671   1.138 -0.3979  1.2879  1.5962
19769TIP3   OH280797   1.118   6.652  12.378 -0.1929 -0.6008 -0.0846
19769TIP3    H180798   1.193   6.596  12.398  1.4821  1.3099 -0.6664
19769TIP3    H280799   1.134   6.682  12.288 -0.1117  2.0864  0.7454
19770TIP3   OH280800   0.463   0.812   2.172  0.0305  0.6140 -0.0381
19770TIP3    H180801   0.551   0.830   2.139  0.6435  0.9482  1.6802
19770TIP3    H280802   0.406   0.869   2.120  0.7049 -0.2241 -1.7431
19771TIP3   OH280803   2.476   3.280  12.237 -0.6644  0.1758 -0.5667
19771TIP3    H180804   2.505   3.335  12.309  1.0787 -0.3533 -0.8150
19771TIP3    H280805   2.534   3.302  12.165  0.1820 -2.0460 -0.6320
19772TIP3   OH280806   3.504   6.413   3.751 -0.2844 -0.0444 -0.0784
19772TIP3    H180807   3.494   6.491   3.696  0.1930 -0.3590 -0.6244
19772TIP3    H280808   3.456   6.434   3.831  2.1296  1.9817  0.9852
19773TIP3   OH280809   2.226   0.135  15.042  0.3765  0.1753 -0.1223
19773TIP3    H180810   2.142   0.090  15.047  0.5825 -0.1832  0.3223
19773TIP3    H280811   2.220   0.204  15.108  1.5659 -1.8833  2.3522
19774TIP3   OH280812   4.801   2.848  12.801 -0.0858 -0.3565 -0.2220
19774TIP3    H180813   4.819   2.894  12.719 -0.9732  1.1422  0.3843
19774TIP3    H280814   4.721   2.798  12.784 -1.2353  1.2786  0.1899
19775TIP3   OH280815   0.440   3.643  13.802 -0.2863  0.3970  0.2856
19775TIP3    H180816   0.534   3.656  13.813 -0.3527  1.2966 -0.0886
19775TIP3    H280817   0.400   3.703  13.865 -0.6125  0.0584  0.4042
19776TIP3   OH280818   2.836   1.723   0.911  0.6467 -0.2639 -0.0429
19776TIP3    H180819   2.794   1.655   0.858  1.1315 -0.2715 -0.4270
19776TIP3    H280820   2.805   1.805   0.874  0.7101 -0.2720 -0.1149
19777TIP3   OH280821   6.411   0.272  11.213  0.0036 -0.0517 -0.3624
19777TIP3    H180822   6.416   0.351  11.267  3.3725 -0.8267  0.6573
19777TIP3    H280823   6.466   0.291  11.138 -0.9525 -0.6778 -1.2477
19778TIP3   OH280824   0.263   0.085  13.408 -0.1601  0.2923  0.3492
19778TIP3    H180825   0.206   0.162  13.408  0.7832  1.0316  1.4647
19778TIP3    H280826   0.342   0.114  13.362  0.1289 -0.0628  0.6118
19779TIP3   OH280827   2.866   3.672   1.505 -0.0452  0.4860  0.1698
19779TIP3    H180828   2.891   3.756   1.543  1.4885 -0.2469  0.8559
19779TIP3    H280829   2.770   3.671   1.512 -0.2754  2.8828 -1.4514
19780TIP3   OH280830   2.550   2.042  16.960 -0.2041  0.0261  0.2711
19780TIP3    H180831   2.559   2.090  16.878  0.0630 -0.4326  0.0266
19780TIP3    H280832   2.456   2.028  16.969 -0.1598 -1.1020 -0.6649
19781TIP3   OH280833   5.595   3.950  15.084  0.6629  0.1618 -0.5784
19781TIP3    H180834   5.613   4.023  15.025  1.5631  1.2927  1.0153
19781TIP3    H280835   5.500   3.939  15.080  0.8111 -1.0055 -3.5385
19782TIP3   OH280836   2.724   0.355   5.024  0.0790  0.6131  0.1523
19782TIP3    H180837   2.712   0.260   5.033 -1.4960  0.7238 -0.5668
19782TIP3    H280838   2.725   0.387   5.114  0.8417 -0.1003  0.4107
19783TIP3   OH280839   5.983   3.371   2.075  0.7975  0.1361 -0.0744
19783TIP3    H180840   5.960   3.438   2.010  2.8916 -0.4074 -1.5083
19783TIP3    H280841   6.049   3.414   2.130  0.6524 -0.1055  0.2837
19784TIP3   OH280842   4.746   1.684   6.268 -0.1817  0.0575 -1.1422
19784TIP3    H180843   4.768   1.776   6.254  1.1061 -0.4700 -2.8760
19784TIP3    H280844   4.655   1.686   6.296  0.3438  1.9626  0.7362
19785TIP3   OH280845   4.766   1.833   5.183 -0.0711  0.1615  0.3858
19785TIP3    H180846   4.838   1.878   5.227 -1.1653  1.9812  0.4038
19785TIP3    H280847   4.709   1.803   5.254  0.4062 -0.8900  0.3505
19786TIP3   OH280848   1.345   0.811  16.752 -0.5087  0.2221 -0.1814
19786TIP3    H180849   1.320   0.723  16.779 -0.0362  0.0566 -0.2684
19786TIP3    H280850   1.292   0.869  16.806 -1.3243 -0.1115 -0.5877
19787TIP3   OH280851   3.883   6.575  13.155  0.3117 -0.0549 -0.2304
19787TIP3    H180852   3.923   6.585  13.241 -2.6631  2.0068  1.0672
19787TIP3    H280853   3.903   6.657  13.109  0.3375 -0.3836 -0.8177
19788TIP3   OH280854   4.549   1.298  15.537  0.4808  0.2008 -0.2334
19788TIP3    H180855   4.459   1.321  15.514  0.2272 -1.0303 -0.5356
19788TIP3    H280856   4.568   1.351  15.615 -0.5752  0.3311 -0.0535
19789TIP3   OH280857   3.042   0.385   6.009 -0.0402 -0.1567  0.4538
19789TIP3    H180858   3.082   0.344   5.933 -0.9819 -0.4929  0.1281
19789TIP3    H280859   2.955   0.346   6.015 -0.9335  1.6866  0.2020
19790TIP3   OH280860   3.143   6.379  15.395 -0.0422 -0.0271 -0.7786
19790TIP3    H180861   3.150   6.295  15.349 -0.3128 -1.1427  1.1219
19790TIP3    H280862   3.225   6.388  15.443  0.4625  1.3846 -1.8409
19791TIP3   OH280863   3.877   5.075   0.353 -0.3924 -0.0168 -0.0309
19791TIP3    H180864   3.850   5.117   0.435  0.2928  1.9429 -0.7594
19791TIP3    H280865   3.962   5.035   0.374  0.8390  2.3312 -0.2838
19792TIP3   OH280866   4.196   2.742   2.289 -0.8146 -0.1360  0.0485
19792TIP3    H180867   4.169   2.650   2.289 -2.8193  0.3989 -1.0418
19792TIP3    H280868   4.239   2.754   2.374 -0.0349 -2.1794 -0.0042
19793TIP3   OH280869   5.693   1.336  11.915 -0.4182 -0.7919 -0.4314
19793TIP3    H180870   5.712   1.255  11.962  2.1955 -0.4196 -0.6732
19793TIP3    H280871   5.703   1.405  11.981 -0.4247 -0.5283 -0.7031
19794TIP3   OH280872   4.769   4.187  16.015  0.7505  0.4004  0.4144
19794TIP3    H180873   4.811   4.159  15.933 -1.2652  0.3973 -0.6874
19794TIP3    H280874   4.752   4.280  16.002 -1.0688  0.0563  0.1008
19795TIP3   OH280875   3.327   1.347   5.352  0.5686 -0.3494 -0.0560
19795TIP3    H180876   3.261   1.366   5.285  0.3513  1.4216  0.6054
19795TIP3    H280877   3.397   1.302   5.305 -0.3522 -0.7371 -1.1029
19796TIP3   OH280878   5.497   3.756  15.981  0.2743 -0.7607 -0.1017
19796TIP3    H180879   5.524   3.810  16.056  0.0459 -0.8711  0.0615
19796TIP3    H280880   5.579   3.730  15.940  0.3970 -0.5666  0.0176
19797TIP3   OH280881   5.347   1.459  12.136  0.1500 -0.1043  0.3353
19797TIP3    H180882   5.322   1.458  12.044  0.4460 -0.6599  0.2540
19797TIP3    H280883   5.443   1.464  12.135  0.2683 -1.6824  0.5726
19798TIP3   OH280884   5.899   2.567  17.061 -0.0986 -0.5385  0.6200
19798TIP3    H180885   5.932   2.656  17.069 -1.5218 -0.0143  0.8594
19798TIP3    H280886   5.828   2.573  16.997 -0.2956 -1.4797  0.7375
19799TIP3   OH280887   3.773   3.086  16.771 -0.5540  0.3593  0.1376
19799TIP3    H180888   3.781   2.991  16.767  0.9285  0.1485  3.9324
19799TIP3    H280889   3.685   3.101  16.806 -0.3173  0.2824  0.7814
19800TIP3   OH280890   1.736   1.933  15.332  0.0622 -0.0115 -0.1000
19800TIP3    H180891   1.735   2.026  15.354  2.7382  0.4595 -1.5195
19800TIP3    H280892   1.829   1.913  15.320 -0.3983 -3.0456  0.7604
19801TIP3   OH280893   5.958   1.469   5.434 -0.4119  0.2985  0.0592
19801TIP3    H180894   5.968   1.433   5.522 -0.0163 -1.1554 -0.5613
19801TIP3    H280895   5.945   1.393   5.378 -1.2761  1.2406 -1.0712
19802TIP3   OH280896   5.268   3.049  14.028 -0.2892  0.3066  0.4926
19802TIP3    H180897   5.282   3.134  13.985  0.5882  0.3399  0.8215
19802TIP3    H280898   5.354   3.008  14.027 -0.6492 -0.4602  0.6046
19803TIP3   OH280899   6.688   3.025   2.615  0.3742 -0.7493  0.8324
19803TIP3    H180900   6.741   3.088   2.567 -0.1968 -0.6452  0.3231
19803TIP3    H280901   6.731   3.016   2.700  0.7721 -0.0990  0.7023
19804TIP3   OH280902   2.140   3.035  16.143  0.8825  0.4794  0.1821
19804TIP3    H180903   2.192   3.068  16.216  0.7722  1.0431  0.0134
19804TIP3    H280904   2.176   2.949  16.124  0.0595 -0.2612  1.7669
19805TIP3   OH280905   4.156   1.832   0.062 -0.7131 -0.5045 -0.1958
19805TIP3    H180906   4.242   1.824   0.020 -0.7040  0.2495 -0.3289
19805TIP3    H280907   4.100   1.772   0.013  0.1046 -2.2633  0.9209
19806TIP3   OH280908   2.571   1.808   0.159  0.8141 -0.4011  0.2381
19806TIP3    H180909   2.577   1.880   0.221 -1.1337  0.9981 -1.0730
19806TIP3    H280910   2.527   1.738   0.208  0.1767  0.3240  0.7244
19807TIP3   OH280911   2.207   0.299   2.963  0.3188  0.0243  0.4912
19807TIP3    H180912   2.260   0.245   2.904  0.6288  1.8691 -1.0262
19807TIP3    H280913   2.271   0.339   3.022  0.3169  0.1991  0.3760
19808TIP3   OH280914   0.395   0.899  16.042  0.7082  0.3867  0.0299
19808TIP3    H180915   0.381   0.991  16.064  0.8039  0.2789  0.5447
19808TIP3    H280916   0.307   0.861  16.041  0.6008  0.6398 -0.9005
19809TIP3   OH280917   1.916   0.928  13.031  0.0043  0.1789  0.2364
19809TIP3    H180918   1.960   0.843  13.037  0.1936  0.2450 -0.2187
19809TIP3    H280919   1.886   0.945  13.121 -0.4912 -0.6016  0.2247
19810TIP3   OH280920   0.809   3.657  11.266 -0.0617  0.0315  0.1496
19810TIP3    H180921   0.821   3.651  11.171  0.2892  1.9529  0.0412
19810TIP3    H280922   0.887   3.614  11.302  1.3046  1.8063 -0.4987
19811TIP3   OH280923   1.161   4.342  12.661 -0.4294  0.2521  0.0665
19811TIP3    H180924   1.068   4.322  12.654 -0.6340  1.2227 -0.0106
19811TIP3    H280925   1.192   4.285  12.732 -1.3776  0.9856  1.1009
19812TIP3   OH280926   1.507   1.405  12.766  0.3808  0.0503  0.2513
19812TIP3    H180927   1.515   1.319  12.807 -1.3935 -0.4308 -0.3591
19812TIP3    H280928   1.559   1.397  12.686  0.4198 -0.3801  0.3132
19813TIP3   OH280929   6.320   3.204   0.356  0.2019  0.1869  0.0178
19813TIP3    H180930   6.298   3.227   0.446  1.6591 -0.5935  0.6091
19813TIP3    H280931   6.416   3.207   0.354  0.2080 -0.3812 -1.3477
19814TIP3   OH280932   2.890   0.127  14.834 -0.3184  0.2985  0.2728
19814TIP3    H180933   2.936   0.048  14.861 -0.6839 -0.2020 -0.5512
19814TIP3    H280934   2.814   0.132  14.892 -0.9013 -0.5722 -0.3966
19815TIP3   OH280935   2.762   3.356  11.180 -0.5671 -0.1604 -0.6796
19815TIP3    H180936   2.752   3.272  11.136 -1.1871 -0.0955 -0.6692
19815TIP3    H280937   2.856   3.375  11.175 -0.3120 -1.1912 -0.0402
19816TIP3   OH280938   1.844   1.456  13.176 -0.4192 -0.5718  0.5681
19816TIP3    H180939   1.800   1.484  13.256  1.5103  1.3938  1.0250
19816TIP3    H280940   1.922   1.410  13.206 -0.2272 -0.7735 -0.2135
19817TIP3   OH280941   5.230   3.678  16.079  0.5288 -0.6397 -0.4730
19817TIP3    H180942   5.306   3.694  16.023  3.8324  0.9494  3.9262
19817TIP3    H280943   5.221   3.582  16.079  3.7306 -1.0650  0.0737
19818TIP3   OH280944   0.388   1.301  13.989  0.2355 -0.2049 -0.1245
19818TIP3    H180945   0.388   1.285  14.083  2.2161  0.6943  0.1008
19818TIP3    H280946   0.331   1.377  13.978  0.1178 -0.2153  0.3690
19819TIP3   OH280947   3.012   3.886   1.047  0.0771 -0.3401 -0.0134
19819TIP3    H180948   3.056   3.968   1.025 -0.0343 -0.5103 -0.9075
19819TIP3    H280949   2.990   3.895   1.139  0.8986  0.2474  0.1352
19820TIP3   OH280950   4.007   0.998   1.813  0.1053 -0.6191 -0.1374
19820TIP3    H180951   3.994   1.075   1.758  1.4093 -0.1176  0.2191
19820TIP3    H280952   4.019   0.926   1.752 -0.4855 -0.4390 -0.4777
19821TIP3   OH280953   3.244   4.786   2.114  0.6789  0.5945 -0.0373
19821TIP3    H180954   3.290   4.711   2.151 -0.8210 -0.1781  0.3670
19821TIP3    H280955   3.295   4.862   2.141  1.1109 -0.1393  1.3129
19822TIP3   OH280956   2.731   0.012  12.703  0.0467 -0.4124  0.3087
19822TIP3    H180957   2.709   0.021  12.795 -1.3817 -1.4121  0.0925
19822TIP3    H280958   2.781  -0.069  12.697 -1.7643 -1.5592 -0.0559
19823TIP3   OH280959   3.636   3.386   4.959  0.0086  0.6427 -0.5997
19823TIP3    H180960   3.633   3.481   4.956  1.2930  0.6828 -1.5047
19823TIP3    H280961   3.724   3.364   4.928 -1.2045 -0.9339 -3.2129
19824TIP3   OH280962   2.254   2.859  13.709 -0.3752 -0.3391  0.0837
19824TIP3    H180963   2.300   2.919  13.650 -0.3862 -1.8917 -1.5865
19824TIP3    H280964   2.164   2.857  13.676 -0.2596 -1.6206 -0.2178
19825TIP3   OH280965   3.304   2.690   1.946 -0.0583  0.4253  0.1257
19825TIP3    H180966   3.324   2.599   1.970  1.0990 -0.1684 -2.7234
19825TIP3    H280967   3.389   2.734   1.950 -0.1269  0.6934 -1.1433
19826TIP3   OH280968   3.131   0.928  12.136  0.3014  0.1064 -0.0066
19826TIP3    H180969   3.070   1.000  12.149  1.4073  1.0542  0.0978
19826TIP3    H280970   3.131   0.912  12.042  0.0316  0.2210 -0.0247
19827TIP3   OH280971   2.427   0.143  17.124 -0.5870 -0.4572  0.4336
19827TIP3    H180972   2.462   0.142  17.213  1.1967 -0.3835 -0.2397
19827TIP3    H280973   2.405   0.235  17.107 -0.7021 -0.4340  0.7042
19828TIP3   OH280974   4.980   5.357   5.463  0.1618  0.0676 -0.0136
19828TIP3    H180975   4.886   5.369   5.449  0.4802  0.9530 -1.5661
19828TIP3    H280976   4.986   5.272   5.508 -1.3600 -0.0322  0.0742
19829TIP3   OH280977   4.987   5.391  15.997 -0.2731  0.0122  0.3249
19829TIP3    H180978   5.065   5.391  16.053 -1.0000 -1.4293  1.4093
19829TIP3    H280979   5.016   5.432  15.915  1.7231 -0.8292  0.5551
19830TIP3   OH280980   5.443   2.142  15.961 -0.4137 -0.6498 -0.5577
19830TIP3    H180981   5.401   2.155  15.876 -1.0213  0.6667 -0.0787
19830TIP3    H280982   5.407   2.059  15.993 -1.7750 -0.1253 -0.6741
19831TIP3   OH280983   3.510   1.126   0.202  0.2837 -0.0308 -0.2923
19831TIP3    H180984   3.478   1.040   0.176 -0.8797  0.3228 -0.1052
19831TIP3    H280985   3.586   1.142   0.146 -0.3328 -0.5874 -1.3111
19832TIP3   OH280986   1.879   3.378   0.252 -0.3884 -0.1637  0.0968
19832TIP3    H180987   1.962   3.425   0.247 -0.0920 -0.7964 -1.7991
19832TIP3    H280988   1.842   3.404   0.336  1.1797  1.0327  0.4743
19833TIP3   OH280989   0.456   5.349   4.316  0.0721  0.2975  0.7590
19833TIP3    H180990   0.497   5.266   4.292 -0.3207  0.0395  0.9703
19833TIP3    H280991   0.518   5.416   4.286  0.0546 -0.0416 -0.0654
19834TIP3   OH280992   2.414   2.282   4.754  0.3464  0.0824  0.3546
19834TIP3    H180993   2.341   2.294   4.815  0.2691 -0.7932  0.4598
19834TIP3    H280994   2.438   2.190   4.765  0.2617 -0.1309 -1.0167
19835TIP3   OH280995   0.151   0.763  16.063  0.3087 -0.0221  0.0601
19835TIP3    H180996   0.100   0.728  15.990 -1.7313  0.1887  1.3021
19835TIP3    H280997   0.105   0.843  16.089  1.3148  0.2182  1.1931
19836TIP3   OH280998   1.236   0.974  15.493 -0.2496 -0.2697  0.6120
19836TIP3    H180999   1.326   0.947  15.507 -0.3398 -0.9457 -0.0288
19836TIP3    H281000   1.183   0.899  15.520 -0.5421 -0.4639 -0.4356
19837TIP3   OH281001   0.097   3.928  12.913 -0.0740 -0.3521 -0.4525
19837TIP3    H181002   0.152   3.857  12.881 -1.1766 -1.5345  0.1830
19837TIP3    H281003   0.100   3.919  13.009  1.5636  1.8738 -0.1982
19838TIP3   OH281004   4.903   1.714   1.201  0.0213  1.3234  0.4691
19838TIP3    H181005   4.960   1.743   1.130 -0.8840  1.2237 -0.3211
19838TIP3    H281006   4.825   1.770   1.194 -0.4388  0.7525  0.8608
19839TIP3   OH281007   1.277   3.312  12.532 -0.6909  0.0399  0.2247
19839TIP3    H181008   1.237   3.399  12.531  1.2417  0.9923 -0.1973
19839TIP3    H281009   1.295   3.295  12.624 -1.1581  0.0399  0.3187
19840TIP3   OH281010   4.291   2.939   2.946  0.5018  0.0464 -0.4455
19840TIP3    H181011   4.374   2.985   2.936  0.4777 -0.1362 -1.5535
19840TIP3    H281012   4.245   2.988   3.014  0.9116  1.0134 -0.8460
19841TIP3   OH281013   4.109   5.328  13.671  0.0328 -0.0605  0.7402
19841TIP3    H181014   4.101   5.373  13.586  0.8687  0.0864  0.7258
19841TIP3    H281015   4.022   5.294  13.689 -0.5859  1.3928  0.6412
19842TIP3   OH281016   1.884   2.766  11.871  0.1463 -0.7461  0.7484
19842TIP3    H181017   1.789   2.756  11.884 -0.2161 -0.7386 -1.4918
19842TIP3    H281018   1.920   2.680  11.892 -0.3898 -0.8273  1.3579
19843TIP3   OH281019   4.385   1.776   2.492  0.3366  0.0559 -0.0229
19843TIP3    H181020   4.420   1.864   2.486 -0.6148  0.5906  1.5159
19843TIP3    H281021   4.443   1.722   2.439  1.9125  1.3299  0.3587
19844TIP3   OH281022   5.149   1.301  11.739 -0.0904 -0.0706 -0.2186
19844TIP3    H181023   5.053   1.310  11.740 -0.1640 -0.6685 -0.8881
19844TIP3    H281024   5.176   1.342  11.657  0.0659 -1.2224 -0.7670
19845TIP3   OH281025   5.899   5.301   3.419 -0.2911  0.4253 -0.2966
19845TIP3    H181026   5.891   5.335   3.329 -2.3074  0.6436 -0.0890
19845TIP3    H281027   5.976   5.345   3.454 -0.7790  2.1150 -1.2016
19846TIP3   OH281028   5.961   1.304   5.890  0.1615 -0.3558  0.2183
19846TIP3    H181029   5.901   1.311   5.964 -0.7832 -1.2662 -0.4283
19846TIP3    H281030   5.912   1.256   5.823  1.6128 -1.1377 -0.3400
19847TIP3   OH281031   0.701   0.327   2.630  0.0953  0.2022  0.4388
19847TIP3    H181032   0.724   0.358   2.717  0.7342  0.5909  0.1412
19847TIP3    H281033   0.612   0.293   2.639  0.5110 -0.6648  1.4579
19848TIP3   OH281034   6.168   3.400  11.634 -0.4684 -0.2787  0.1218
19848TIP3    H181035   6.086   3.419  11.587 -0.1945  1.5101  0.3332
19848TIP3    H281036   6.212   3.335  11.578 -1.4049 -0.2432 -0.6889
19849TIP3   OH281037   6.097   2.229   5.492 -0.5223 -0.1146  0.0367
19849TIP3    H181038   6.140   2.147   5.467  0.0090  0.2209 -0.1790
19849TIP3    H281039   6.010   2.203   5.521 -0.8150 -0.6187 -1.2401
19850TIP3   OH281040   3.686   0.508  15.772 -0.1675  0.8653  0.0534
19850TIP3    H181041   3.705   0.550  15.856  0.9487 -0.4472  0.5097
19850TIP3    H281042   3.633   0.432  15.795 -2.6706  2.2454 -0.8189
19851TIP3   OH281043   3.424   2.936   2.038  0.3852 -0.1402  0.0683
19851TIP3    H181044   3.500   2.907   1.988  0.7642 -0.2128  0.6729
19851TIP3    H281045   3.375   2.992   1.978  0.6739 -0.4602 -0.4755
19852TIP3   OH281046   5.585   2.841  13.447  1.0586  0.2760  0.4346
19852TIP3    H181047   5.605   2.843  13.354 -0.2110  0.9134  0.1540
19852TIP3    H281048   5.520   2.772  13.457 -0.0018  1.2533  0.5614
19853TIP3   OH281049   4.954   5.339  12.098  0.2270 -0.4836 -0.1554
19853TIP3    H181050   5.031   5.311  12.146  0.2389 -1.4592 -0.7255
19853TIP3    H281051   4.960   5.295  12.014 -1.2704 -1.0787  0.0187
19854TIP3   OH281052   5.202   3.605  17.089 -0.2270  0.5538 -0.0068
19854TIP3    H181053   5.235   3.539  17.027 -0.2150  0.8056 -0.2736
19854TIP3    H281054   5.278   3.629  17.141 -0.3036  0.1186  0.3131
19855TIP3   OH281055   6.746   4.593  15.055  0.0168  0.1011 -0.4467
19855TIP3    H181056   6.786   4.574  15.140  0.2687 -0.5648 -0.7123
19855TIP3    H281057   6.814   4.573  14.992  0.5932  2.6325 -0.7282
19856TIP3   OH281058   3.403   5.165   5.445 -0.1660 -0.5108  0.6839
19856TIP3    H181059   3.319   5.155   5.490 -1.1479 -0.3328 -1.0442
19856TIP3    H281060   3.386   5.139   5.355  1.4628  0.1918  0.1315
19857TIP3   OH281061   6.176   2.368  16.362 -0.1529 -0.1194 -0.5209
19857TIP3    H181062   6.099   2.368  16.419 -0.2562  1.6948 -0.5926
19857TIP3    H281063   6.199   2.461  16.354  0.7530 -0.4550 -2.2315
19858TIP3   OH281064   0.432   3.353  10.838  0.1261 -0.1350  0.2305
19858TIP3    H181065   0.475   3.273  10.808  1.1517  0.6622 -0.5422
19858TIP3    H281066   0.473   3.372  10.923 -0.3488 -0.5975  0.5637
19859TIP3   OH281067   4.645   2.769  15.407  0.0463 -0.5508 -0.0069
19859TIP3    H181068   4.664   2.700  15.344  1.4275  0.5564 -0.8614
19859TIP3    H281069   4.730   2.810  15.424 -0.4732 -0.1080  1.7395
19860TIP3   OH281070   6.431   2.980  16.781 -0.7815  0.1381 -0.2347
19860TIP3    H181071   6.390   2.986  16.868  0.8118 -1.5968  0.7269
19860TIP3    H281072   6.445   2.886  16.769  0.5118  0.4835 -1.6580
19861TIP3   OH281073   6.713   4.648   3.537 -0.3522  0.0435  0.0460
19861TIP3    H181074   6.676   4.601   3.462  1.5413 -2.1506  0.3436
19861TIP3    H281075   6.731   4.579   3.601  2.4013  1.1364  0.6044
19862TIP3   OH281076   0.396   1.871  14.787 -0.4146 -0.0237  0.0990
19862TIP3    H181077   0.376   1.842  14.876  0.4784 -1.4933 -0.1484
19862TIP3    H281078   0.316   1.854  14.738 -0.1177 -1.5717  0.1034
19863TIP3   OH281079   5.886   3.744   3.485 -0.6965  0.3575 -0.7739
19863TIP3    H181080   5.906   3.673   3.424 -1.3077 -0.2922 -0.2330
19863TIP3    H281081   5.947   3.730   3.558 -1.3475 -0.0853 -0.3096
19864TIP3   OH281082   1.017   2.564   6.350  0.5533  0.7165 -0.4308
19864TIP3    H181083   0.984   2.654   6.354 -1.2165  0.0658  0.5723
19864TIP3    H281084   0.963   2.516   6.412  1.9763 -0.9075 -0.3840
19865TIP3   OH281085   4.591   2.571  11.638 -0.2090  0.0566  0.1206
19865TIP3    H181086   4.590   2.479  11.664  0.5006 -0.6132 -2.0427
19865TIP3    H281087   4.508   2.586  11.594 -0.6157  0.6674  1.0597
19866TIP3   OH281088   5.397   2.370  12.635  0.1984 -0.1257  0.4150
19866TIP3    H181089   5.369   2.423  12.710  0.5542 -0.0491  0.4944
19866TIP3    H281090   5.385   2.280  12.663 -0.7355 -0.1013  0.1581
19867TIP3   OH281091   3.143   4.999   1.261  0.1258 -0.7393  0.2359
19867TIP3    H181092   3.209   5.058   1.297  0.2943 -0.4129 -0.5832
19867TIP3    H281093   3.108   4.952   1.337  2.9025 -2.6103  0.5023
19868TIP3   OH281094   6.388   1.342   2.057  0.0013 -0.5599  0.1709
19868TIP3    H181095   6.370   1.256   2.019 -0.0712 -0.4886  0.0417
19868TIP3    H281096   6.301   1.378   2.077 -0.1968  0.7492 -2.5665
19869TIP3   OH281097   0.518   0.297  13.021  0.0339  0.3358 -0.1587
19869TIP3    H181098   0.560   0.229  12.969  0.4820  1.0621 -0.7713
19869TIP3    H281099   0.588   0.331  13.076 -0.6986 -1.2597  1.8705
19870TIP3   OH281100   1.205   5.781  13.448  0.2209 -0.0395  0.2055
19870TIP3    H181101   1.271   5.716  13.426  0.9165  0.7118  0.0394
19870TIP3    H281102   1.133   5.764  13.387  0.7547 -0.0907 -0.4142
19871TIP3   OH281103   1.816   1.044   3.709 -0.2705 -0.9152 -0.1714
19871TIP3    H181104   1.877   0.989   3.758  0.2546  0.4511  0.7661
19871TIP3    H281105   1.734   0.994   3.708  0.5499 -2.2970 -0.5346
19872TIP3   OH281106   0.126   1.451   3.773 -0.3812 -0.0881  0.8546
19872TIP3    H181107   0.081   1.517   3.721 -1.6625 -0.4438  1.4786
19872TIP3    H281108   0.143   1.494   3.857  0.3201 -0.0068  0.6766
19873TIP3   OH281109   6.566   2.485   3.453 -0.2097 -0.0477 -0.2060
19873TIP3    H181110   6.498   2.429   3.416  0.4475 -1.1517  0.2080
19873TIP3    H281111   6.526   2.522   3.532 -0.7865  0.4098 -0.7003
19874TIP3   OH281112   1.428   2.002  15.285  0.0875  0.4461 -0.2290
19874TIP3    H181113   1.485   1.961  15.221 -1.0905 -1.5557 -0.0624
19874TIP3    H281114   1.470   2.086  15.304  1.8039 -0.0260 -1.6831
19875TIP3   OH281115   0.166   3.696   1.775  0.0063 -0.3735  0.3709
19875TIP3    H181116   0.112   3.761   1.730  1.3512 -0.3656 -1.3818
19875TIP3    H281117   0.222   3.747   1.834  0.8361  0.0948 -0.7647
19876TIP3   OH281118   4.608   6.247  15.522 -0.5892 -0.3465 -0.2087
19876TIP3    H181119   4.529   6.240  15.468  0.0442 -0.4261 -1.1584
19876TIP3    H281120   4.644   6.158  15.523 -0.5097 -0.3091  0.2147
19877TIP3   OH281121   5.991   3.380   5.294 -0.0349 -0.0194  0.0667
19877TIP3    H181122   5.978   3.463   5.339  0.4293 -0.3207  0.7728
19877TIP3    H281123   5.929   3.320   5.337 -1.7419  0.3976 -1.7021
19878TIP3   OH281124   3.021   1.304   1.108  0.3276 -0.0286 -0.4026
19878TIP3    H181125   3.051   1.314   1.198 -1.3508 -0.1686  0.2033
19878TIP3    H281126   2.934   1.265   1.116  0.3335 -0.4629 -2.1099
19879TIP3   OH281127   1.888   3.172  16.153  0.1408  0.7665  0.0588
19879TIP3    H181128   1.979   3.146  16.168  0.6305  1.9295 -0.7751
19879TIP3    H281129   1.858   3.117  16.081 -0.0292 -0.0283  0.7142
19880TIP3   OH281130   1.064   5.955   4.617 -0.1894 -0.3501  0.4754
19880TIP3    H181131   1.121   5.882   4.592 -1.4595 -1.2845  0.2239
19880TIP3    H281132   1.012   5.921   4.689 -0.2039  0.6101  0.9338
19881TIP3   OH281133   4.467   1.073  13.733  0.0953  0.3649  0.3468
19881TIP3    H181134   4.540   1.097  13.677 -1.0442  0.5800 -1.0963
19881TIP3    H281135   4.394   1.127  13.702 -1.3559 -1.6581  0.0213
19882TIP3   OH281136   5.516   1.618  16.253 -0.7741 -0.5427  0.0629
19882TIP3    H181137   5.437   1.609  16.199  0.2394  0.2259 -1.6491
19882TIP3    H281138   5.483   1.639  16.340 -2.4786 -1.0097 -0.4259
19883TIP3   OH281139   2.851   6.501   4.916  0.0319 -0.1538  0.2047
19883TIP3    H181140   2.921   6.478   4.855  0.1040  0.0970  0.1935
19883TIP3    H281141   2.841   6.596   4.907  0.5542 -0.0006  1.1280
19884TIP3   OH281142   2.293   0.158  12.332  0.4348  0.5130  0.5000
19884TIP3    H181143   2.347   0.109  12.395 -0.3761  1.0083  1.6038
19884TIP3    H281144   2.203   0.141  12.360  0.0038  0.0587 -1.0547
19885TIP3   OH281145   4.538   4.972   0.712  0.0554  0.0276  0.6570
19885TIP3    H181146   4.632   4.990   0.720  0.3307 -0.5280 -1.0224
19885TIP3    H281147   4.533   4.880   0.686 -1.0278 -0.2833  1.8453
19886TIP3   OH281148   6.062   1.535   1.403  0.2123  0.3499  0.0362
19886TIP3    H181149   6.097   1.499   1.484  1.2828  0.8793 -0.1798
19886TIP3    H281150   6.061   1.629   1.417  2.0892  0.6069 -1.1775
19887TIP3   OH281151   0.244   2.327  16.783  0.1180  0.0101  0.0447
19887TIP3    H181152   0.280   2.305  16.697 -0.6578  0.1467 -0.3258
19887TIP3    H281153   0.236   2.243  16.828  1.6002  0.0431  0.4372
19888TIP3   OH281154   4.948   0.320  15.476 -0.1231 -0.4454 -0.9694
19888TIP3    H181155   5.029   0.370  15.489 -1.2777  1.3622 -0.2843
19888TIP3    H281156   4.914   0.350  15.392 -0.1049 -1.1726 -1.2410
19889TIP3   OH281157   2.449   2.201   5.796  0.1359  0.7476 -0.1743
19889TIP3    H181158   2.429   2.241   5.880 -0.5928 -0.7237  0.3846
19889TIP3    H281159   2.530   2.152   5.811  0.0066  0.4842 -0.3243
19890TIP3   OH281160   6.471   6.445   3.546 -0.0992  0.2100 -0.1125
19890TIP3    H181161   6.532   6.469   3.617  0.2235  0.4237 -0.4558
19890TIP3    H281162   6.432   6.363   3.575  1.2892 -0.6143 -0.4472
19891TIP3   OH281163   4.758   5.165   0.313 -0.2664 -0.5184 -0.4731
19891TIP3    H181164   4.690   5.099   0.324  0.2307 -0.9363  0.1802
19891TIP3    H281165   4.775   5.167   0.218 -0.0090 -1.6239 -0.4605
19892TIP3   OH281166   0.872   4.317  12.714  0.4266  0.2951  0.0328
19892TIP3    H181167   0.799   4.377  12.699  0.3300  0.5932  1.5160
19892TIP3    H281168   0.854   4.243  12.656 -0.5064  0.8191 -0.3792
19893TIP3   OH281169   5.675   3.778  11.193 -0.2521  0.3484  0.6137
19893TIP3    H181170   5.679   3.868  11.163 -1.5067 -0.0664 -0.9177
19893TIP3    H281171   5.610   3.736  11.136 -0.9575 -1.0995  2.3887
19894TIP3   OH281172   4.819   1.517   4.140 -0.3276  0.0435  0.1306
19894TIP3    H181173   4.755   1.526   4.211 -0.7644 -1.6014 -0.0329
19894TIP3    H281174   4.768   1.488   4.065  0.7868 -3.3604  0.5126
19895TIP3   OH281175   4.837   1.400  13.381  0.8944 -0.6364  0.7631
19895TIP3    H181176   4.918   1.398  13.431  1.6025 -0.3791 -0.3393
19895TIP3    H281177   4.844   1.479  13.328  0.2513 -0.9958  0.1283
19896TIP3   OH281178   0.705   2.799   2.949  0.6626 -0.3360  0.2981
19896TIP3    H181179   0.724   2.855   2.874  1.0918  0.3485  0.9017
19896TIP3    H281180   0.764   2.830   3.018  1.8559 -2.3759  0.2785
19897TIP3   OH281181   4.722   1.849   4.141 -0.1321  0.0536 -0.1220
19897TIP3    H181182   4.630   1.827   4.123  0.6250 -2.9735 -0.9590
19897TIP3    H281183   4.722   1.874   4.234 -1.8822  0.8831 -0.2971
19898TIP3   OH281184   3.430   3.596   2.289  0.6225 -0.3393 -0.1691
19898TIP3    H181185   3.519   3.574   2.316  1.0053  1.2901  0.0287
19898TIP3    H281186   3.382   3.608   2.371  0.2177 -1.2167 -0.2756
19899TIP3   OH281187   0.947   4.735  15.759  0.1730  0.5584 -0.2615
19899TIP3    H181188   0.955   4.831  15.763 -0.8995  0.7188 -1.2950
19899TIP3    H281189   1.001   4.711  15.684 -1.0553  0.5910 -1.1950
19900TIP3   OH281190   4.534   4.409   5.749 -0.3020 -0.2473 -0.2778
19900TIP3    H181191   4.565   4.365   5.828  0.4073 -2.4157 -1.6688
19900TIP3    H281192   4.442   4.387   5.743 -0.5441  0.5377  0.2798
19901TIP3   OH281193   3.959   6.400   4.008 -0.1268 -0.4053 -0.3985
19901TIP3    H181194   4.051   6.423   4.011 -0.2686  0.4705 -1.9253
19901TIP3    H281195   3.951   6.326   4.068  1.4564 -0.1712  0.1444
19902TIP3   OH281196   1.539   2.980   1.274  0.1423 -0.3333 -0.0503
19902TIP3    H181197   1.450   3.002   1.300  0.2512 -0.0961  0.1274
19902TIP3    H281198   1.593   3.007   1.348  0.3035 -0.9948  0.0780
19903TIP3   OH281199   1.152   1.012   3.208 -0.0105 -0.2416 -0.0574
19903TIP3    H181200   1.239   0.998   3.246 -0.7468 -1.7980  1.1697
19903TIP3    H281201   1.148   0.951   3.134  0.4463  0.8881 -1.0486
19904TIP3   OH281202   5.849   5.690  15.011  0.0090  0.3351 -0.5123
19904TIP3    H181203   5.866   5.693  15.105  1.6357 -0.4213 -0.7567
19904TIP3    H281204   5.773   5.632  15.002  2.3417 -3.1483  0.1169
19905TIP3   OH281205   0.789   3.182  16.091  0.2895  0.1128 -0.4117
19905TIP3    H181206   0.795   3.092  16.123  0.4793  0.4448  0.5412
19905TIP3    H281207   0.729   3.225  16.153 -0.7129  0.3653 -1.5219
19906TIP3   OH281208   4.245   0.764   2.231  0.3512 -0.5953  0.6217
19906TIP3    H181209   4.190   0.698   2.189  0.6403  0.9591 -2.5039
19906TIP3    H281210   4.328   0.720   2.248 -0.7939 -2.1391  2.6613
19907TIP3   OH281211   3.114   3.758  15.330  0.7782 -0.3155 -0.4765
19907TIP3    H181212   3.038   3.814  15.316  1.0804 -0.0249 -0.9955
19907TIP3    H281213   3.160   3.758  15.246  1.3587 -0.4732 -0.1697
19908TIP3   OH281214   1.151   1.306  16.289 -0.3584  0.2037 -0.2072
19908TIP3    H181215   1.062   1.311  16.254 -0.5411 -0.1252  0.2107
19908TIP3    H281216   1.186   1.224  16.255 -0.2945  0.2220 -0.1854
19909TIP3   OH281217   1.017   0.036   4.493  0.0893  0.3595 -0.1331
19909TIP3    H181218   1.070  -0.043   4.482 -0.4051 -0.1686  1.0378
19909TIP3    H281219   1.081   0.107   4.498  0.6377 -0.1501  0.3074
19910TIP3   OH281220   6.824   6.478  16.209  0.9456 -0.4170  0.0095
19910TIP3    H181221   6.773   6.557  16.229  0.1490 -0.2251 -2.4529
19910TIP3    H281222   6.893   6.508  16.150  2.7754 -1.0443  1.7317
19911TIP3   OH281223   6.529   1.088   2.255 -0.0356  0.1715 -0.0865
19911TIP3    H181224   6.562   1.175   2.279 -0.2468  0.1747  0.1912
19911TIP3    H281225   6.596   1.053   2.195  0.2719  0.3413  0.1526
19912TIP3   OH281226   0.858   3.234   6.042  0.7921  0.4367 -0.5498
19912TIP3    H181227   0.889   3.322   6.063  1.6126  0.6492 -2.5280
19912TIP3    H281228   0.763   3.242   6.040  0.8933  1.6628 -2.1487
19913TIP3   OH281229   3.243   2.035  10.904  0.0118  0.0824  0.2982
19913TIP3    H181230   3.157   2.000  10.880  0.2621 -1.6627  1.7119
19913TIP3    H281231   3.245   2.123  10.867 -1.1392 -0.9526 -2.5085
19914TIP3   OH281232   3.392   4.626   3.948  0.5985  0.1777 -0.4053
19914TIP3    H181233   3.441   4.702   3.981 -0.4364  0.5128  0.4195
19914TIP3    H281234   3.302   4.658   3.938  0.4363 -0.5614 -1.4291
19915TIP3   OH281235   4.522   4.133   2.513  0.0872  0.6576 -0.3367
19915TIP3    H181236   4.445   4.080   2.534  0.1099  0.4344 -0.8167
19915TIP3    H281237   4.526   4.198   2.584  0.5897 -0.5322  0.7746
19916TIP3   OH281238   3.088   5.489   2.507  0.4134  0.3063 -0.0367
19916TIP3    H181239   3.120   5.577   2.531  3.5768  0.3053 -3.3810
19916TIP3    H281240   3.019   5.506   2.443 -0.0990  0.3141  0.5089
19917TIP3   OH281241   3.924   2.874   0.965 -0.1193 -0.4074  0.9423
19917TIP3    H181242   3.875   2.830   1.034 -0.0228 -1.8597  0.1368
19917TIP3    H281243   3.952   2.803   0.907  0.5884  0.6747 -0.0886
19918TIP3   OH281244   6.610   1.843   0.059 -0.2321  0.2022 -0.3495
19918TIP3    H181245   6.537   1.795   0.098  0.9792 -1.6577 -0.2826
19918TIP3    H281246   6.613   1.813  -0.032  1.0918 -0.5878 -0.0752
19919TIP3   OH281247   4.788   4.901   0.630  0.5017  0.2750  0.1608
19919TIP3    H181248   4.865   4.936   0.586 -0.1566  0.8935 -0.5208
19919TIP3    H281249   4.739   4.857   0.561 -0.9834  2.0081  0.0593
19920TIP3   OH281250   1.496   4.425  11.391  0.2138 -0.4565  0.1240
19920TIP3    H181251   1.420   4.480  11.412  1.7065  1.2183  1.5133
19920TIP3    H281252   1.553   4.482  11.341  1.4004 -1.0435  0.7721
19921TIP3   OH281253   0.136   6.352  17.090 -0.1520 -0.5114 -0.3729
19921TIP3    H181254   0.083   6.375  17.166 -0.5453  0.8322 -1.0254
19921TIP3    H281255   0.076   6.361  17.015  0.1239 -2.1539 -0.8434
19922TIP3   OH281256   1.881   6.611   0.888 -0.5467  0.1632  0.1563
19922TIP3    H181257   1.807   6.627   0.829 -0.7293 -0.8322  0.0929
19922TIP3    H281258   1.947   6.674   0.861 -1.6705  1.6566  0.7730
19923TIP3   OH281259   6.461   6.118  15.214  0.1673  0.3861 -0.0815
19923TIP3    H181260   6.381   6.098  15.165  0.1298 -0.4001  0.2876
19923TIP3    H281261   6.444   6.202  15.255 -0.4933  0.2000  0.0330
19924TIP3   OH281262   2.328   3.365  15.511 -0.4347  0.4500 -0.2913
19924TIP3    H181263   2.383   3.360  15.589 -0.9972 -1.3547  0.0387
19924TIP3    H281264   2.241   3.387  15.545 -0.2292  2.0172 -0.6836
19925TIP3   OH281265   1.233   1.419  13.475 -0.4785  0.3063 -0.2487
19925TIP3    H181266   1.270   1.470  13.547  0.0901  0.6592 -0.7862
19925TIP3    H281267   1.227   1.330  13.510  1.0434  0.1999 -0.1896
19926TIP3   OH281268   3.462   5.098  13.301  0.1930  0.1712  0.1969
19926TIP3    H181269   3.387   5.051  13.265  0.9081 -1.3107  0.5880
19926TIP3    H281270   3.465   5.180  13.251 -1.2659 -0.0386 -0.2756
19927TIP3   OH281271   0.804   0.104  10.510 -0.1060  0.2791 -0.0014
19927TIP3    H181272   0.835   0.087  10.421 -0.4228 -0.0516 -0.0536
19927TIP3    H281273   0.709   0.091  10.505 -0.1099  0.1365  0.4102
19928TIP3   OH281274   0.911   1.933   5.010 -0.7083  0.3281 -0.2206
19928TIP3    H181275   0.922   2.026   5.030 -2.5846  0.4826  0.2609
19928TIP3    H281276   0.956   1.887   5.081 -0.1641  0.8562 -0.2188
19929TIP3   OH281277   0.133   0.692  10.074 -0.2330 -0.6447  0.5385
19929TIP3    H181278   0.198   0.746  10.119  1.7326 -2.2386 -0.2601
19929TIP3    H281279   0.069   0.669  10.142 -1.1401  2.5498  0.9105
19930TIP3   OH281280   1.048   3.363  16.074  0.2492  0.6547 -0.3896
19930TIP3    H181281   0.967   3.413  16.075 -0.1766 -0.0252 -0.5410
19930TIP3    H281282   1.079   3.365  16.164 -1.4077 -1.4384  0.2944
19931TIP3   OH281283   2.738   2.451   2.596  0.3314 -0.3338  0.6520
19931TIP3    H181284   2.824   2.434   2.635 -0.2799 -0.1581  2.1767
19931TIP3    H281285   2.725   2.545   2.607  0.5089 -0.1111 -0.8415
19932TIP3   OH281286   3.567   3.912  14.170  0.1463  0.0656 -0.0972
19932TIP3    H181287   3.489   3.951  14.132  1.5603  1.6260 -1.5852
19932TIP3    H281288   3.605   3.981  14.224  1.2748 -0.1379 -0.5981
19933TIP3   OH281289   1.812   4.924  16.197 -1.0240 -0.0958 -0.1921
19933TIP3    H181290   1.859   4.882  16.125  0.5870 -0.9903  1.3116
19933TIP3    H281291   1.856   5.007  16.209  0.5130 -1.0763  1.4366
19934TIP3   OH281292   6.393   4.937  14.986  0.0677 -0.3276  0.6717
19934TIP3    H181293   6.330   4.988  15.037 -3.1627 -2.4653 -0.8145
19934TIP3    H281294   6.405   4.857  15.036 -2.2972 -1.9782 -1.1610
19935TIP3   OH281295   3.941   5.195  14.238 -0.1916  0.5495  0.2135
19935TIP3    H181296   3.945   5.288  14.261 -0.9595  0.3080  1.4045
19935TIP3    H281297   3.848   5.173  14.242 -0.0054 -0.3068  0.0415
19936TIP3   OH281298   1.112   5.320   3.322 -0.0193  0.5687  0.2743
19936TIP3    H181299   1.071   5.348   3.404  0.5209  0.1954  0.6749
19936TIP3    H281300   1.046   5.340   3.255 -1.8731 -2.1176  1.1295
19937TIP3   OH281301   1.458   6.565  14.115  0.1652 -0.5005  0.1928
19937TIP3    H181302   1.535   6.588  14.063  0.8404 -0.7505  1.0665
19937TIP3    H281303   1.452   6.469  14.108  0.6742 -0.6118  1.1273
19938TIP3   OH281304   3.268   6.186   1.865  0.0319  0.3522  0.2643
19938TIP3    H181305   3.251   6.209   1.957 -1.7679  1.1621 -0.2268
19938TIP3    H281306   3.284   6.270   1.822  1.2288 -0.0571 -0.1220
19939TIP3   OH281307   4.324   0.810  12.833  0.1053  0.6177 -0.2290
19939TIP3    H181308   4.403   0.853  12.866  1.0294 -0.8936 -0.3723
19939TIP3    H281309   4.308   0.739  12.894 -0.6250  0.3698 -0.6996
19940TIP3   OH281310   5.556   6.557  12.654  0.0789 -0.6256  0.0591
19940TIP3    H181311   5.570   6.530  12.745 -1.3772  0.0620  0.5291
19940TIP3    H281312   5.590   6.484  12.602  4.0118  0.2891  0.9732
19941TIP3   OH281313   1.231   0.776   5.431  0.0748 -0.7106 -0.4638
19941TIP3    H181314   1.162   0.835   5.461  1.2287  1.5594 -2.0195
19941TIP3    H281315   1.296   0.777   5.501 -0.5851 -1.4092  0.1862
19942TIP3   OH281316   0.385   3.134  10.279  0.0488 -0.3494 -0.0354
19942TIP3    H181317   0.344   3.171  10.358 -3.0804  0.1619 -1.7254
19942TIP3    H281318   0.400   3.210  10.223  1.1389 -0.8396 -0.4237
19943TIP3   OH281319   1.315   5.938   3.565 -0.3087 -0.2594  0.2374
19943TIP3    H181320   1.298   5.848   3.591  0.7099 -0.7231 -0.6036
19943TIP3    H281321   1.410   5.947   3.574 -0.3886  0.6870  0.1867
19944TIP3   OH281322   3.085   0.285  11.244 -0.0847  0.3021  0.4142
19944TIP3    H181323   3.087   0.379  11.231 -1.7086  0.2181 -0.7706
19944TIP3    H281324   3.125   0.249  11.165  1.0743 -0.0181  1.1212
19945TIP3   OH281325   3.220   5.282   4.049  0.1648 -0.5674 -0.0017
19945TIP3    H181326   3.134   5.251   4.020 -0.9938 -0.0288  2.5343
19945TIP3    H281327   3.206   5.374   4.071  1.3760 -0.4850  0.4732
19946TIP3   OH281328   5.281   1.055  11.678 -0.4524 -0.6193  0.1865
19946TIP3    H181329   5.226   1.131  11.699 -3.0679 -2.3559  0.1021
19946TIP3    H281330   5.336   1.043  11.756 -2.4681 -0.6426  1.7016
19947TIP3   OH281331   5.614   2.743  15.696 -0.3454 -0.2782  0.5161
19947TIP3    H181332   5.616   2.652  15.726 -1.1220 -0.5029 -0.0788
19947TIP3    H281333   5.703   2.775  15.711 -0.6542 -0.3690  3.0496
19948TIP3   OH281334   1.588   5.552   0.829 -0.8853  0.2006 -0.1853
19948TIP3    H181335   1.530   5.583   0.899  1.1001  1.5133  0.9807
19948TIP3    H281336   1.605   5.630   0.776  0.3139  0.0048 -0.1085
19949TIP3   OH281337   0.855   1.734   1.928 -0.4840  0.4073  0.2679
19949TIP3    H181338   0.782   1.675   1.945  1.3286 -1.6726  1.1616
19949TIP3    H281339   0.870   1.727   1.833 -0.9489  0.2790  0.2016
19950TIP3   OH281340   4.129   6.126  12.276  0.5307  0.0951  0.3192
19950TIP3    H181341   4.158   6.123  12.367 -1.9527 -1.5927  1.1594
19950TIP3    H281342   4.168   6.048  12.236  0.4441  0.0345  0.3519
19951TIP3   OH281343   2.924   3.804  11.869  0.0832  0.0186  0.1847
19951TIP3    H181344   2.882   3.730  11.913 -0.8337  0.6931  0.4844
19951TIP3    H281345   2.978   3.844  11.937  0.3260 -0.1879  0.1124
19952TIP3   OH281346   2.725   2.983  11.755 -0.1913 -0.0897 -0.1169
19952TIP3    H181347   2.772   2.975  11.672 -2.4907  2.9700 -1.9427
19952TIP3    H281348   2.646   2.929  11.742  0.4821 -1.4220  1.0642
19953TIP3   OH281349   2.712   4.502  12.398  0.2451  0.3401 -0.7174
19953TIP3    H181350   2.804   4.478  12.387 -0.0413 -0.2379 -2.0471
19953TIP3    H281351   2.703   4.519  12.492  2.4300  3.5322 -0.9143
19954TIP3   OH281352   1.461   5.329   1.348  0.8655 -0.2095 -0.5588
19954TIP3    H181353   1.504   5.338   1.433 -0.5634  1.1240  0.0635
19954TIP3    H281354   1.526   5.363   1.285  0.8313  1.6323  0.3388
19955TIP3   OH281355   5.184   5.542  14.082  0.2022  0.5883 -0.7046
19955TIP3    H181356   5.229   5.590  14.013 -0.1473  1.1075 -0.5717
19955TIP3    H281357   5.093   5.536  14.053  0.5937 -1.7999 -1.7258
19956TIP3   OH281358   5.102   3.984  11.555  0.4515 -0.6707  0.2912
19956TIP3    H181359   5.129   4.013  11.643 -0.1269 -0.7788  0.5094
19956TIP3    H281360   5.178   4.003  11.500 -0.6220  3.4100 -0.0644
19957TIP3   OH281361   4.492   0.101   1.469  0.1283  0.2055 -0.4850
19957TIP3    H181362   4.567   0.159   1.456 -0.2427  1.4405  2.2691
19957TIP3    H281363   4.418   0.150   1.433  0.2571  0.0853 -0.9209
19958TIP3   OH281364   6.674   3.769   3.787 -0.7108  0.3580 -0.1630
19958TIP3    H181365   6.618   3.835   3.829 -0.7202  0.6174 -0.5796
19958TIP3    H281366   6.615   3.720   3.731 -0.1258  2.4051 -2.8014
19959TIP3   OH281367   2.968   6.657  11.063 -0.4090  0.1602 -0.1913
19959TIP3    H181368   2.909   6.699  11.000  0.2420  0.0147 -0.9102
19959TIP3    H281369   2.956   6.563  11.047 -0.2513  0.1233 -0.0875
19960TIP3   OH281370   3.046   4.329  15.483 -0.2411 -0.0215  0.1040
19960TIP3    H181371   3.131   4.288  15.466  0.0576 -0.6139  2.6715
19960TIP3    H281372   3.065   4.398  15.546 -1.7990 -1.1371  1.9135
19961TIP3   OH281373   3.807   5.825   2.861  0.1707 -0.1291 -0.4438
19961TIP3    H181374   3.781   5.913   2.833 -0.8027 -0.4542 -0.6064
19961TIP3    H281375   3.748   5.804   2.933 -1.2407 -1.5546 -1.9194
19962TIP3   OH281376   5.789   5.359  13.619  0.2305 -0.2025  1.0975
19962TIP3    H181377   5.726   5.427  13.641 -0.6138 -0.7959  0.5670
19962TIP3    H281378   5.853   5.402  13.562  0.4217  0.4513  1.8029
19963TIP3   OH281379   6.014   5.896   5.015  0.6810 -0.1255 -0.3792
19963TIP3    H181380   5.984   5.971   4.964 -0.1776  0.8279  1.4497
19963TIP3    H281381   5.957   5.824   4.988 -2.0845  1.1767  1.5580
19964TIP3   OH281382   5.752   0.617  14.856  0.2042 -0.1760 -0.3100
19964TIP3    H181383   5.847   0.614  14.873 -0.0321 -2.1157  0.9876
19964TIP3    H281384   5.731   0.532  14.819 -1.2354 -0.3540  0.7967
19965TIP3   OH281385   1.516   5.364   2.380 -0.1777  0.4865  0.4031
19965TIP3    H181386   1.505   5.420   2.303 -0.2156 -0.2475 -0.1351
19965TIP3    H281387   1.429   5.329   2.397 -0.2987  1.1533  1.1810
19966TIP3   OH281388   3.894   3.039  15.967  0.2730  0.1007  0.2146
19966TIP3    H181389   3.962   3.085  16.017 -0.3365  3.0584 -1.4019
19966TIP3    H281390   3.849   2.984  16.032  1.6986  1.0776  2.1383
19967TIP3   OH281391   1.767   3.709   4.908 -0.7816 -0.1132  0.1096
19967TIP3    H181392   1.752   3.615   4.907  0.0669 -0.2519 -0.4575
19967TIP3    H281393   1.860   3.719   4.926 -0.8380  0.6154  0.0488
19968TIP3   OH281394   0.595   2.365   1.557  0.0229  0.2131 -0.2802
19968TIP3    H181395   0.540   2.435   1.594 -1.3760  0.0323 -1.8997
19968TIP3    H281396   0.590   2.295   1.621  1.9247  1.7246  1.6740
19969TIP3   OH281397   5.819   6.599  13.685  0.1553  0.2160  0.2251
19969TIP3    H181398   5.820   6.503  13.681 -1.3245  0.1505  0.6448
19969TIP3    H281399   5.822   6.627  13.594 -0.4604 -0.2759  0.0462
19970TIP3   OH281400   3.184   6.664  14.453 -0.2110  0.0717  0.2214
19970TIP3    H181401   3.097   6.626  14.459  0.4429 -1.4809  0.2837
19970TIP3    H281402   3.174   6.753  14.488 -1.9030  0.1823 -0.4727
19971TIP3   OH281403   4.456   5.449  14.510  0.4851 -0.2650 -0.3318
19971TIP3    H181404   4.420   5.398  14.438  0.5677 -1.9968  0.7889
19971TIP3    H281405   4.549   5.457  14.490  0.5615 -0.9937 -0.2901
19972TIP3   OH281406   0.458   6.114  12.674  0.9099  0.0185 -0.2967
19972TIP3    H181407   0.525   6.053  12.703 -0.3177 -1.5439 -0.5822
19972TIP3    H281408   0.390   6.108  12.740  0.1813  0.0289 -1.0274
19973TIP3   OH281409   1.447   5.166  15.516  0.2955  0.1080  0.2370
19973TIP3    H181410   1.420   5.169  15.608 -1.4874  1.7391 -0.2617
19973TIP3    H281411   1.389   5.102  15.476 -1.3409  1.8457 -0.3516
19974TIP3   OH281412   4.450   6.245   3.724  0.0233  0.5397 -0.2751
19974TIP3    H181413   4.364   6.217   3.691  0.1567  0.4390 -0.5405
19974TIP3    H281414   4.482   6.307   3.659  0.6325 -0.2520 -0.7470
19975TIP3   OH281415   4.962   3.752  11.542 -0.1822 -0.4992 -0.2304
19975TIP3    H181416   5.019   3.677  11.557 -0.2404 -0.6808 -0.8856
19975TIP3    H281417   5.020   3.828  11.546 -0.2328 -0.5006  1.1282
19976TIP3   OH281418   2.188   3.012  14.596  0.2977  0.5993 -0.1828
19976TIP3    H181419   2.187   3.011  14.501 -2.8157 -0.9691 -0.2717
19976TIP3    H281420   2.126   3.082  14.620  0.6537  0.6293  0.6998
19977TIP3   OH281421   0.686   1.463  12.358 -0.3174  0.3687  0.1553
19977TIP3    H181422   0.718   1.445  12.270 -0.6339 -1.4484  0.3657
19977TIP3    H281423   0.752   1.521  12.396  0.6077 -0.0395 -0.7686
19978TIP3   OH281424   5.215   3.899  15.461  0.2337  0.1667  0.2841
19978TIP3    H181425   5.213   3.984  15.504 -0.8076  0.1094  0.3692
19978TIP3    H281426   5.261   3.841  15.522  1.7409  0.8543 -0.1574
19979TIP3   OH281427   0.266   4.235  16.680 -0.1276 -0.1714  0.1782
19979TIP3    H181428   0.305   4.305  16.732  0.7381  0.6548 -1.5184
19979TIP3    H281429   0.173   4.257  16.677  0.4401  2.3847 -2.3738
19980TIP3   OH281430   2.482   2.878  16.058 -1.1263 -0.3792  0.2114
19980TIP3    H181431   2.517   2.901  16.144 -0.1009 -1.6958  0.1719
19980TIP3    H281432   2.494   2.957  16.005 -1.6681  0.4065  1.2179
19981TIP3   OH281433   2.914   3.093  10.675 -0.1241  0.3286 -0.5830
19981TIP3    H181434   2.964   3.138  10.607 -0.0062  1.6756  0.3463
19981TIP3    H281435   2.823   3.108  10.653 -0.0923  0.0899 -0.8741
19982TIP3   OH281436   3.506   3.364  12.554 -0.3844  0.0843  0.0803
19982TIP3    H181437   3.411   3.362  12.570 -0.7737  0.7659 -1.8249
19982TIP3    H281438   3.545   3.353  12.640 -2.1994  1.9455  1.2401
19983TIP3   OH281439   3.509   0.633  16.867 -0.6092 -0.0209  0.5115
19983TIP3    H181440   3.565   0.556  16.862 -0.0099  0.3031  1.9105
19983TIP3    H281441   3.559   0.702  16.824 -1.4379 -0.5257 -1.3799
19984TIP3   OH281442   3.681   4.826  15.876 -0.3557  0.9597  0.5571
19984TIP3    H181443   3.681   4.865  15.963 -1.6290  1.4572  0.3505
19984TIP3    H281444   3.723   4.741  15.887  0.0036  1.2553  1.5354
19985TIP3   OH281445   5.212   0.049   1.582  0.1815 -0.0984  0.1934
19985TIP3    H181446   5.303   0.034   1.609  0.4358 -1.0493 -1.0795
19985TIP3    H281447   5.171   0.090   1.658  1.9884  1.5534  0.3633
19986TIP3   OH281448   0.837   5.673   6.610  0.2618 -0.1555  0.0843
19986TIP3    H181449   0.918   5.627   6.589  2.0626  3.2929 -1.3179
19986TIP3    H281450   0.769   5.607   6.600  2.6998 -2.8755 -0.0470
19987TIP3   OH281451   4.429   1.837   6.014  0.2453 -0.0930  0.2662
19987TIP3    H181452   4.355   1.886   6.050 -0.7631  0.6398 -2.5001
19987TIP3    H281453   4.506   1.889   6.037 -0.4156  0.7037  0.7492
19988TIP3   OH281454   5.324   4.706   3.175  0.8927 -0.0037 -0.1323
19988TIP3    H181455   5.381   4.690   3.100  1.6244 -0.0020  0.4049
19988TIP3    H281456   5.237   4.716   3.138  1.2956  0.3332 -1.0082
19989TIP3   OH281457   2.362   0.750   2.639  0.4206  0.1360  0.0061
19989TIP3    H181458   2.314   0.672   2.611  0.2579  0.1779  0.1603
19989TIP3    H281459   2.418   0.720   2.710  0.7104  0.0636 -0.2523
19990TIP3   OH281460   6.298   4.047   0.657  0.2435 -0.0466  0.3256
19990TIP3    H181461   6.223   3.989   0.673  1.2266 -1.6115 -0.4950
19990TIP3    H281462   6.284   4.080   0.568 -0.0397  0.5623  0.5929
19991TIP3   OH281463   0.431   4.136   6.100  0.6019  0.0108 -0.0354
19991TIP3    H181464   0.351   4.145   6.048  1.2442 -0.9522 -1.2444
19991TIP3    H281465   0.413   4.063   6.160  0.3591  0.1853  0.1020
19992TIP3   OH281466   2.033   1.072  12.637  0.0674 -0.1763  0.1295
19992TIP3    H181467   1.964   1.021  12.680  0.2728  0.3099  1.0648
19992TIP3    H281468   2.003   1.082  12.547 -0.2825 -1.3837  0.1001
19993TIP3   OH281469   3.847   0.487   5.292  0.1954  0.4704  0.6188
19993TIP3    H181470   3.780   0.482   5.360 -0.3828 -1.8821 -0.0207
19993TIP3    H281471   3.799   0.516   5.214 -0.4420 -2.2828 -0.1219
19994TIP3   OH281472   1.125   2.469  16.089  0.2698  0.5547 -0.4734
19994TIP3    H181473   1.149   2.459  16.182 -3.0230  1.5110  0.5899
19994TIP3    H281474   1.209   2.464  16.043  1.9864 -0.5557  2.4696
19995TIP3   OH281475   1.216   5.722   4.642 -0.5658  0.1641 -0.0501
19995TIP3    H181476   1.171   5.639   4.659  1.3724 -0.9517  0.0000
19995TIP3    H281477   1.253   5.712   4.554  1.0343  0.2871  0.5713
19996TIP3   OH281478   0.492   1.456   0.347 -0.3401 -0.0594  0.0063
19996TIP3    H181479   0.542   1.412   0.278  0.3476  0.6153  0.0659
19996TIP3    H281480   0.441   1.386   0.388 -1.3576 -0.3648 -1.6755
19997TIP3   OH281481   3.427   6.299   5.219  0.2414  0.6468  0.0141
19997TIP3    H181482   3.490   6.328   5.284 -1.2276  0.6995  1.4708
19997TIP3    H281483   3.410   6.207   5.241 -1.5659  1.1389  0.8484
19998TIP3   OH281484   6.728   4.612   5.645  0.1780  0.0075  0.2426
19998TIP3    H181485   6.724   4.597   5.740  1.3805 -0.1485  0.2818
19998TIP3    H281486   6.637   4.604   5.616 -0.6390  2.7345  1.7606
19999TIP3   OH281487   0.184   3.546  14.595  0.3138 -0.3378  0.3298
19999TIP3    H181488   0.199   3.639  14.614  1.7591 -0.2381 -1.1046
19999TIP3    H281489   0.093   3.531  14.621  0.0180  1.5014  0.4964
20000TIP3   OH281490   5.952   1.319   4.351  0.1701 -0.4659 -0.1668
20000TIP3    H181491   5.952   1.391   4.414  0.7713 -1.3019  0.8423
20000TIP3    H281492   5.876   1.266   4.376  0.2338 -0.6404 -0.3444
20001TIP3   OH281493   5.471   5.489   3.065  0.1467 -0.1991 -0.3840
20001TIP3    H181494   5.551   5.531   3.096  0.0498 -1.1327  1.2447
20001TIP3    H281495   5.449   5.536   2.985  2.3879  0.0044 -0.9577
20002TIP3   OH281496   4.725   2.527  16.616 -0.1070  0.3771  0.3306
20002TIP3    H181497   4.757   2.466  16.682 -1.0594  1.4753  1.8829
20002TIP3    H281498   4.652   2.573  16.659 -1.7486  0.1044 -1.9902
20003TIP3   OH281499   0.906   5.597  14.922 -0.0493 -0.3924  0.3499
20003TIP3    H181500   0.901   5.594  14.827  0.9444  2.1360  0.1394
20003TIP3    H281501   0.975   5.661  14.941 -0.3922 -0.6295  2.7710
20004TIP3   OH281502   2.529   4.708   5.863  0.3128  0.3292  0.1580
20004TIP3    H181503   2.482   4.741   5.939  2.6426  0.7169  1.5399
20004TIP3    H281504   2.486   4.626   5.841 -1.1121  0.7710  1.1677
20005TIP3   OH281505   4.085   5.996  14.957 -0.2022 -0.1315  0.3233
20005TIP3    H181506   4.132   6.005  14.874 -0.6982  2.4683  0.2503
20005TIP3    H281507   3.994   5.983  14.931 -0.2486 -0.0648  0.4513
20006TIP3   OH281508   0.800   2.794  15.562  0.3489  0.0928  0.5969
20006TIP3    H181509   0.801   2.876  15.511  2.5966 -2.1538 -3.4524
20006TIP3    H281510   0.858   2.811  15.636 -0.3001  2.5060  0.6373
20007TIP3   OH281511   3.948   4.405  17.011  1.0294 -0.2904 -0.1694
20007TIP3    H181512   3.982   4.438  17.094  1.9757  0.6166 -0.8927
20007TIP3    H281513   4.026   4.386  16.958  0.4427 -0.7433 -0.9049
20008TIP3   OH281514   5.252   6.584   0.173  0.0240 -0.2340 -0.3642
20008TIP3    H181515   5.181   6.577   0.237  0.1450 -1.8940 -0.3758
20008TIP3    H281516   5.326   6.616   0.223 -0.6499  1.3513 -0.3132
20009TIP3   OH281517   4.450   6.389   4.167  0.1572  0.2184 -0.2979
20009TIP3    H181518   4.496   6.435   4.096 -1.3865  0.5790 -1.1121
20009TIP3    H281519   4.484   6.429   4.247  4.2180 -2.2430 -0.5274
20010TIP3   OH281520   3.628   5.452  13.083 -0.1950 -0.0349  0.7846
20010TIP3    H181521   3.615   5.545  13.061 -1.8905 -0.9726 -2.7593
20010TIP3    H281522   3.628   5.407  12.999  3.5063 -3.0452  2.1257
20011TIP3   OH281523   5.489   2.042  14.880  0.2394  0.3958  0.0230
20011TIP3    H181524   5.507   1.961  14.833  3.9563  1.1062 -0.0441
20011TIP3    H281525   5.398   2.063  14.858 -0.0930 -2.4694 -1.8306
20012TIP3   OH281526   2.738   3.665  17.009  0.0671  0.1484  0.3412
20012TIP3    H181527   2.814   3.669  17.068  0.0586  0.1877  0.3483
20012TIP3    H281528   2.676   3.608  17.055  0.3525 -0.4250  0.0354
20013TIP3   OH281529   4.533   3.936  10.591  0.5637  0.2374  0.5540
20013TIP3    H181530   4.538   3.854  10.541 -0.3371  0.9230 -0.7070
20013TIP3    H281531   4.624   3.964  10.599  0.8957 -0.9186  1.0797
20014TIP3   OH281532   2.253   6.270   3.943  0.0200  0.0857 -0.1692
20014TIP3    H181533   2.261   6.359   3.908  0.1989  0.1326 -0.0194
20014TIP3    H281534   2.344   6.239   3.950 -0.0908 -0.4650 -1.1064
20015TIP3   OH281535   3.168   5.080  13.637 -0.0563 -0.3870 -0.5984
20015TIP3    H181536   3.201   5.161  13.598  0.4728  0.7748  2.0602
20015TIP3    H281537   3.245   5.042  13.679 -0.4066 -2.0740 -1.4156
20016TIP3   OH281538   1.961   1.389   0.241 -0.1135 -0.1635 -0.2255
20016TIP3    H181539   1.907   1.373   0.163 -0.2835  0.1070 -0.1629
20016TIP3    H281540   1.973   1.302   0.280  0.6392 -0.4238 -0.9902
20017TIP3   OH281541   4.200   1.555   5.285  0.5005 -0.3772 -0.7103
20017TIP3    H181542   4.196   1.552   5.189  2.0619  0.2914 -0.8202
20017TIP3    H281543   4.219   1.646   5.306  1.6609 -0.7990  0.1584
20018TIP3   OH281544   3.744   5.695  14.219  0.3525 -0.4440 -0.0310
20018TIP3    H181545   3.689   5.724  14.292 -0.9048  0.7050 -1.3579
20018TIP3    H281546   3.709   5.743  14.143  1.9125 -1.2334 -1.2974
20019TIP3   OH281547   5.745   0.174   0.201 -0.5786 -0.4589  0.0440
20019TIP3    H181548   5.822   0.183   0.144 -1.0197 -1.9135 -0.8543
20019TIP3    H281549   5.762   0.233   0.274  1.5453 -0.9448  0.0128
20020TIP3   OH281550   6.027   3.186   1.496 -0.1268  0.2169  0.4759
20020TIP3    H181551   5.972   3.132   1.553 -0.3526  0.0188  0.0750
20020TIP3    H281552   5.967   3.252   1.460 -0.2795 -0.4597 -0.5521
20021TIP3   OH281553   6.134   6.030  12.939  0.3176  0.3045 -0.0615
20021TIP3    H181554   6.040   6.040  12.928  0.2972  0.8819  0.5558
20021TIP3    H281555   6.144   5.993  13.027  0.6833  0.9126  0.1637
20022TIP3   OH281556   2.275   0.002   3.701  0.2469 -0.3371 -0.1389
20022TIP3    H181557   2.342  -0.056   3.735  0.2517  0.8247  2.0082
20022TIP3    H281558   2.193  -0.031   3.738 -0.1117 -0.5324 -1.0811
20023TIP3   OH281559   5.989   4.808  10.958 -0.2167  0.1235 -0.0966
20023TIP3    H181560   6.009   4.714  10.954  0.8724  0.2119  2.0518
20023TIP3    H281561   6.033   4.845  10.881  0.7808 -0.8951 -0.0456
20024TIP3   OH281562   4.117   2.729  12.065  0.8809 -0.3001 -0.3164
20024TIP3    H181563   4.163   2.811  12.080 -0.3296  0.3897 -0.2940
20024TIP3    H281564   4.056   2.748  11.994  1.4068 -1.5149 -1.1264
20025TIP3   OH281565   1.191   6.788   6.201 -0.0089 -0.5792  0.4763
20025TIP3    H181566   1.181   6.725   6.273  0.0466  0.0341  1.0307
20025TIP3    H281567   1.220   6.735   6.127 -0.2117 -1.2486  0.8621
20026TIP3   OH281568   1.774   2.630  16.419 -0.2327  0.0556 -0.8742
20026TIP3    H181569   1.816   2.709  16.387  0.1982 -1.2715 -3.9618
20026TIP3    H281570   1.797   2.626  16.511  1.2038  2.5778 -1.0318
20027TIP3   OH281571   1.227   2.198  12.590 -0.1481  0.3502  0.0450
20027TIP3    H181572   1.254   2.131  12.652  2.0255  0.5516 -0.6032
20027TIP3    H281573   1.220   2.278  12.643  1.3192  0.4414  0.1434
20028TIP3   OH281574   1.439   4.279   0.307 -0.3589 -0.6304  0.4212
20028TIP3    H181575   1.451   4.185   0.297 -1.7067 -0.8788  0.8894
20028TIP3    H281576   1.518   4.309   0.353 -0.1738 -1.6183  0.7743
20029TIP3   OH281577   0.530   1.874  15.806  0.7017  0.4719  0.1220
20029TIP3    H181578   0.453   1.848  15.857 -0.6048  1.2816 -1.3636
20029TIP3    H281579   0.593   1.904  15.872  1.0664 -3.1336  1.6832
20030TIP3   OH281580   1.129   1.486  12.953 -0.4627  0.3093  0.4888
20030TIP3    H181581   1.128   1.390  12.958 -3.8348  0.2491  0.5685
20030TIP3    H281582   1.150   1.514  13.042 -0.3806 -0.3400  0.6824
20031TIP3   OH281583   2.591   1.625  10.488  0.5579  0.0060  0.3758
20031TIP3    H181584   2.517   1.631  10.428 -0.0701 -0.7210  1.0491
20031TIP3    H281585   2.557   1.656  10.572  0.7074 -1.2314  0.9265
20032TIP3   OH281586   4.152   6.321   4.386 -0.1659  0.0635  0.4785
20032TIP3    H181587   4.199   6.255   4.438  1.0768 -1.3509 -2.2274
20032TIP3    H281588   4.204   6.400   4.395  1.8139 -0.9888 -0.9649
20033TIP3   OH281589   1.348   3.725  15.696 -0.1419  0.4539  0.2542
20033TIP3    H181590   1.384   3.644  15.660  0.3147  1.1465 -0.9116
20033TIP3    H281591   1.425   3.774  15.725 -0.5131 -0.3331  2.8599
20034TIP3   OH281592   2.587   0.039   1.540  0.2560  0.6854 -0.3279
20034TIP3    H181593   2.649  -0.010   1.487 -1.5887 -0.8490 -1.1692
20034TIP3    H281594   2.612   0.019   1.631 -1.3207 -3.2518 -0.5658
20035TIP3   OH281595   5.645   1.236   4.008  0.0430 -0.6535  0.1344
20035TIP3    H181596   5.721   1.290   3.987 -0.9963  1.0343  0.4069
20035TIP3    H281597   5.648   1.164   3.946  0.4912  0.7677 -1.5957
20036TIP3   OH281598   0.914   4.914   1.529 -0.7755 -0.6755  0.0542
20036TIP3    H181599   0.966   4.915   1.448 -2.5441 -1.2913 -1.1602
20036TIP3    H281600   0.842   4.855   1.509 -1.1264 -1.0313  2.2131
20037TIP3   OH281601   5.227   6.263   1.502  0.3451  0.1041 -0.4243
20037TIP3    H181602   5.159   6.327   1.483  0.1491  0.5168  1.4598
20037TIP3    H281603   5.309   6.309   1.483  0.1499  0.3337 -0.7024
20038TIP3   OH281604   6.355   2.328  14.653 -0.0016 -0.3478 -0.7717
20038TIP3    H181605   6.347   2.318  14.558  1.7636 -0.0272 -0.9847
20038TIP3    H281606   6.351   2.422  14.669  2.5130 -0.1634 -0.8794
20039TIP3   OH281607   1.804   0.070   3.418 -0.2259  0.1546 -0.7069
20039TIP3    H181608   1.750   0.124   3.476 -0.9712 -0.3048 -0.9485
20039TIP3    H281609   1.789   0.107   3.331 -0.8205 -0.4848 -0.8883
20040TIP3   OH281610   0.421   2.685   4.059 -0.3119  0.2132  0.1194
20040TIP3    H181611   0.354   2.624   4.030  0.3506 -0.1076 -0.7871
20040TIP3    H281612   0.495   2.628   4.084 -0.4677  0.5398  1.3972
20041TIP3   OH281613   4.692   4.590  16.110  0.4832  0.7403 -0.3011
20041TIP3    H181614   4.757   4.571  16.177  1.2340 -0.6493 -1.3792
20041TIP3    H281615   4.741   4.591  16.028 -0.4024  2.4922 -0.8519
20042TIP3   OH281616   2.885   4.413  11.785  0.3868  0.0199 -0.0030
20042TIP3    H181617   2.794   4.387  11.803  0.8434 -1.6856  0.0538
20042TIP3    H281618   2.895   4.397  11.691  1.0119 -1.1456  0.2474
20043TIP3   OH281619   0.674   5.358   1.665  0.4269 -0.1150 -0.3432
20043TIP3    H181620   0.616   5.367   1.589  1.0549 -1.6030 -1.0466
20043TIP3    H281621   0.626   5.303   1.726 -0.0281  0.9836  0.3101
20044TIP3   OH281622   6.517   0.399  12.049  0.2715 -0.1222  0.2049
20044TIP3    H181623   6.486   0.328  11.993  2.2997 -0.4095 -0.6652
20044TIP3    H281624   6.438   0.444  12.078 -1.0408 -2.3108  0.2319
20045TIP3   OH281625   5.663   4.517  10.926 -0.0991 -0.0066  0.1079
20045TIP3    H181626   5.691   4.606  10.950  1.8927 -0.6609  0.3999
20045TIP3    H281627   5.623   4.482  11.005 -0.3489  0.4213  0.1745
20046TIP3   OH281628   4.907   0.440   5.627 -0.3124 -0.1513  0.4865
20046TIP3    H181629   4.823   0.424   5.671  0.2197 -1.3829  1.1126
20046TIP3    H281630   4.941   0.352   5.608  1.7109  0.2265  1.9871
20047TIP3   OH281631   2.925   3.355   3.866  0.1313 -0.0594  0.0209
20047TIP3    H181632   2.988   3.323   3.931 -1.6241 -1.5136  1.1106
20047TIP3    H281633   2.914   3.282   3.805 -0.7471  0.0170  0.0719
20048TIP3   OH281634   3.162   2.083  16.091  0.3241 -0.0648 -0.1883
20048TIP3    H181635   3.244   2.082  16.043 -0.3828  0.8782 -1.4965
20048TIP3    H281636   3.115   2.005  16.061  0.3648 -0.1000 -0.1586
20049TIP3   OH281637   5.871   4.507  15.825 -0.3047 -0.2605 -0.2591
20049TIP3    H181638   5.950   4.510  15.880 -0.2856 -2.1669 -0.1107
20049TIP3    H281639   5.894   4.447  15.754 -0.8851  0.9213 -1.5080
20050TIP3   OH281640   1.374   1.417   1.534  0.2632 -0.0439  0.5305
20050TIP3    H181641   1.452   1.374   1.570  0.9713  0.5241 -0.2836
20050TIP3    H281642   1.366   1.498   1.585  0.6054  0.2193  0.1712
20051TIP3   OH281643   6.443   2.560  15.223  0.5074 -0.1732 -0.0091
20051TIP3    H181644   6.516   2.618  15.198 -0.8498  0.9941 -1.4798
20051TIP3    H281645   6.364   2.610  15.200 -0.7411 -2.1336 -0.1734
20052TIP3   OH281646   3.822   3.638  14.673  0.0316  0.5898 -0.2149
20052TIP3    H181647   3.821   3.713  14.733  1.0578 -3.0184  5.0158
20052TIP3    H281648   3.730   3.614  14.663 -0.1192  0.5680  1.0523
20053TIP3   OH281649   1.554   3.415   4.601  0.2794 -0.3553 -0.3715
20053TIP3    H181650   1.633   3.361   4.605 -1.0962 -2.4983 -0.7727
20053TIP3    H281651   1.482   3.354   4.618 -1.2719  1.6783  0.8908
20054TIP3   OH281652   6.789   0.049   5.346  0.3019 -0.2017 -0.7443
20054TIP3    H181653   6.705   0.044   5.390  1.2725  0.5788  1.3197
20054TIP3    H281654   6.775   0.003   5.263 -1.5894 -1.9204  0.4240
20055TIP3   OH281655   6.624   1.625   1.060  0.5482  0.2032 -0.3053
20055TIP3    H181656   6.692   1.676   1.104 -0.2207  1.7801 -0.8433
20055TIP3    H281657   6.662   1.601   0.976  1.2263 -0.9099  0.2912
20056TIP3   OH281658   3.305   2.167   5.326 -0.4301 -0.5067 -1.0111
20056TIP3    H181659   3.357   2.176   5.246  1.0165 -0.1167 -0.0738
20056TIP3    H281660   3.253   2.088   5.313  0.7305 -1.1580 -1.8411
20057TIP3   OH281661   4.540   0.973  12.222 -0.2165 -0.9320  0.5951
20057TIP3    H181662   4.604   1.043  12.234 -0.9572  0.3538 -2.0811
20057TIP3    H281663   4.535   0.929  12.307  3.0633 -0.1534  1.3162
20058TIP3   OH281664   1.107   2.292  14.743  0.2367 -0.0489 -0.4765
20058TIP3    H181665   1.164   2.365  14.715 -0.2455 -0.1253 -1.7116
20058TIP3    H281666   1.025   2.335  14.768  1.2830  0.2474  2.9242
20059TIP3   OH281667   3.040   1.469   4.783 -0.0592 -0.4684 -0.1699
20059TIP3    H181668   2.978   1.534   4.817  1.0818  0.3335  0.4452
20059TIP3    H281669   3.030   1.474   4.688 -0.3592  0.2386 -0.1068
20060TIP3   OH281670   6.145   2.773   1.112 -0.4002 -0.0707  0.2478
20060TIP3    H181671   6.149   2.868   1.115 -1.1399 -0.0659  1.2292
20060TIP3    H281672   6.163   2.744   1.201 -0.1204 -0.8562 -0.0488
20061TIP3   OH281673   2.494   1.848   1.776  0.2958  0.1901  0.0959
20061TIP3    H181674   2.564   1.912   1.791  1.4983 -0.7889 -1.0304
20061TIP3    H281675   2.430   1.865   1.845  1.4751  1.3574  0.9509
20062TIP3   OH281676   2.291   3.984   4.508  0.1877 -0.0932  0.6774
20062TIP3    H181677   2.208   3.988   4.461 -0.0092 -0.0945  1.0251
20062TIP3    H281678   2.313   3.891   4.511  0.1538 -0.1009  0.6776
20063TIP3   OH281679   4.460   5.020  13.583 -0.1880 -0.3673  0.5816
20063TIP3    H181680   4.531   5.045  13.642 -0.0103 -0.0129  0.2242
20063TIP3    H281681   4.439   5.101  13.536 -0.4113 -0.6175  0.2496
20064TIP3   OH281682   6.355   3.058   1.012 -0.1432 -0.1054  0.2316
20064TIP3    H181683   6.386   2.976   1.049 -5.5666 -2.2072  1.0274
20064TIP3    H281684   6.337   3.113   1.088  0.4392  0.5869 -0.1201
20065TIP3   OH281685   0.375   1.220   0.442 -0.6264  0.2436  0.3167
20065TIP3    H181686   0.282   1.223   0.464 -0.2755  2.2314  1.8355
20065TIP3    H281687   0.382   1.152   0.375 -2.9894 -0.7290  0.9586
20066TIP3   OH281688   2.763   0.181   4.742 -0.1277  0.0006  0.0235
20066TIP3    H181689   2.677   0.222   4.733  1.0985  2.4316 -1.8057
20066TIP3    H281690   2.744   0.090   4.765 -3.0883  0.9509  1.9449
20067TIP3   OH281691   3.402   4.682  10.702 -0.3463 -0.1291 -0.3057
20067TIP3    H181692   3.361   4.767  10.718  1.4046  0.2880  2.9033
20067TIP3    H281693   3.472   4.700  10.640 -1.4840  0.2247 -1.5302
20068TIP3   OH281694   2.421   0.134   1.821  0.4382 -0.3879 -0.5457
20068TIP3    H181695   2.334   0.165   1.797  0.1936  0.2640  1.0470
20068TIP3    H281696   2.477   0.212   1.817  0.6322 -0.5014 -0.1453
20069TIP3   OH281697   3.593   1.821  10.500  0.1793  0.0471 -0.3570
20069TIP3    H181698   3.643   1.770  10.436  1.8796 -0.4176  1.2576
20069TIP3    H281699   3.607   1.912  10.474 -3.1658 -0.1323 -3.4745
20070TIP3   OH281700   6.324   3.782  14.736  0.2251  1.2200 -0.7488
20070TIP3    H181701   6.368   3.736  14.807 -2.8953 -1.6165 -0.3534
20070TIP3    H281702   6.370   3.866  14.728  1.7871  0.9819  3.4274
20071TIP3   OH281703   4.673   6.686   1.108  0.0083 -0.2794 -0.0548
20071TIP3    H181704   4.733   6.710   1.037 -1.3219  1.3853 -0.6981
20071TIP3    H281705   4.588   6.675   1.065 -0.3211 -1.8609  0.9343
20072TIP3   OH281706   0.619   2.616  11.265 -0.1895  0.3075 -0.5153
20072TIP3    H181707   0.575   2.539  11.302  0.0338  0.6844  0.5441
20072TIP3    H281708   0.547   2.677  11.245 -0.1726  1.3257  2.1223
20073TIP3   OH281709   0.847   2.801  12.706 -0.0637 -0.4372  0.3375
20073TIP3    H181710   0.831   2.707  12.717 -2.4336 -0.1871 -0.2823
20073TIP3    H281711   0.902   2.808  12.628  0.0785 -1.3087  0.3566
20074TIP3   OH281712   3.120   3.869  10.787 -0.0574  0.0835  0.0957
20074TIP3    H181713   3.029   3.852  10.812 -0.1712  1.4178  0.6269
20074TIP3    H281714   3.157   3.917  10.861  1.1816 -0.7244  0.0183
20075TIP3   OH281715   2.597   2.911   3.673 -0.4411 -0.6051  0.6427
20075TIP3    H181716   2.661   2.850   3.636 -0.8843 -0.8648  0.3016
20075TIP3    H281717   2.576   2.970   3.601 -2.1714 -1.8109  0.0976
20076TIP3   OH281718   3.828   5.162   3.807  0.3004 -0.3960  0.0242
20076TIP3    H181719   3.923   5.151   3.814  0.2193 -0.3897  1.4367
20076TIP3    H281720   3.800   5.187   3.895 -1.1627 -1.5244 -0.0795
20077TIP3   OH281721   1.071   5.844   5.184 -0.5040 -0.2751 -0.2929
20077TIP3    H181722   1.117   5.834   5.100 -0.5290 -0.1262 -0.3239
20077TIP3    H281723   1.126   5.903   5.235  0.5178 -1.8639  0.5270
20078TIP3   OH281724   2.331   6.705   3.233  0.6055  0.3964  0.2850
20078TIP3    H181725   2.323   6.697   3.138  1.5944  2.4146 -0.0290
20078TIP3    H281726   2.243   6.689   3.266  0.3308 -0.7246 -0.9293
20079TIP3   OH281727   3.707   0.554   5.084  0.6977  0.1438 -0.0864
20079TIP3    H181728   3.743   0.543   4.996 -1.8302 -0.9337 -1.0737
20079TIP3    H281729   3.657   0.636   5.079 -2.4515 -1.6839 -0.8684
20080TIP3   OH281730   6.039   3.708  11.520 -0.4377 -0.3757  0.2146
20080TIP3    H181731   6.009   3.731  11.432  0.0613 -2.3004 -0.5067
20080TIP3    H281732   6.013   3.616  11.530  0.9953 -0.6749  1.4232
20081TIP3   OH281733   6.220   1.167   1.050 -0.6094 -0.2277  0.6548
20081TIP3    H181734   6.164   1.089   1.052  1.3417 -1.8249 -1.4349
20081TIP3    H281735   6.223   1.192   0.958  2.6786 -0.7751  0.4709
20082TIP3   OH281736   3.878   3.898  14.128  0.0460 -0.1029 -0.1772
20082TIP3    H181737   3.799   3.868  14.173  1.3324 -1.4788  1.3049
20082TIP3    H281738   3.929   3.943  14.195  1.1387 -0.4788 -0.7223
20083TIP3   OH281739   1.099   4.756   0.330  0.5250  0.3321  0.4124
20083TIP3    H181740   1.123   4.755   0.423  2.1298  1.9267  0.0555
20083TIP3    H281741   1.182   4.749   0.283 -0.1717  0.6744 -0.9146
20084TIP3   OH281742   4.427   0.743  16.047  0.6072  0.1221 -0.1357
20084TIP3    H181743   4.347   0.777  16.005 -0.1511  0.0376  1.1906
20084TIP3    H281744   4.498   0.770  15.988 -0.1517  2.3058 -0.1314
20085TIP3   OH281745   4.771   4.189   0.392  0.3583 -0.1422  0.4202
20085TIP3    H181746   4.850   4.137   0.397 -0.6683 -1.7010  1.0832
20085TIP3    H281747   4.709   4.135   0.344 -0.8067  0.3482  1.3099
20086TIP3   OH281748   0.624   4.588   5.055  0.1036  0.6814  0.0650
20086TIP3    H181749   0.626   4.681   5.034  2.5974  0.2700 -2.1558
20086TIP3    H281750   0.556   4.579   5.121 -1.2970  3.8260 -0.7765
20087TIP3   OH281751   5.410   2.120  16.481  0.6511 -0.2003  0.4351
20087TIP3    H181752   5.403   2.197  16.424 -0.2456 -1.1212 -0.7431
20087TIP3    H281753   5.460   2.057  16.429  2.6510  0.0267  1.9361
20088TIP3   OH281754   4.186   0.362  14.500  0.2542  0.4313  0.1613
20088TIP3    H181755   4.197   0.444  14.452  0.7629 -0.2951 -1.0036
20088TIP3    H281756   4.150   0.301  14.435 -3.0467  0.4908  1.7328
20089TIP3   OH281757   1.872   5.200   5.275  0.2419  0.0085  0.0035
20089TIP3    H181758   1.921   5.279   5.299  1.8220 -0.7141 -0.7293
20089TIP3    H281759   1.885   5.192   5.180 -0.8357 -0.5348 -0.1113
20090TIP3   OH281760   0.790   4.151   4.931 -0.1547 -0.1948  0.2401
20090TIP3    H181761   0.701   4.177   4.956 -2.0757 -1.0364 -4.6065
20090TIP3    H281762   0.832   4.232   4.902 -0.6074 -0.2531 -0.6028
20091TIP3   OH281763   4.327   3.822   1.800 -0.3715  0.4042 -0.1577
20091TIP3    H181764   4.369   3.891   1.851 -2.9708  2.8456 -1.0719
20091TIP3    H281765   4.299   3.757   1.866 -0.0375  1.4215  1.0266
20092TIP3   OH281766   3.557   5.335   2.682 -0.2257 -0.2467  0.2456
20092TIP3    H181767   3.549   5.253   2.633  0.9334 -0.5611  0.5649
20092TIP3    H281768   3.552   5.308   2.774 -0.4682  0.1162  0.3402
20093TIP3   OH281769   6.162   2.449   1.917  0.1528 -0.3173 -0.6050
20093TIP3    H181770   6.122   2.524   1.872 -0.7530 -0.9342 -0.8481
20093TIP3    H281771   6.107   2.435   1.994  0.9355 -0.0875  0.0150
20094TIP3   OH281772   1.230   1.769  14.734  0.1153 -0.2003  0.0009
20094TIP3    H181773   1.318   1.807  14.732 -0.0861  0.2404 -1.3804
20094TIP3    H281774   1.173   1.841  14.762 -0.0940  0.1738 -1.3439
20095TIP3   OH281775   4.509   6.532  16.066 -0.0499  0.4757 -0.2944
20095TIP3    H181776   4.520   6.574  15.980  0.0806 -0.8018 -0.9199
20095TIP3    H281777   4.538   6.598  16.128  0.9846  1.0173 -1.3025
20096TIP3   OH281778   2.136   4.423   5.509 -0.0140  0.1238 -0.1687
20096TIP3    H181779   2.132   4.339   5.464 -0.8846  0.2009 -0.2613
20096TIP3    H281780   2.225   4.428   5.543  0.2619 -0.5180 -0.7620
20097TIP3   OH281781   6.265   0.059   3.850  0.2436 -0.0775  0.2215
20097TIP3    H181782   6.331  -0.009   3.858 -2.0642 -2.3807  1.1202
20097TIP3    H281783   6.289   0.124   3.916  1.7650 -0.6267  0.2475
20098TIP3   OH281784   6.142   4.827   5.060 -0.4623  0.4916 -0.0475
20098TIP3    H181785   6.108   4.739   5.072 -0.1872  0.4982  0.8752
20098TIP3    H281786   6.182   4.849   5.145  0.9746  0.8434 -0.7781
20099TIP3   OH281787   0.701   1.454   3.712 -0.2825  0.4647 -0.6238
20099TIP3    H181788   0.620   1.431   3.759  0.4309  1.5195  1.2197
20099TIP3    H281789   0.678   1.532   3.661 -0.0505  1.8214  1.2450
20100TIP3   OH281790   2.248   5.060  12.742 -0.5656 -0.3061 -0.3354
20100TIP3    H181791   2.330   5.102  12.714 -0.5640 -0.7482 -1.0157
20100TIP3    H281792   2.185   5.132  12.748 -0.3112 -0.0624 -0.5466
20101TIP3   OH281793   1.917   2.934   1.936  0.7350 -0.0790  0.1490
20101TIP3    H181794   2.011   2.925   1.925  0.7432  0.6941 -0.4864
20101TIP3    H281795   1.908   2.997   2.008  0.7231  0.5012 -0.3457
20102TIP3   OH281796   6.831   5.716  15.464 -0.1400  0.2476  0.5616
20102TIP3    H181797   6.774   5.648  15.428  0.1020  0.3218  0.0216
20102TIP3    H281798   6.792   5.798  15.435 -0.8212  0.3867  1.7882
20103TIP3   OH281799   3.195   3.012  13.555  0.2392 -0.1309  0.0821
20103TIP3    H181800   3.123   3.002  13.493  0.6605 -1.5910 -0.2116
20103TIP3    H281801   3.205   2.926  13.594 -1.7320  1.2652  4.1898
20104TIP3   OH281802   2.055   3.402  15.542  0.2063 -0.2085 -0.5462
20104TIP3    H181803   2.035   3.334  15.607  1.2264 -1.2205 -1.2596
20104TIP3    H281804   1.996   3.385  15.469  0.6282 -0.4829 -0.8260
20105TIP3   OH281805   1.887   1.929   6.059 -0.7799  0.5188  0.6985
20105TIP3    H181806   1.952   1.890   6.117 -1.1160 -0.4853  0.4131
20105TIP3    H281807   1.864   2.012   6.101  0.1980  0.5748  1.1362
20106TIP3   OH281808   6.103   4.468   0.244  0.6061 -0.5549 -0.3463
20106TIP3    H181809   6.066   4.491   0.159  0.4444 -0.4748 -0.2543
20106TIP3    H281810   6.154   4.388   0.227 -1.4940 -2.0408 -0.0334
20107TIP3   OH281811   1.234   5.674   3.572  0.4947  0.1835 -0.2967
20107TIP3    H181812   1.176   5.630   3.634 -0.5663  1.7812 -0.1090
20107TIP3    H281813   1.295   5.605   3.543  0.7938 -0.6926  2.1900
20108TIP3   OH281814   0.098   5.521  16.945 -0.0312  0.4345  0.2827
20108TIP3    H181815   0.015   5.513  16.992  0.3639 -2.0235  0.7234
20108TIP3    H281816   0.123   5.613  16.954 -2.5160  1.1770  0.4069
20109TIP3   OH281817   6.228   6.749  11.306  0.0917  0.4931 -0.2247
20109TIP3    H181818   6.319   6.719  11.297  1.1317  3.5386 -0.9981
20109TIP3    H281819   6.225   6.791  11.392 -0.9472 -0.5062  0.2621
20110TIP3   OH281820   4.674   6.628  13.072 -0.3768 -0.6210 -0.2030
20110TIP3    H181821   4.692   6.603  12.981 -0.3879  1.6036 -0.9021
20110TIP3    H281822   4.628   6.712  13.065  0.2965 -0.0058  1.8623
20111TIP3   OH281823   4.260   0.336  11.887  0.2846 -0.1962  0.1540
20111TIP3    H181824   4.180   0.318  11.837  0.0817 -0.3662  0.5374
20111TIP3    H281825   4.248   0.290  11.970  0.1230  1.0306  0.8302
20112TIP3   OH281826   1.891   5.995   1.283 -0.7338 -0.2367 -0.1721
20112TIP3    H181827   1.865   5.938   1.210 -0.9051 -0.6398  0.1984
20112TIP3    H281828   1.970   6.039   1.252 -0.8493 -0.3467 -0.6324
20113TIP3   OH281829   3.594   0.216  11.621  0.4213 -0.4966  0.3155
20113TIP3    H181830   3.510   0.174  11.639 -0.1858  0.8768  0.7980
20113TIP3    H281831   3.571   0.298  11.576  1.5628 -0.6320 -0.5707
20114TIP3   OH281832   0.822   4.322  15.779 -0.1475 -0.2155 -0.0376
20114TIP3    H181833   0.868   4.238  15.785 -2.8398 -1.8390 -0.2185
20114TIP3    H281834   0.853   4.360  15.697  3.9220  0.9076  1.8011
20115TIP3   OH281835   3.587   5.741  15.997  0.0138  0.9692  0.2588
20115TIP3    H181836   3.621   5.653  16.011  0.0220  0.5206 -2.2186
20115TIP3    H281837   3.492   5.732  16.008  0.2010  1.3611  3.0026
20116TIP3   OH281838   5.183   6.767  14.847  0.1644 -0.5410 -0.0081
20116TIP3    H181839   5.240   6.730  14.915 -0.0305 -0.4290  0.2196
20116TIP3    H281840   5.191   6.862  14.858  0.9567 -0.5022 -0.8405
20117TIP3   OH281841   1.771   5.924   2.302  0.1252 -0.0247  0.5083
20117TIP3    H181842   1.753   5.995   2.240 -1.7370 -1.5747 -0.8441
20117TIP3    H281843   1.757   5.964   2.388 -0.2815  1.3914 -0.1829
20118TIP3   OH281844   0.782   4.545   4.533  0.1485 -0.0299  0.0688
20118TIP3    H181845   0.829   4.580   4.609 -1.1849 -0.7914  1.3007
20118TIP3    H281846   0.766   4.453   4.555  0.6919 -0.5586 -1.6404
20119TIP3   OH281847   1.203   1.822  13.598 -0.1082  0.1633  0.9468
20119TIP3    H181848   1.152   1.746  13.567  0.1525  0.2598  0.2482
20119TIP3    H281849   1.293   1.790  13.603 -0.1389  0.1659  1.5809
20120TIP3   OH281850   0.409   4.352  13.808 -0.3274  0.5611  0.4488
20120TIP3    H181851   0.492   4.396  13.823 -0.2862  0.4745  0.4755
20120TIP3    H281852   0.358   4.414  13.756  0.4639 -0.1709 -1.2761
20121TIP3   OH281853   6.076   4.973   1.256  0.1411 -0.5639 -0.3378
20121TIP3    H181854   6.083   4.881   1.232  0.4758  0.0327 -2.7438
20121TIP3    H281855   6.164   5.009   1.243  0.5897 -0.2782  2.6604
20122TIP3   OH281856   1.850   3.468   3.289  0.4477 -0.5280 -0.1029
20122TIP3    H181857   1.868   3.432   3.202  0.4206 -0.1686 -0.2566
20122TIP3    H281858   1.855   3.563   3.278 -0.3649 -0.4486  0.0993
20123TIP3   OH281859   5.984   5.187  14.227  0.4296  0.6542  0.8219
20123TIP3    H181860   5.977   5.241  14.149 -2.4608  0.3310  0.7443
20123TIP3    H281861   5.979   5.250  14.300  1.8161  0.8299  0.8054
20124TIP3   OH281862   5.384   4.121  14.497 -0.1402 -0.2266  0.2743
20124TIP3    H181863   5.388   4.188  14.566 -0.8732  0.6898 -0.5333
20124TIP3    H281864   5.317   4.154  14.436  0.4314 -1.0462 -0.8296
20125TIP3   OH281865   3.945   6.673   4.981  0.2313 -0.1181 -0.1006
20125TIP3    H181866   3.930   6.648   5.073  1.0832 -0.1859  0.0299
20125TIP3    H281867   4.037   6.650   4.965  0.3364  0.6997 -0.7126
20126TIP3   OH281868   1.359   1.738  15.309  0.8093 -0.3746  0.0690
20126TIP3    H181869   1.383   1.831  15.300  0.2968 -0.3524 -1.3919
20126TIP3    H281870   1.402   1.710  15.389  1.5590  0.9471  0.1656
20127TIP3   OH281871   1.110   1.994   6.226 -0.0130 -0.3668  0.0077
20127TIP3    H181872   1.123   1.901   6.206  0.1720 -0.3832  0.2007
20127TIP3    H281873   1.030   1.997   6.277 -0.7878 -0.2669 -1.1826
20128TIP3   OH281874   0.959   0.689  16.955  0.5801 -0.3240  0.0865
20128TIP3    H181875   0.982   0.623  16.889 -0.4908 -1.5911  0.9178
20128TIP3    H281876   1.034   0.690  17.014  1.0008 -0.1010 -0.4377
20129TIP3   OH281877   1.656   6.192   1.031 -0.0846 -0.1353  0.1937
20129TIP3    H181878   1.670   6.101   1.057 -0.2079 -0.0950  0.4010
20129TIP3    H281879   1.669   6.192   0.936 -0.9803 -0.5471  0.0592
20130TIP3   OH281880   5.846   1.317   0.679 -0.2362 -0.4333 -0.5295
20130TIP3    H181881   5.930   1.313   0.635 -1.5658  0.5479 -3.3386
20130TIP3    H281882   5.814   1.226   0.678  1.8631 -1.4640  3.2157
20131TIP3   OH281883   3.007   3.753  14.793 -0.0331  0.4127 -0.2539
20131TIP3    H181884   3.002   3.681  14.731 -1.7071 -0.6409  0.9948
20131TIP3    H281885   3.100   3.760  14.815  0.6799  1.0611 -3.0414
20132TIP3   OH281886   1.744   2.804   5.115 -0.2962  0.0758  0.5574
20132TIP3    H181887   1.755   2.709   5.112  2.4642  0.2145  2.3655
20132TIP3    H281888   1.695   2.820   5.196 -0.1728  0.2231  0.6039
20133TIP3   OH281889   6.296   4.426   2.626  0.2029 -0.0035 -0.0925
20133TIP3    H181890   6.336   4.405   2.541 -1.2017  0.9918 -1.0551
20133TIP3    H281891   6.289   4.521   2.627 -1.0112 -0.0719  0.5346
20134TIP3   OH281892   2.998   3.487   2.428  0.5964 -0.1545  0.6562
20134TIP3    H181893   2.952   3.568   2.407 -0.0975 -0.5915  0.4663
20134TIP3    H281894   2.990   3.479   2.523 -0.4414 -0.6507  0.5354
20135TIP3   OH281895   0.876   0.706  11.597 -0.4036 -0.7236 -0.0055
20135TIP3    H181896   0.834   0.626  11.631  0.2080 -1.4364 -0.8779
20135TIP3    H281897   0.939   0.674  11.532 -0.3117  0.4947 -0.5386
20136TIP3   OH281898   5.487   0.280  16.392  0.4410 -0.4091  0.5160
20136TIP3    H181899   5.515   0.190  16.411 -1.3297 -1.4328 -1.2718
20136TIP3    H281900   5.415   0.296  16.453 -2.2859 -2.0457 -1.9473
20137TIP3   OH281901   0.533   4.560  11.038 -0.0615 -0.1967  0.1452
20137TIP3    H181902   0.534   4.628  11.105  2.3473 -0.8118  0.8254
20137TIP3    H281903   0.562   4.605  10.958  1.0007 -0.2863  0.4689
20138TIP3   OH281904   1.558   3.929  13.312 -0.1368  0.6691  0.4255
20138TIP3    H181905   1.523   4.013  13.343  0.1508  1.0373 -0.2311
20138TIP3    H281906   1.625   3.906  13.376  0.0109  1.1096  0.4368
20139TIP3   OH281907   5.711   4.020  12.465 -0.1327 -0.0007  0.0825
20139TIP3    H181908   5.787   4.048  12.414  0.3118  0.1382  0.8001
20139TIP3    H281909   5.726   4.056  12.552 -1.1025  0.1542  0.1970
20140TIP3   OH281910   0.082   2.672  16.707 -0.4203 -0.2784 -0.0523
20140TIP3    H181911   0.169   2.690  16.673 -0.3796  0.1489  0.2737
20140TIP3    H281912   0.060   2.585  16.673  0.4839 -0.7572  0.5593
20141TIP3   OH281913   1.287   0.593   3.341  0.2521 -0.8535 -0.2806
20141TIP3    H181914   1.236   0.651   3.399  1.0872  0.0081 -0.3822
20141TIP3    H281915   1.355   0.557   3.398  2.0657  1.2170 -0.9736
20142TIP3   OH281916   6.275   4.730  15.628  0.1858  0.6570  0.4354
20142TIP3    H181917   6.368   4.720  15.648  0.0664  1.0404  1.2495
20142TIP3    H281918   6.273   4.771  15.541  0.7454 -0.3422 -0.0673
20143TIP3   OH281919   1.375   2.104  16.457 -0.4022 -0.1258  0.0081
20143TIP3    H181920   1.463   2.126  16.487 -0.3860  0.1686 -0.2450
20143TIP3    H281921   1.317   2.138  16.525 -0.3370 -0.0023  0.0017
20144TIP3   OH281922   2.009   0.838   3.365 -0.1909 -0.2488 -0.6464
20144TIP3    H181923   2.086   0.786   3.345 -0.6062 -1.7945  1.4308
20144TIP3    H281924   2.043   0.912   3.416  0.0233 -0.4544 -0.4878
20145TIP3   OH281925   6.014   6.817   4.254  0.2931 -0.2243 -0.1478
20145TIP3    H181926   5.992   6.911   4.253  0.8934 -0.0771  0.0939
20145TIP3    H281927   5.979   6.783   4.172 -0.3863  0.1067 -0.0039
20146TIP3   OH281928   1.698   3.860   5.117 -0.9573  0.3485  0.3678
20146TIP3    H181929   1.670   3.780   5.072 -2.1435  1.1139 -0.3045
20146TIP3    H281930   1.793   3.854   5.118 -1.0193 -1.1201  0.4408
20147TIP3   OH281931   3.027   5.004   4.880 -0.0190  0.1685 -0.3601
20147TIP3    H181932   3.035   5.053   4.963 -0.3401  0.7040 -0.6394
20147TIP3    H281933   2.937   4.972   4.880 -0.2067  0.6939 -0.7882
20148TIP3   OH281934   1.186   0.280   0.555 -0.3020  0.1348  0.1121
20148TIP3    H181935   1.276   0.308   0.540  0.1302  0.0544  2.2680
20148TIP3    H281936   1.164   0.228   0.478  0.5866  2.2220 -1.6443
20149TIP3   OH281937   5.543   3.031  11.840 -0.0299  0.1621  0.0344
20149TIP3    H181938   5.545   2.977  11.919  1.1467  0.2673  0.0946
20149TIP3    H281939   5.451   3.031  11.813 -0.3330 -0.4176  1.0254
20150TIP3   OH281940   1.885   5.286  13.244  0.2149  0.5135 -0.0309
20150TIP3    H181941   1.795   5.260  13.224  1.4338 -4.4196 -0.3119
20150TIP3    H281942   1.908   5.347  13.173 -2.4756  1.0053 -0.5965
20151TIP3   OH281943   2.302   4.153   5.837 -0.5823 -0.1099 -0.2071
20151TIP3    H181944   2.286   4.085   5.903 -1.2870  0.6423  0.4116
20151TIP3    H281945   2.296   4.235   5.885  1.8786  0.3726 -0.6129
20152TIP3   OH281946   2.111   2.821   2.869 -0.1661 -0.2098 -0.7403
20152TIP3    H181947   2.147   2.794   2.953 -0.4997 -1.6620 -1.0334
20152TIP3    H281948   2.156   2.765   2.805 -1.6024 -0.7988 -1.2795
20153TIP3   OH281949   2.751   2.814  13.217 -0.2152  0.0723  0.2671
20153TIP3    H181950   2.682   2.757  13.251 -0.0785  1.1162  2.5207
20153TIP3    H281951   2.730   2.900  13.253  0.0966  1.2938 -2.2960
20154TIP3   OH281952   0.381   0.230   3.117 -0.1709 -0.1833 -0.5361
20154TIP3    H181953   0.463   0.183   3.102  0.0120  0.1997 -0.7373
20154TIP3    H281954   0.320   0.163   3.147  0.3528 -0.3947  0.0989
20155TIP3   OH281955   3.924   3.146   1.051  0.5324  0.1690 -0.2734
20155TIP3    H181956   3.902   3.056   1.028 -1.8313  0.5458  0.2975
20155TIP3    H281957   3.991   3.138   1.119  0.0034 -1.1664  0.1145
20156TIP3   OH281958   5.262   2.428   2.093 -0.7359 -0.3848 -0.2760
20156TIP3    H181959   5.274   2.380   2.175 -1.4255 -0.1965 -0.0509
20156TIP3    H281960   5.173   2.465   2.100 -1.2127 -1.2204 -1.5396
20157TIP3   OH281961   1.931   6.043  16.330  0.3009 -0.1257  0.1804
20157TIP3    H181962   1.894   6.030  16.242 -0.0229  0.8101  0.1613
20157TIP3    H281963   1.863   6.010  16.389 -0.1328  0.6305  0.1148
20158TIP3   OH281964   3.596   0.601   3.697  0.2364  0.5165  0.1342
20158TIP3    H181965   3.543   0.526   3.723  0.3552  0.5960  0.6089
20158TIP3    H281966   3.666   0.563   3.643 -0.7510  0.5073 -1.1927
20159TIP3   OH281967   5.931   0.220   0.744 -0.3955 -0.4733  0.0263
20159TIP3    H181968   5.889   0.259   0.668  1.7911 -3.7476 -3.2060
20159TIP3    H281969   5.909   0.127   0.739  2.5164 -1.3614  1.4109
20160TIP3   OH281970   1.974   0.302  12.957 -0.5250  0.7297 -0.1692
20160TIP3    H181971   1.954   0.256  13.039 -0.8930 -0.4731 -0.9083
20160TIP3    H281972   1.890   0.306  12.911 -0.9348  3.7785  0.6121
20161TIP3   OH281973   6.428   3.845   6.536 -0.4377 -0.2362 -0.1479
20161TIP3    H181974   6.444   3.760   6.495  1.0677 -0.9098  1.6581
20161TIP3    H281975   6.443   3.909   6.466 -3.3288 -1.4070 -2.0231
20162TIP3   OH281976   3.426   3.200  14.496 -0.4037  0.8507  0.2836
20162TIP3    H181977   3.518   3.209  14.469 -0.0731 -3.8041 -1.0816
20162TIP3    H281978   3.376   3.229  14.419  0.1608 -0.7693 -0.7469
20163TIP3   OH281979   5.466   0.791   5.779 -0.1934  0.2048 -0.0425
20163TIP3    H181980   5.492   0.876   5.814 -0.1214  1.4823 -2.8688
20163TIP3    H281981   5.371   0.792   5.780 -0.2022 -0.1628  0.8682
20164TIP3   OH281982   6.625   3.234   6.541 -0.3097 -0.6256  0.2616
20164TIP3    H181983   6.672   3.293   6.482  0.1915 -0.1586  1.1086
20164TIP3    H281984   6.683   3.158   6.550  0.9933  0.5100  2.3518
20165TIP3   OH281985   6.605   2.093   4.660  0.0620 -0.4297  0.3796
20165TIP3    H181986   6.650   2.132   4.736 -0.2115 -0.0905  0.3729
20165TIP3    H281987   6.619   1.999   4.670  0.1911 -0.3762  0.7500
20166TIP3   OH281988   5.120   0.698   2.139 -0.3931  0.3153  0.4309
20166TIP3    H181989   5.050   0.755   2.106 -1.1935 -0.7939  0.1311
20166TIP3    H281990   5.113   0.619   2.085  0.4634 -0.1964  1.0558
20167TIP3   OH281991   0.722   0.074  15.930 -0.4619 -0.6478  0.2473
20167TIP3    H181992   0.733  -0.018  15.956 -0.4585 -0.6318  0.3034
20167TIP3    H281993   0.807   0.114  15.947 -1.0187 -0.1511  2.2293
20168TIP3   OH281994   1.292   2.796  14.846 -0.3675 -0.1657  0.2337
20168TIP3    H181995   1.214   2.851  14.837 -0.0334  0.3097  0.2427
20168TIP3    H281996   1.363   2.858  14.861  0.1934 -0.5226 -0.8364
20169TIP3   OH281997   6.738   0.947   2.868  0.0543  0.1106 -0.3167
20169TIP3    H181998   6.697   0.877   2.919  0.0292 -0.6895 -1.4037
20169TIP3    H281999   6.784   1.000   2.933  0.7157 -1.3538  0.4452
20170TIP3   OH282000   6.513   1.155  14.041  0.3522 -0.6340 -0.0297
20170TIP3    H182001   6.500   1.064  14.068 -1.4037 -0.1558  0.8516
20170TIP3    H282002   6.467   1.163  13.958  1.7302 -0.8881 -0.8455
20171TIP3   OH282003   0.172   0.463  11.916 -0.0466 -0.0099 -0.1035
20171TIP3    H182004   0.209   0.493  11.998  1.1713  1.7870 -1.2354
20171TIP3    H282005   0.237   0.403  11.880  0.1320  0.3674 -0.4257
20172TIP3   OH282006   2.627   1.630   5.410 -0.6630  0.1201 -0.0732
20172TIP3    H182007   2.691   1.576   5.363 -1.2824  0.5592 -1.4403
20172TIP3    H282008   2.667   1.643   5.496  0.2849 -1.0794 -0.2976
20173TIP3   OH282009   1.090   5.048   5.976  0.2004 -0.0336  0.3497
20173TIP3    H182010   1.105   5.124   5.919  0.8522 -0.1733  0.3229
20173TIP3    H282011   1.030   4.992   5.927  2.2811 -1.0971 -1.1028
20174TIP3   OH282012   6.296   6.808   3.269 -0.2174 -0.2207 -0.1035
20174TIP3    H182013   6.240   6.750   3.218 -1.5971  0.5513  0.4863
20174TIP3    H282014   6.296   6.770   3.357  0.1088 -0.1663 -0.0783
20175TIP3   OH282015   2.876   1.599  15.126  0.2578  0.5053  0.2305
20175TIP3    H182016   2.877   1.505  15.109 -0.4477  0.1919  1.7505
20175TIP3    H282017   2.935   1.610  15.201  0.0964  1.2322  0.2521
20176TIP3   OH282018   1.904   1.067   1.491  0.2175  0.3996 -0.8159
20176TIP3    H182019   1.866   1.010   1.424  2.9447 -1.7074 -0.7308
20176TIP3    H282020   1.874   1.155   1.467 -1.5375 -0.6683 -2.8508
20177TIP3   OH282021   4.808   0.313   3.627 -0.3429 -0.0330 -0.1623
20177TIP3    H182022   4.756   0.378   3.675  0.4125 -0.4099  1.2221
20177TIP3    H282023   4.890   0.358   3.607  0.2877 -0.6214  1.0351
20178TIP3   OH282024   6.180   3.271  11.876 -0.0123 -0.3724  0.1628
20178TIP3    H182025   6.183   3.313  11.790  1.0754  1.5799  1.0730
20178TIP3    H282026   6.087   3.270  11.899 -0.1824  0.4800 -0.4281
20179TIP3   OH282027   1.065   4.332  14.600 -0.4384 -1.1600  0.6210
20179TIP3    H182028   1.141   4.339  14.543 -1.2306  0.0743 -0.3703
20179TIP3    H282029   1.100   4.341  14.688  0.4180  1.5030  0.1088
20180TIP3   OH282030   1.127   4.830  12.666  0.4327  0.0617 -0.6667
20180TIP3    H182031   1.125   4.734  12.669  1.5861  0.0407  0.1389
20180TIP3    H282032   1.151   4.851  12.576 -0.7059 -0.3718 -1.0852
20181TIP3   OH282033   5.273   5.365   1.376  0.2716 -0.6834  0.7480
20181TIP3    H182034   5.344   5.302   1.385  0.4706 -0.8210 -1.3022
20181TIP3    H282035   5.204   5.318   1.328 -0.5588 -0.0534  1.2798
20182TIP3   OH282036   6.582   3.523   3.119 -0.1515 -0.2575  0.7521
20182TIP3    H182037   6.568   3.436   3.155  1.7484 -0.9900 -0.1590
20182TIP3    H282038   6.675   3.526   3.097 -0.6559  1.0873 -1.5554
20183TIP3   OH282039   6.663   6.311  15.115 -0.1686  0.0908 -0.0575
20183TIP3    H182040   6.610   6.251  15.166 -1.0799 -0.9756 -2.1544
20183TIP3    H282041   6.609   6.389  15.105 -1.0408 -0.6391 -1.3938
20184TIP3   OH282042   0.159   0.313   5.698  0.1336  0.5139  0.2572
20184TIP3    H182043   0.076   0.357   5.715 -0.0502  0.2719 -0.0000
20184TIP3    H282044   0.207   0.319   5.780 -1.5040 -2.3203  1.5769
20185TIP3   OH282045   1.450   5.328   2.955 -0.0604 -0.6770  0.0472
20185TIP3    H182046   1.507   5.256   2.930 -0.9537 -1.3142 -0.1999
20185TIP3    H282047   1.458   5.333   3.051 -1.0046 -1.9896  0.2161
20186TIP3   OH282048   4.934   2.485  14.993 -0.1716 -0.1671  0.2215
20186TIP3    H182049   4.880   2.524  14.924  1.0484 -2.1481 -2.0343
20186TIP3    H282050   5.023   2.516  14.974  0.9415 -4.0019 -1.9748
20187TIP3   OH282051   6.504   4.007  14.710  0.3980  0.2122  0.5238
20187TIP3    H182052   6.539   4.044  14.628  1.7587  1.5520  1.6512
20187TIP3    H282053   6.576   4.017  14.773 -0.0165 -2.2908  1.5133
20188TIP3   OH282054   3.657   5.319   2.365  0.3895 -0.3683  0.1509
20188TIP3    H182055   3.687   5.383   2.430  0.5953  0.5647 -0.8200
20188TIP3    H282056   3.589   5.365   2.315 -1.3708 -1.8255  1.1023
20189TIP3   OH282057   0.122   3.910  14.577 -0.0137  0.0318  0.0441
20189TIP3    H182058   0.159   3.874  14.497 -0.3526 -0.2836  0.0262
20189TIP3    H282059   0.064   3.841  14.610 -1.5363  0.9626 -0.5768
20190TIP3   OH282060   5.022   6.433  12.866  0.2561  0.0025  0.0717
20190TIP3    H182061   5.020   6.394  12.954 -1.2415 -0.6420 -0.2112
20190TIP3    H282062   5.090   6.500  12.871  1.5946 -1.3683  1.1314
20191TIP3   OH282063   6.294   1.434   1.644  0.1065  0.6076  0.6729
20191TIP3    H182064   6.353   1.369   1.681  0.0307 -0.7088 -1.3712
20191TIP3    H282065   6.345   1.477   1.576 -0.9491  0.1468 -0.4444
20192TIP3   OH282066   0.903   5.095  14.821 -0.4226 -0.8796  0.1145
20192TIP3    H182067   0.829   5.039  14.845 -0.5448 -1.3680 -1.2823
20192TIP3    H282068   0.876   5.136  14.739  0.5715 -0.5219 -0.0518
20193TIP3   OH282069   6.032   2.555  11.635 -0.6305  0.1689 -0.2228
20193TIP3    H182070   6.052   2.492  11.565 -2.1618  1.0142 -1.4943
20193TIP3    H282071   6.117   2.588  11.663  0.0254  0.0593 -1.9697
20194TIP3   OH282072   5.345   5.718  11.495 -0.1592 -0.6841 -0.0891
20194TIP3    H182073   5.280   5.656  11.528  0.7909 -0.1629  3.1582
20194TIP3    H282074   5.413   5.662  11.456 -1.0764 -1.4010 -0.7142
20195TIP3   OH282075   6.551   5.586   4.901  0.6293  0.3428 -0.0456
20195TIP3    H182076   6.563   5.528   4.976 -0.9063  0.8036  0.6022
20195TIP3    H282077   6.469   5.632   4.919  2.1522  3.3350 -0.1235
20196TIP3   OH282078   4.069   2.888   1.334 -0.4701  0.0132 -0.4591
20196TIP3    H182079   3.979   2.867   1.311 -0.2051 -1.0907 -0.5429
20196TIP3    H282080   4.085   2.841   1.416 -0.4799  1.5551  0.4788
20197TIP3   OH282081   2.387   6.637  13.908 -0.1640 -0.2952 -0.0821
20197TIP3    H182082   2.451   6.619  13.977 -0.3024  1.2767  0.4976
20197TIP3    H282083   2.427   6.602  13.829  0.8101 -0.5538  0.5090
20198TIP3   OH282084   5.087   5.036  17.027 -0.0151 -0.6338 -0.1045
20198TIP3    H182085   5.170   4.996  17.002 -0.1298 -0.2107 -1.2317
20198TIP3    H282086   5.035   5.035  16.947  0.2342  2.3763 -0.4404
20199TIP3   OH282087   2.228   1.947   5.661 -0.1406 -0.1803  0.3533
20199TIP3    H182088   2.170   1.922   5.732  0.0819  0.6847  0.8561
20199TIP3    H282089   2.313   1.911   5.685 -0.1832 -0.3397  0.2633
20200TIP3   OH282090   3.951   4.650   1.876 -0.5126  0.3284 -0.3722
20200TIP3    H182091   3.953   4.554   1.876 -0.0861  0.3098  1.1815
20200TIP3    H282092   3.980   4.674   1.964 -0.7215  1.8890 -0.7101
20201TIP3   OH282093   4.142   1.767   0.976  0.2321 -0.4156 -0.1901
20201TIP3    H182094   4.141   1.682   0.934 -0.7783 -0.2114 -0.6114
20201TIP3    H282095   4.089   1.756   1.055  0.2152 -0.2133 -0.1722
20202TIP3   OH282096   6.793   2.354  14.741 -0.6222 -0.1125  0.0286
20202TIP3    H182097   6.863   2.308  14.694 -0.8027 -0.5312  0.1691
20202TIP3    H282098   6.783   2.437  14.693 -0.0180 -0.0372  0.0196
20203TIP3   OH282099   5.731   0.225   3.861  0.2482 -0.1081 -0.1752
20203TIP3    H182100   5.793   0.169   3.908  0.4256  0.9248  0.8622
20203TIP3    H282101   5.746   0.313   3.896 -1.0438  0.3470 -0.6996
20204TIP3   OH282102   4.645   6.058  12.488  0.2142  0.6877 -0.0170
20204TIP3    H182103   4.673   6.148  12.506 -0.2389  0.6178  1.0969
20204TIP3    H282104   4.563   6.068  12.440  0.8549  0.8666 -1.1139
20205TIP3   OH282105   4.607   4.471  13.636 -0.2925 -1.1187  0.6401
20205TIP3    H182106   4.562   4.554  13.620 -0.8501 -1.6101 -0.4625
20205TIP3    H282107   4.575   4.413  13.567  1.3072 -1.7844  0.4217
20206TIP3   OH282108   6.694   4.460   5.881  0.2640 -0.0211  0.3765
20206TIP3    H182109   6.616   4.479   5.933  0.2619  0.9548  0.0264
20206TIP3    H282110   6.667   4.389   5.823  0.9612 -2.9345  3.3158
20207TIP3   OH282111   5.052   5.539  16.269 -0.0984  0.6082 -0.6065
20207TIP3    H182112   5.046   5.574  16.358 -1.7230 -2.0367  0.4539
20207TIP3    H282113   4.964   5.506  16.250  0.8499 -1.3144 -2.0755
20208TIP3   OH282114   4.795   4.748  13.135 -0.5335  0.1927  0.8940
20208TIP3    H182115   4.813   4.727  13.226  1.9276  1.4111  0.7563
20208TIP3    H282116   4.826   4.838  13.123  1.2946 -0.6407 -1.6351
20209TIP3   OH282117   0.552   2.693  12.795 -0.5649  0.0591  0.6592
20209TIP3    H182118   0.624   2.660  12.849 -0.8125 -0.7980  0.4797
20209TIP3    H282119   0.573   2.786  12.782  1.0624 -0.3842 -0.2444
20210TIP3   OH282120   6.035   4.100  11.031  0.4344 -0.1914  0.7424
20210TIP3    H182121   6.094   4.030  11.006  1.0734  0.9549 -1.1319
20210TIP3    H282122   6.088   4.159  11.084  0.4751 -0.0545  0.5487
20211TIP3   OH282123   3.488   2.774  15.796 -0.4776  0.2116 -0.1388
20211TIP3    H182124   3.517   2.847  15.741 -2.3334  0.1659 -1.2633
20211TIP3    H282125   3.443   2.715  15.736 -1.1033 -0.6817  1.1639
20212TIP3   OH282126   4.041   6.059  16.120  0.6486  0.0345  0.2226
20212TIP3    H182127   4.027   6.017  16.036 -0.7827  2.4854 -0.8948
20212TIP3    H282128   4.131   6.089  16.118  1.0660 -1.1735  0.2233
20213TIP3   OH282129   4.404   3.222   2.612  0.3628 -0.3067  1.3167
20213TIP3    H182130   4.339   3.246   2.546  1.8715  1.0849  0.2621
20213TIP3    H282131   4.416   3.127   2.600  0.3721 -0.1406 -0.1888
20214TIP3   OH282132   4.204   6.610   4.400  0.2689 -0.1243  0.2916
20214TIP3    H182133   4.217   6.681   4.463  0.5472  1.4896 -1.4994
20214TIP3    H282134   4.127   6.637   4.349  0.3518 -1.1426 -0.3962
20215TIP3   OH282135   6.682   0.701   5.632  0.2686 -0.4117  0.3342
20215TIP3    H182136   6.733   0.782   5.630  0.2024 -0.3771 -1.4146
20215TIP3    H282137   6.744   0.634   5.660  0.2597  0.2391  2.0788
20216TIP3   OH282138   3.392   0.329   2.240 -0.2340 -0.1363  0.2932
20216TIP3    H182139   3.485   0.323   2.218 -0.5667  0.8398 -1.6364
20216TIP3    H282140   3.358   0.240   2.227  0.7636 -1.0117  3.0659
20217TIP3   OH282141   5.164   2.664  14.512  0.1563 -0.1686  0.3010
20217TIP3    H182142   5.108   2.699  14.444 -0.7692  0.0327  1.1476
20217TIP3    H282143   5.126   2.696  14.594  2.1827  0.9874  0.8607
20218TIP3   OH282144   4.905   3.993   3.100 -0.3239 -0.4936 -0.0427
20218TIP3    H182145   4.816   3.988   3.133 -0.5407 -0.3011 -0.5962
20218TIP3    H282146   4.913   4.083   3.067  0.3910 -0.1895  0.9053
20219TIP3   OH282147   5.865   3.811   5.584  0.0069 -0.4192  0.1561
20219TIP3    H182148   5.823   3.891   5.616  1.0199  0.2254 -0.0568
20219TIP3    H282149   5.880   3.759   5.663 -1.7750 -0.9743  0.1594
20220TIP3   OH282150   0.004   5.924  13.864 -0.3838 -0.4845  0.3681
20220TIP3    H182151  -0.003   5.990  13.795  0.5096 -0.8417 -0.0800
20220TIP3    H282152   0.075   5.955  13.920  0.7219 -1.5454 -0.4052
20221TIP3   OH282153   0.802   4.639   1.480  0.2945  0.3021  0.2357
20221TIP3    H182154   0.852   4.610   1.404 -1.1755  0.6093 -0.8926
20221TIP3    H282155   0.866   4.640   1.552  1.3665 -1.5189 -0.6212
20222TIP3   OH282156   1.165   1.766   4.933 -0.3035 -0.0285  0.9039
20222TIP3    H182157   1.258   1.781   4.947 -0.0828  0.5072 -0.9207
20222TIP3    H282158   1.127   1.766   5.021  1.3763 -0.0453  1.6581
20223TIP3   OH282159   6.773   0.817  11.285  0.4383  0.1982 -0.1254
20223TIP3    H182160   6.804   0.792  11.371  2.0111  0.6973 -0.5135
20223TIP3    H282161   6.828   0.768  11.224 -0.7197 -0.2266 -0.8522
20224TIP3   OH282162   5.888   4.034   6.201  0.2132 -0.0326 -0.2723
20224TIP3    H182163   5.807   3.984   6.203 -0.4450  0.8937 -1.8436
20224TIP3    H282164   5.928   4.018   6.286 -0.7060 -1.9742 -0.1372
20225TIP3   OH282165   0.946   4.759  14.636 -0.1596 -0.0376 -0.0821
20225TIP3    H182166   1.024   4.743  14.689 -0.4694  1.0646  0.7321
20225TIP3    H282167   0.928   4.674  14.595  1.2286 -0.4132  0.0111
20226TIP3   OH282168   5.516   3.289  14.561 -0.0862 -0.8445  0.4131
20226TIP3    H182169   5.534   3.195  14.552  0.1455 -0.7366 -0.2954
20226TIP3    H282170   5.585   3.332  14.511 -0.0339 -0.2805  0.9577
20227TIP3   OH282171   3.751   5.737   3.559  0.2751 -0.5061 -0.5732
20227TIP3    H182172   3.816   5.760   3.625  1.6705 -1.9352 -1.3857
20227TIP3    H282173   3.672   5.715   3.609  0.8100 -0.0497  0.4956
20228TIP3   OH282174   5.459   1.149   0.063 -0.6332 -0.1094 -0.1980
20228TIP3    H182175   5.529   1.110   0.011 -0.2660  0.4826 -0.1565
20228TIP3    H282176   5.409   1.074   0.096 -0.0059 -0.5392 -0.2004
20229TIP3   OH282177   2.111   5.875  11.483 -0.1837 -0.4726 -0.1351
20229TIP3    H182178   2.053   5.945  11.513 -0.3297  0.3882 -2.2542
20229TIP3    H282179   2.076   5.849  11.398  0.5725 -2.3349  0.0596
20230TIP3   OH282180   4.173   1.003  16.049  0.7401 -0.5501  0.2831
20230TIP3    H182181   4.098   0.990  16.107  0.6843  1.7560  0.8143
20230TIP3    H282182   4.167   0.931  15.986 -1.9353 -0.4462  0.3094
20231TIP3   OH282183   4.211   1.853  11.572  0.5970 -0.7813 -0.3019
20231TIP3    H182184   4.171   1.770  11.598 -0.8835 -0.0476 -0.1176
20231TIP3    H282185   4.293   1.828  11.530  0.0515 -2.3606 -0.5058
20232TIP3   OH282186   0.506   2.025  13.631  0.1818  0.6399 -0.2358
20232TIP3    H182187   0.455   2.105  13.642 -0.3875  0.2749 -0.1918
20232TIP3    H282188   0.594   2.056  13.608  0.1529  1.2964  0.4925
20233CLA    CLA82189   6.444   6.519  14.705  0.2897 -0.4531 -0.0140
20234LIG      S82190   3.585   3.712  16.222 -0.3359  0.1509 -0.0526
20234LIG     O182191   3.114   3.822  16.489  0.9549  0.4455  0.1076
20234LIG     O282192   3.318   3.699  16.337 -0.0281 -0.9170 -0.0103
20234LIG     O382193   3.517   3.141  16.365 -0.7871  0.4594  0.2619
20234LIG     O482194   3.498   3.217  16.101 -0.1902  0.1394  0.2729
20234LIG      N82195   3.128   3.497  16.898  0.4848  0.1960 -0.5079
20234LIG     C182196   3.192   3.673  16.651 -0.5986  0.4202 -0.3186
20234LIG     C282197   3.268   3.521  16.845  0.2661 -0.4210 -0.1932
20234LIG     C382198   3.031   3.513  16.776  0.1038 -0.0149 -0.0994
20234LIG     C482199   3.293   3.653  16.766  0.3948  0.2390 -0.5911
20234LIG     C582200   3.047   3.643  16.696 -0.2114  0.2405 -0.6271
20234LIG     C682201   3.114   3.358  16.958 -0.0412 -0.1231  0.1593
20234LIG     C782202   3.209   3.808  16.594  0.6759 -0.5627 -0.2075
20234LIG     C882203   3.091   3.603  17.000 -0.1068  0.2068 -0.7355
20234LIG     C982204   3.351   3.834  16.533  0.4430  0.4334  0.5160
20234LIG    C1082205   2.973   3.342  17.003  0.3953  0.3040 -0.8977
20234LIG    C1182206   3.399   3.756  16.414 -0.1353  1.1143  0.1347
20234LIG    C1282207   3.548   3.745  16.396  0.1654 -0.5482  0.0560
20234LIG    C1382208   2.856   3.304  16.931  0.1507  0.0667 -0.4150
20234LIG    C1482209   2.958   3.344  17.145 -0.4730 -0.3411 -0.0649
20234LIG    C1582210   3.607   3.626  16.471  0.9924  0.3469  0.3472
20234LIG    C1682211   3.569   3.505  16.391 -0.0573  0.2031  0.3431
20234LIG    C1782212   2.734   3.318  16.994  0.1771  0.0890 -0.3004
20234LIG    C1882213   2.829   3.351  17.210 -0.2592 -0.4822  0.1788
20234LIG    C1982214   3.567   3.542  16.254  0.1724 -0.1404  0.0860
20234LIG    C2082215   2.716   3.350  17.131  0.9075  0.0715 -0.3109
20234LIG    C2182216   3.566   3.371  16.431  0.4974  0.8715  0.2717
20234LIG    C2282217   3.542   3.446  16.153 -0.6747 -0.2057 -0.0566
20234LIG    C2382218   3.535   3.279  16.330  0.0403  0.1622 -0.4990
20234LIG    C2482219   3.533   3.316  16.195  0.0944 -0.0244 -0.3085
20234LIG    C2582220   3.607   3.083  16.452  0.5898 -0.6688 -0.0262
20234LIG    C2682221   3.606   3.193  16.009 -0.5945  0.1346 -0.3053
20234LIG     H182222   3.221   3.596  16.576 -0.5579  0.3726 -0.2544
20234LIG     H282223   3.279   3.434  16.781  1.1835 -0.2892 -0.2244
20234LIG     H382224   3.334   3.516  16.930  0.6023  0.9285 -0.3563
20234LIG     H482225   2.928   3.506  16.808  0.8385  0.3269  2.6362
20234LIG     H582226   3.043   3.427  16.713 -1.1748  0.2749 -0.7794
20234LIG     H682227   3.288   3.745  16.828 -0.2019 -1.4323  1.9597
20234LIG     H782228   3.401   3.652  16.738  0.0929  1.0981 -1.8770
20234LIG     H882229   2.981   3.641  16.607 -1.1133 -0.5001  0.0424
20234LIG     H982230   3.019   3.729  16.760 -1.2992 -0.4505 -0.1509
20234LIG    H1082231   3.174   3.353  17.047  0.6686  0.0378 -0.3027
20234LIG    H1182232   3.132   3.273  16.893  1.2628  0.5795 -0.4337
20234LIG    H1282233   3.186   3.880  16.675  1.3481 -0.7553  0.1660
20234LIG    H1382234   2.987   3.602  17.029 -0.9763  2.4004 -3.3182
20234LIG    H1482235   3.095   3.701  16.956  0.1696  0.6391  0.2399
20234LIG    H1582236   3.160   3.608  17.082  1.2791  0.2482 -1.8583
20234LIG    H1682237   3.411   3.818  16.625 -2.0637 -2.7584  1.7837
20234LIG    H1782238   3.347   3.941  16.500 -0.5057  0.0441 -0.7159
20234LIG    H1882239   3.047   3.878  16.527 -1.5028 -1.9820 -0.3358
20234LIG    H1982240   3.597   3.837  16.432  0.0222 -0.9155  1.2448
20234LIG    H2082241   2.875   3.275  16.829  0.9288 -2.8284  0.4713
20234LIG    H2182242   3.049   3.360  17.201 -0.1183 -2.2579 -0.0422
20234LIG    H2282243   3.573   3.613  16.575 -3.7091 -0.3018 -0.9977
20234LIG    H2382244   3.715   3.641  16.484  0.7429  0.3728  3.0433
20234LIG    H2482245   2.640   3.300  16.945 -0.2378  0.8264  0.2157
20234LIG    H2582246   2.814   3.371  17.316 -0.5948  1.0812 -0.1325
20234LIG    H2682247   2.618   3.365  17.173  1.0423 -2.1496  0.9354
20234LIG    H2782248   3.545   3.340  16.532 -1.0140  1.1560  0.0747
20234LIG    H2882249   3.524   3.468  16.049 -1.0514 -1.3396 -0.2491
20234LIG    H2982250   3.691   3.036  16.396  0.8217 -1.6333  1.0958
20234LIG    H3082251   3.551   3.009  16.513 -0.5565  0.4831  0.3414
20234LIG    H3182252   3.659   3.156  16.518  0.8376 -1.4781  0.6989
20234LIG    H3282253   3.584   3.111  15.938  0.1008 -0.0008 -0.3746
20234LIG    H3382254   3.692   3.160  16.071 -1.7767  0.0616  1.3557
20234LIG    H3482255   3.630   3.283  15.949 -2.1466  1.9740  1.6516
   6.83175   6.83175  17.19782
